<event>
12    1  0.1348628E-002  0.1811303E+03  0.7818608E-02  0.1166714E+00
          2   -1    0    0  502    0  0.00000000000E+00  0.00000000000E+00  0.15494709843E+04  0.15494709843E+04  0.00000000000E+00 0. -1.
         -2   -1    0    0    0  501 -0.00000000000E+00 -0.00000000000E+00 -0.21630118536E+02  0.21630118536E+02  0.00000000000E+00 0.  1.
          6    2    1    2  502    0  0.36781531600E+02 -0.39992215331E+02  0.87622263943E+03  0.89466104319E+03  0.17233690844E+03 0.  0.
         24    2    3    3    0    0 -0.29357928673E+02  0.20466111398E+02  0.54072345642E+03  0.54736948085E+03  0.77141056208E+02 0.  0.
         -6    2    1    2    0  501 -0.36781531600E+02  0.39992215331E+02  0.65161822637E+03  0.67644005968E+03  0.17324140106E+03 0.  0.
        -24    2    5    5    0    0 -0.14789819831E+02 -0.34626191029E+02  0.45909134735E+03  0.46873779416E+03  0.86790221728E+02 0.  0.
          5    1    3    3  502    0  0.66139460273E+02 -0.60458326729E+02  0.33549918301E+03  0.34729156234E+03  0.47000000000E+01 0. -1.
        -11    1    4    4    0    0 -0.34590449986E+02 -0.21226106141E+02  0.20091252315E+03  0.20497045829E+03  0.00000000000E+00 0.  1.
         12    1    4    4    0    0  0.52325213134E+01  0.41692217540E+02  0.33981093327E+03  0.34239902256E+03  0.00000000000E+00 0. -1.
         -5    1    5    5    0  501 -0.21991711769E+02  0.74618406360E+02  0.19252687902E+03  0.20770226551E+03  0.47000000000E+01 0.  1.
         11    1    6    6    0    0 -0.10703628871E+02  0.54560012089E+01  0.37798190289E+03  0.37817278396E+03  0.00000000000E+00 0. -1.
        -12    1    6    6    0    0 -0.40861909599E+01 -0.40082192238E+02  0.81109444466E+02  0.90565010201E+02  0.00000000000E+00 0.  1.
</event>
<event>
12    1  0.1348628E-002  0.2407466E+03  0.7818608E-02  0.1119296E+00
          2   -1    0    0  502    0  0.00000000000E+00  0.00000000000E+00  0.13301031635E+04  0.13301031635E+04  0.00000000000E+00 0.  1.
         -2   -1    0    0    0  501 -0.00000000000E+00 -0.00000000000E+00 -0.55173109833E+02  0.55173109833E+02  0.00000000000E+00 0. -1.
          6    2    1    2  502    0 -0.21102616815E+01  0.16877171887E+03  0.95238395529E+03  0.98203425838E+03  0.16990509128E+03 0.  0.
         24    2    3    3    0    0 -0.49898262663E+02  0.60704314056E+02  0.47816392048E+03  0.49329200684E+03  0.92311531269E+02 0.  0.
         -6    2    1    2    0  501  0.21102616815E+01 -0.16877171887E+03  0.32254609836E+03  0.40324201494E+03  0.17343526385E+03 0.  0.
        -24    2    5    5    0    0 -0.27200783110E+02 -0.17741299641E+03  0.21565823104E+03  0.29197245394E+03  0.80772441763E+02 0.  0.
          5    1    3    3  502    0  0.47788000982E+02  0.10806740481E+03  0.47422003481E+03  0.48874225153E+03  0.47000000000E+01 0. -1.
        -13    1    4    4    0    0 -0.14500174724E+02  0.63852527314E+02  0.42042179218E+03  0.42549016869E+03  0.00000000000E+00 0.  1.
         14    1    4    4    0    0 -0.35398087939E+02 -0.31482132575E+01  0.57742128297E+02  0.67801838151E+02  0.00000000000E+00 0. -1.
         -5    1    5    5    0  501  0.29311044791E+02  0.86412775342E+01  0.10688786733E+03  0.11126956100E+03  0.47000000000E+01 0.  1.
         11    1    6    6    0    0  0.26462522475E+02 -0.65703494299E+02  0.58756059596E+02  0.92029825590E+02  0.00000000000E+00 0. -1.
        -12    1    6    6    0    0 -0.53663305585E+02 -0.11170950211E+03  0.15690217144E+03  0.19994262835E+03  0.00000000000E+00 0.  1.
</event>
<event>
12    1  0.1348628E-002  0.1986522E+03  0.7818608E-02  0.1150881E+00
          2   -1    0    0  502    0  0.00000000000E+00  0.00000000000E+00  0.28034661836E+04  0.28034661836E+04  0.00000000000E+00 0. -1.
         -2   -1    0    0    0  501 -0.00000000000E+00 -0.00000000000E+00 -0.15186484035E+02  0.15186484035E+02  0.00000000000E+00 0.  1.
          6    2    1    2  502    0  0.71148868688E+02  0.80285816052E+02  0.10428660986E+04  0.10624552788E+04  0.17243417914E+03 0.  0.
         24    2    3    3    0    0  0.33953702224E+02  0.31636002407E+02  0.92411080114E+03  0.92875712832E+03  0.80345130982E+02 0.  0.
         -6    2    1    2    0  501 -0.71148868688E+02 -0.80285816052E+02  0.17454136009E+04  0.17561973888E+04  0.16202671455E+03 0.  0.
        -24    2    5    5    0    0 -0.35506559324E+02 -0.10469348249E+03  0.15348451130E+04  0.15411920713E+04  0.85451968617E+02 0.  0.
          5    1    3    3  502    0  0.37195166464E+02  0.48649813644E+02  0.11875529744E+03  0.13369815050E+03  0.47000000000E+01 0. -1.
        -11    1    4    4    0    0  0.49676587150E+02  0.31187531525E+02  0.38734048980E+03  0.39175640450E+03  0.00000000000E+00 0.  1.
         12    1    4    4    0    0 -0.15722884926E+02  0.44847088269E+00  0.53677031135E+03  0.53700072382E+03  0.00000000000E+00 0. -1.
         -5    1    5    5    0  501 -0.35642309364E+02  0.24407666442E+02  0.21056848797E+03  0.21500531744E+03  0.47000000000E+01 0.  1.
         13    1    6    6    0    0 -0.45511845933E+02 -0.10956105385E+03  0.11332932605E+04  0.11394860977E+04  0.00000000000E+00 0. -1.
        -14    1    6    6    0    0  0.10005286609E+02  0.48675713576E+01  0.40155185249E+03  0.40170597363E+03  0.00000000000E+00 0.  1.
</event>
<event>
12    1  0.1348628E-002  0.1791221E+03  0.7818608E-02  0.1168655E+00
         -2   -1    0    0    0  501 -0.00000000000E+00  0.00000000000E+00  0.22674932822E+03  0.22674932822E+03  0.00000000000E+00 0. -1.
          2   -1    0    0  502    0  0.00000000000E+00 -0.00000000000E+00 -0.20486085045E+03  0.20486085045E+03  0.00000000000E+00 0.  1.
          6    2    1    2  502    0  0.25342647045E+02 -0.43960441934E+02  0.13093579998E+03  0.22140292022E+03  0.17117330152E+03 0.  0.
         24    2    3    3    0    0  0.22227926896E+01 -0.61481898503E+02  0.15403277665E+03  0.18402526062E+03  0.79713459418E+02 0.  0.
         -6    2    1    2    0  501 -0.25342647045E+02  0.43960441934E+02 -0.10904732221E+03  0.21020725844E+03  0.17239780395E+03 0.  0.
        -24    2    5    5    0    0 -0.23055058127E+01  0.55473542134E+02 -0.14028859574E+03  0.16944736977E+03  0.77129059333E+02 0.  0.
          5    1    3    3  502    0  0.23119854355E+02  0.17521456569E+02 -0.23096976673E+02  0.37377659600E+02  0.47000000000E+01 0. -1.
        -13    1    4    4    0    0 -0.28610681774E+02  0.20409686513E+01  0.31494081691E+02  0.42598284545E+02  0.00000000000E+00 0.  1.
         14    1    4    4    0    0  0.30833474464E+02 -0.63522867155E+02  0.12253869496E+03  0.14142697608E+03  0.00000000000E+00 0. -1.
         -5    1    5    5    0  501 -0.23037141232E+02 -0.11513100199E+02  0.31241273534E+02  0.40759888670E+02  0.47000000000E+01 0.  1.
         11    1    6    6    0    0  0.25423684730E+02  0.40880620644E+02 -0.34797315474E+02  0.59400690684E+02  0.00000000000E+00 0. -1.
        -12    1    6    6    0    0 -0.27729190543E+02  0.14592921489E+02 -0.10549128027E+03  0.11004667909E+03  0.00000000000E+00 0.  1.
</event>
<event>
12    1  0.1348628E-002  0.1889249E+03  0.7818608E-02  0.1159435E+00
         -2   -1    0    0    0  501 -0.00000000000E+00  0.00000000000E+00  0.82610447498E+02  0.82610447498E+02  0.00000000000E+00 0.  1.
          2   -1    0    0  502    0  0.00000000000E+00 -0.00000000000E+00 -0.43378710057E+03  0.43378710057E+03  0.00000000000E+00 0. -1.
          6    2    1    2  502    0 -0.70795095261E+02 -0.31357271873E+02 -0.19133364277E+03  0.26848612124E+03  0.17170035070E+03 0.  0.
         24    2    3    3    0    0 -0.89258799737E+02  0.13149605011E+02 -0.74403127553E+02  0.14192939142E+03  0.80424382605E+02 0.  0.
         -6    2    1    2    0  501  0.70795095261E+02  0.31357271873E+02 -0.15984301029E+03  0.24791142682E+03  0.17295971669E+03 0.  0.
        -24    2    5    5    0    0  0.97722306518E+02  0.55940229255E+02 -0.15951900013E+03  0.21114742973E+03  0.80361478575E+02 0.  0.
          5    1    3    3  502    0  0.18463704477E+02 -0.44506876884E+02 -0.11693051522E+03  0.12655672982E+03  0.47000000000E+01 0. -1.
        -11    1    4    4    0    0 -0.76974683722E+02  0.36530601048E+02 -0.77700970148E+02  0.11531273784E+03  0.00000000000E+00 0.  1.
         12    1    4    4    0    0 -0.12284116015E+02 -0.23380996038E+02  0.32978425944E+01  0.26616653579E+02  0.00000000000E+00 0. -1.
         -5    1    5    5    0  501 -0.26927211257E+02 -0.24582957382E+02 -0.32401016672E+00  0.36763997093E+02  0.47000000000E+01 0.  1.
         11    1    6    6    0    0  0.42222596726E+02 -0.17629096326E+02 -0.45294346257E+02  0.64382532681E+02  0.00000000000E+00 0. -1.
        -12    1    6    6    0    0  0.55499709791E+02  0.73569325581E+02 -0.11422465387E+03  0.14676489705E+03  0.00000000000E+00 0.  1.
</event>
<event>
12    1  0.1348628E-002  0.2034808E+03  0.7818608E-02  0.1146835E+00
          1   -1    0    0  502    0  0.00000000000E+00  0.00000000000E+00  0.21533543398E+04  0.21533543398E+04  0.00000000000E+00 0.  1.
         -1   -1    0    0    0  501 -0.00000000000E+00 -0.00000000000E+00 -0.21181841181E+02  0.21181841181E+02  0.00000000000E+00 0. -1.
          6    2    1    2  502    0  0.10520712207E+03  0.32493784424E+02  0.13977871782E+04  0.14125650809E+04  0.17148389894E+03 0.  0.
         24    2    3    3    0    0  0.75688217610E+02 -0.41905619395E+02  0.67128109750E+03  0.68164797729E+03  0.80875619714E+02 0.  0.
         -6    2    1    2    0  501 -0.10520712207E+03 -0.32493784424E+02  0.73438532046E+03  0.76197110015E+03  0.17074476272E+03 0.  0.
        -24    2    5    5    0    0 -0.14084526839E+03 -0.37664525634E+02  0.58201260329E+03  0.60533027222E+03  0.80187667091E+02 0.  0.
          5    1    3    3  502    0  0.29518904460E+02  0.74399403819E+02  0.72650608069E+03  0.73091710357E+03  0.47000000000E+01 0. -1.
        -11    1    4    4    0    0  0.57863510422E+02 -0.26996084869E+02  0.63724238407E+03  0.64043331464E+03  0.00000000000E+00 0.  1.
         12    1    4    4    0    0  0.17824707187E+02 -0.14909534526E+02  0.34038713426E+02  0.41214662655E+02  0.00000000000E+00 0. -1.
         -5    1    5    5    0  501  0.35638146324E+02  0.51707412097E+01  0.15237271717E+03  0.15664082794E+03  0.47000000000E+01 0.  1.
         11    1    6    6    0    0 -0.49573257935E+02  0.23547202449E+02  0.23538815054E+03  0.24170138613E+03  0.00000000000E+00 0. -1.
        -12    1    6    6    0    0 -0.91272010458E+02 -0.61211728083E+02  0.34662445275E+03  0.36362888609E+03  0.00000000000E+00 0.  1.
</event>
<event>
12    1  0.1348628E-002  0.2493618E+03  0.7818608E-02  0.1113709E+00
          1   -1    0    0  502    0  0.00000000000E+00  0.00000000000E+00  0.17462338796E+04  0.17462338796E+04  0.00000000000E+00 0. -1.
         -1   -1    0    0    0  501 -0.00000000000E+00 -0.00000000000E+00 -0.38751763449E+02  0.38751763449E+02  0.00000000000E+00 0.  1.
          6    2    1    2  502    0  0.11305519235E+03 -0.14426239754E+03  0.59923102534E+03  0.64900353429E+03  0.16892202321E+03 0.  0.
         24    2    3    3    0    0  0.59478594317E+02 -0.10893969380E+03  0.22356090874E+03  0.26786278369E+03  0.79783650609E+02 0.  0.
         -6    2    1    2    0  501 -0.11305519235E+03  0.14426239754E+03  0.11082510909E+04  0.11359821088E+04  0.16923875232E+03 0.  0.
        -24    2    5    5    0    0 -0.63167549950E+02  0.13554100758E+03  0.10208732857E+04  0.10348791398E+04  0.80193917663E+02 0.  0.
          5    1    3    3  502    0  0.53576598037E+02 -0.35322703741E+02  0.37567011660E+03  0.38114075059E+03  0.47000000000E+01 0. -1.
        -13    1    4    4    0    0  0.11509449970E+01 -0.79368255845E+02  0.96423581592E+02  0.12489256102E+03  0.00000000000E+00 0.  1.
         14    1    4    4    0    0  0.58327649320E+02 -0.29571437953E+02  0.12713732715E+03  0.14297022268E+03  0.00000000000E+00 0. -1.
         -5    1    5    5    0  501 -0.49887642405E+02  0.87213899587E+01  0.87377805103E+02  0.10110296896E+03  0.47000000000E+01 0.  1.
         13    1    6    6    0    0 -0.62465051666E+02  0.71489564052E+02  0.77523973989E+03  0.78103091793E+03  0.00000000000E+00 0. -1.
        -14    1    6    6    0    0 -0.70249828356E+00  0.64051443528E+02  0.24563354586E+03  0.25384822192E+03  0.00000000000E+00 0.  1.
</event>
<event>
12    1  0.1348628E-002  0.1828210E+03  0.7818608E-02  0.1165100E+00
         -2   -1    0    0    0  501 -0.00000000000E+00  0.00000000000E+00  0.30324064748E+02  0.30324064748E+02  0.00000000000E+00 0.  1.
          2   -1    0    0  502    0  0.00000000000E+00 -0.00000000000E+00 -0.11092736931E+04  0.11092736931E+04  0.00000000000E+00 0. -1.
          6    2    1    2  502    0  0.22396046263E+02  0.57488919522E+02 -0.49531112499E+03  0.52812594194E+03  0.17256112327E+03 0.  0.
         24    2    3    3    0    0  0.54289009914E+02 -0.20592604628E+02 -0.25419367464E+03  0.27263895518E+03  0.79663189070E+02 0.  0.
         -6    2    1    2    0  501 -0.22396046263E+02 -0.57488919522E+02 -0.58363850333E+03  0.61147181587E+03  0.17163134991E+03 0.  0.
        -24    2    5    5    0    0 -0.34038174842E+02 -0.75681326458E+02 -0.24402195862E+03  0.27113670121E+03  0.84155415351E+02 0.  0.
          5    1    3    3  502    0 -0.31892963650E+02  0.78081524150E+02 -0.24111745034E+03  0.25548698676E+03  0.47000000000E+01 0. -1.
        -13    1    4    4    0    0 -0.33487450349E+01 -0.31870121223E+02 -0.44248610241E+02  0.54633856063E+02  0.00000000000E+00 0.  1.
         14    1    4    4    0    0  0.57637754949E+02  0.11277516595E+02 -0.20994506440E+03  0.21800509912E+03  0.00000000000E+00 0. -1.
         -5    1    5    5    0  501  0.11642128578E+02  0.18192406936E+02 -0.33961654471E+03  0.34033511465E+03  0.47000000000E+01 0.  1.
         13    1    6    6    0    0 -0.36327636787E+01 -0.83851409993E+02 -0.20104973140E+03  0.21786521160E+03  0.00000000000E+00 0. -1.
        -14    1    6    6    0    0 -0.30405411163E+02  0.81700835350E+01 -0.42972227227E+02  0.53271489615E+02  0.00000000000E+00 0.  1.
</event>
<event>
12    1  0.1348628E-002  0.2223910E+03  0.7818608E-02  0.1132113E+00
          2   -1    0    0  502    0  0.00000000000E+00  0.00000000000E+00  0.10531334762E+04  0.10531334762E+04  0.00000000000E+00 0.  1.
         -2   -1    0    0    0  501 -0.00000000000E+00 -0.00000000000E+00 -0.48637064603E+02  0.48637064603E+02  0.00000000000E+00 0. -1.
          6    2    1    2  502    0  0.14123007479E+03 -0.19618564842E+01  0.39942506687E+03  0.45702798170E+03  0.17141881200E+03 0.  0.
         24    2    3    3    0    0  0.13566406146E+03  0.11959222183E+02  0.40921522162E+03  0.43851544364E+03  0.79315421791E+02 0.  0.
         -6    2    1    2    0  501 -0.14123007479E+03  0.19618564842E+01  0.60507134469E+03  0.64474255907E+03  0.17213904960E+03 0.  0.
        -24    2    5    5    0    0 -0.12110838168E+03  0.40502804754E+02  0.56742725103E+03  0.58704112914E+03  0.79598271296E+02 0.  0.
          5    1    3    3  502    0  0.55660133317E+01 -0.13921078667E+02 -0.97901547500E+01  0.18512538067E+02  0.47000000000E+01 0. -1.
        -11    1    4    4    0    0  0.28859327314E+02  0.18359086861E+02  0.20632548510E+03  0.20914139390E+03  0.00000000000E+00 0.  1.
         12    1    4    4    0    0  0.10680473414E+03 -0.63998646785E+01  0.20288973652E+03  0.22937404973E+03  0.00000000000E+00 0. -1.
         -5    1    5    5    0  501 -0.20121693112E+02 -0.38540948270E+02  0.37644093666E+02  0.57701429923E+02  0.47000000000E+01 0.  1.
         11    1    6    6    0    0 -0.98215317551E+02  0.52006965336E+02  0.32947707451E+03  0.34771556720E+03  0.00000000000E+00 0. -1.
        -12    1    6    6    0    0 -0.22893064128E+02 -0.11504160582E+02  0.23795017652E+03  0.23932556194E+03  0.00000000000E+00 0.  1.
</event>
<event>
12    1  0.1348628E-002  0.2171721E+03  0.7818608E-02  0.1136009E+00
         -1   -1    0    0    0  501 -0.00000000000E+00  0.00000000000E+00  0.15707600601E+02  0.15707600601E+02  0.00000000000E+00 0.  1.
          1   -1    0    0  502    0  0.00000000000E+00 -0.00000000000E+00 -0.31831436304E+04  0.31831436304E+04  0.00000000000E+00 0. -1.
          6    2    1    2  502    0 -0.23245274261E+02 -0.13181090381E+03 -0.19656553773E+04  0.19776324098E+04  0.17121457045E+03 0.  0.
         24    2    3    3    0    0 -0.31125927828E+02 -0.54694276788E+01 -0.98933126780E+03  0.99312485273E+03  0.80758142804E+02 0.  0.
         -6    2    1    2    0  501  0.23245274261E+02  0.13181090381E+03 -0.12017806525E+04  0.12212188212E+04  0.17083388194E+03 0.  0.
        -24    2    5    5    0    0 -0.41645200562E+01  0.41025986015E+02 -0.27260915712E+03  0.28720867346E+03  0.80452438178E+02 0.  0.
          5    1    3    3  502    0  0.78806535677E+01 -0.12634147614E+03 -0.97632410947E+03  0.98450755712E+03  0.47000000000E+01 0. -1.
        -11    1    4    4    0    0 -0.81941005854E+01 -0.33492550653E+02 -0.19904143891E+03  0.20200591238E+03  0.00000000000E+00 0.  1.
         12    1    4    4    0    0 -0.22931827243E+02  0.28023122974E+02 -0.79028982889E+03  0.79111894035E+03  0.00000000000E+00 0. -1.
         -5    1    5    5    0  501  0.27409794317E+02  0.90784917800E+02 -0.92917149542E+03  0.93401014771E+03  0.47000000000E+01 0.  1.
         13    1    6    6    0    0  0.33769740452E+02  0.29839097052E+02 -0.19456494599E+03  0.19971551090E+03  0.00000000000E+00 0. -1.
        -14    1    6    6    0    0 -0.37934260508E+02  0.11186888962E+02 -0.78044211126E+02  0.87493162562E+02  0.00000000000E+00 0.  1.
</event>
<event>
12    1  0.1348628E-002  0.1868096E+03  0.7818608E-02  0.1161371E+00
         -1   -1    0    0    0  501 -0.00000000000E+00  0.00000000000E+00  0.42485546659E+02  0.42485546659E+02  0.00000000000E+00 0.  1.
          1   -1    0    0  502    0  0.00000000000E+00 -0.00000000000E+00 -0.11455615627E+04  0.11455615627E+04  0.00000000000E+00 0. -1.
          6    2    1    2  502    0 -0.70866980980E+02 -0.15481282434E+02 -0.86610070068E+03  0.88587730857E+03  0.17142456951E+03 0.  0.
         24    2    3    3    0    0 -0.10447436015E+03  0.21076250419E+02 -0.56732903465E+03  0.58297054476E+03  0.81445210049E+02 0.  0.
         -6    2    1    2    0  501  0.70866980980E+02  0.15481282434E+02 -0.23697531535E+03  0.30216980077E+03  0.17287998529E+03 0.  0.
        -24    2    5    5    0    0 -0.14858795537E+02 -0.23212475589E+02 -0.15854823064E+03  0.17961771680E+03  0.79783331108E+02 0.  0.
          5    1    3    3  502    0  0.33607379170E+02 -0.36557532852E+02 -0.29877166603E+03  0.30290676381E+03  0.47000000000E+01 0. -1.
        -13    1    4    4    0    0 -0.38129883027E+02  0.48491352432E+02 -0.23354895939E+03  0.24155830699E+03  0.00000000000E+00 0.  1.
         14    1    4    4    0    0 -0.66344477123E+02 -0.27415102013E+02 -0.33378007526E+03  0.34141223777E+03  0.00000000000E+00 0. -1.
         -5    1    5    5    0  501  0.85725776517E+02  0.38693758022E+02 -0.78427084714E+02  0.12255208397E+03  0.47000000000E+01 0.  1.
         13    1    6    6    0    0 -0.11019908928E+02 -0.53057375677E+02 -0.97113102704E+02  0.11120916430E+03  0.00000000000E+00 0. -1.
        -14    1    6    6    0    0 -0.38388866092E+01  0.29844900088E+02 -0.61435127934E+02  0.68408552506E+02  0.00000000000E+00 0.  1.
</event>
<event>
12    1  0.1348628E-002  0.2491211E+03  0.7818608E-02  0.1113862E+00
          3   -1    0    0  502    0  0.00000000000E+00  0.00000000000E+00  0.72029133856E+03  0.72029133856E+03  0.00000000000E+00 0. -1.
         -3   -1    0    0    0  501 -0.00000000000E+00 -0.00000000000E+00 -0.11108390776E+03  0.11108390776E+03  0.00000000000E+00 0.  1.
          6    2    1    2  502    0  0.14002338827E+03  0.11288731675E+03  0.50113187933E+03  0.55946580950E+03  0.17181017424E+03 0.  0.
         24    2    3    3    0    0  0.23083815816E+02  0.78268877903E+02  0.15901930390E+03  0.19623529842E+03  0.81007860923E+02 0.  0.
         -6    2    1    2    0  501 -0.14002338827E+03 -0.11288731675E+03  0.10807555146E+03  0.27190943682E+03  0.17292866004E+03 0.  0.
        -24    2    5    5    0    0 -0.74829000371E+02 -0.49157099898E+02  0.13115039242E+03  0.17774794236E+03  0.79863044113E+02 0.  0.
          5    1    3    3  502    0  0.11693957246E+03  0.34618438845E+02  0.34211257543E+03  0.36323051108E+03  0.47000000000E+01 0. -1.
        -13    1    4    4    0    0  0.42550841581E+02  0.10537410500E+02  0.71514370172E+02  0.83880368862E+02  0.00000000000E+00 0.  1.
         14    1    4    4    0    0 -0.19467025765E+02  0.67731467403E+02  0.87504933732E+02  0.11235492956E+03  0.00000000000E+00 0. -1.
         -5    1    5    5    0  501 -0.65194387900E+02 -0.63730216850E+02 -0.23074840957E+02  0.94161494458E+02  0.47000000000E+01 0.  1.
         13    1    6    6    0    0 -0.62844427743E+02 -0.67407992280E+02  0.79644205118E+02  0.12180500372E+03  0.00000000000E+00 0. -1.
        -14    1    6    6    0    0 -0.11984572628E+02  0.18250892382E+02  0.51506187303E+02  0.55942938645E+02  0.00000000000E+00 0.  1.
</event>
<event>
12    1  0.1348628E-002  0.2026413E+03  0.7818608E-02  0.1147529E+00
         -2   -1    0    0    0  501 -0.00000000000E+00  0.00000000000E+00  0.54183190716E+02  0.54183190716E+02  0.00000000000E+00 0.  1.
          2   -1    0    0  502    0  0.00000000000E+00 -0.00000000000E+00 -0.98952297927E+03  0.98952297927E+03  0.00000000000E+00 0. -1.
          6    2    1    2  502    0  0.51157687595E+02  0.96718437358E+02 -0.72072766863E+03  0.74875929432E+03  0.17094017485E+03 0.  0.
         24    2    3    3    0    0  0.73976150113E+02  0.12160929089E+03 -0.65475490469E+03  0.67449805003E+03  0.77345613112E+02 0.  0.
         -6    2    1    2    0  501 -0.51157687595E+02 -0.96718437358E+02 -0.21461211993E+03  0.29494687567E+03  0.17018734477E+03 0.  0.
        -24    2    5    5    0    0 -0.40102499178E+02 -0.13453861125E+03 -0.16302003742E+03  0.22985912166E+03  0.80937227848E+02 0.  0.
          5    1    3    3  502    0 -0.22818462518E+02 -0.24890853532E+02 -0.65972763937E+02  0.74261244285E+02  0.47000000000E+01 0. -1.
        -11    1    4    4    0    0  0.13302818717E+02  0.63961878075E+02 -0.16184417921E+03  0.17453259058E+03  0.00000000000E+00 0.  1.
         12    1    4    4    0    0  0.60673331396E+02  0.57647412814E+02 -0.49291072548E+03  0.49996545945E+03  0.00000000000E+00 0. -1.
         -5    1    5    5    0  501 -0.11055188417E+02  0.37820173894E+02 -0.51592082509E+02  0.65087754009E+02  0.47000000000E+01 0.  1.
         13    1    6    6    0    0 -0.24633801167E+02  0.18057659262E+01 -0.21653203197E+02  0.32847315860E+02  0.00000000000E+00 0. -1.
        -14    1    6    6    0    0 -0.15468698011E+02 -0.13634437718E+03 -0.14136683422E+03  0.19701180580E+03  0.00000000000E+00 0.  1.
</event>
<event>
12    1  0.1348628E-002  0.2172288E+03  0.7818608E-02  0.1135966E+00
          1   -1    0    0  502    0  0.00000000000E+00  0.00000000000E+00  0.35271063364E+03  0.35271063364E+03  0.00000000000E+00 0.  1.
         -1   -1    0    0    0  501 -0.00000000000E+00 -0.00000000000E+00 -0.14627318888E+03  0.14627318888E+03  0.00000000000E+00 0. -1.
          6    2    1    2  502    0  0.13281118526E+03  0.99024787169E+01  0.17621610012E+03  0.27990507108E+03  0.17192400897E+03 0.  0.
         24    2    3    3    0    0  0.88866646166E+02  0.73680679205E+02  0.83802093288E+02  0.15923519069E+03  0.70759676561E+02 0.  0.
         -6    2    1    2    0  501 -0.13281118526E+03 -0.99024787169E+01  0.30221344644E+02  0.21907875144E+03  0.17130469826E+03 0.  0.
        -24    2    5    5    0    0 -0.15791222035E+03 -0.46125553805E+01 -0.27244746310E+01  0.17706015723E+03  0.79908269378E+02 0.  0.
          5    1    3    3  502    0  0.43944539093E+02 -0.63778200488E+02  0.92414006832E+02  0.12066988039E+03  0.47000000000E+01 0. -1.
        -13    1    4    4    0    0  0.76404128010E+02  0.35244347346E+02  0.24793394263E+02  0.87718112131E+02  0.00000000000E+00 0.  1.
         14    1    4    4    0    0  0.12462518156E+02  0.38436331859E+02  0.59008699025E+02  0.71517078563E+02  0.00000000000E+00 0. -1.
         -5    1    5    5    0  501  0.25101035090E+02 -0.52899233364E+01  0.32945819275E+02  0.42018594208E+02  0.47000000000E+01 0.  1.
         13    1    6    6    0    0 -0.93587525391E+02  0.10512033075E+02 -0.38706107329E+02  0.10181989242E+03  0.00000000000E+00 0. -1.
        -14    1    6    6    0    0 -0.64324694958E+02 -0.15124588455E+02  0.35981632698E+02  0.75240264813E+02  0.00000000000E+00 0.  1.
</event>
<event>
12    1  0.1348628E-002  0.2013160E+03  0.7818608E-02  0.1148633E+00
          1   -1    0    0  502    0  0.00000000000E+00  0.00000000000E+00  0.26748761527E+02  0.26748761527E+02  0.00000000000E+00 0.  1.
         -1   -1    0    0    0  501 -0.00000000000E+00 -0.00000000000E+00 -0.15223574445E+04  0.15223574445E+04  0.00000000000E+00 0. -1.
          6    2    1    2  502    0 -0.39985501354E+02 -0.75963065184E+02 -0.72509161583E+03  0.75433100677E+03  0.18944178216E+03 0.  0.
         24    2    3    3    0    0 -0.39745860760E+02 -0.44729502558E+02 -0.71380710777E+03  0.72078964448E+03  0.80228814249E+02 0.  0.
         -6    2    1    2    0  501  0.39985501354E+02  0.75963065184E+02 -0.77051706714E+03  0.79477519926E+03  0.17493381323E+03 0.  0.
        -24    2    5    5    0    0  0.29819914717E+02  0.10380583279E+02 -0.15973199716E+03  0.18037720708E+03  0.77618567970E+02 0.  0.
          5    1    3    3  502    0 -0.23964059403E+00 -0.31233562626E+02 -0.11284508061E+02  0.33541362288E+02  0.47000000000E+01 0. -1.
        -11    1    4    4    0    0  0.22625954006E+02 -0.26850127468E+02 -0.26538723556E+03  0.26769992144E+03  0.00000000000E+00 0.  1.
         12    1    4    4    0    0 -0.62371814766E+02 -0.17879375090E+02 -0.44841987221E+03  0.45308972304E+03  0.00000000000E+00 0. -1.
         -5    1    5    5    0  501  0.10165586637E+02  0.65582481905E+02 -0.61078506999E+03  0.61439799219E+03  0.47000000000E+01 0.  1.
         13    1    6    6    0    0  0.27914400419E+02 -0.31343289056E+02 -0.76758642115E+02  0.87484310931E+02  0.00000000000E+00 0. -1.
        -14    1    6    6    0    0  0.19055142985E+01  0.41723872335E+02 -0.82973355041E+02  0.92892896145E+02  0.00000000000E+00 0.  1.
</event>
<event>
12    1  0.1348628E-002  0.2197359E+03  0.7818608E-02  0.1134080E+00
          2   -1    0    0  502    0  0.00000000000E+00  0.00000000000E+00  0.81185281343E+03  0.81185281343E+03  0.00000000000E+00 0. -1.
         -2   -1    0    0    0  501 -0.00000000000E+00 -0.00000000000E+00 -0.94704626940E+02  0.94704626940E+02  0.00000000000E+00 0.  1.
          6    2    1    2  502    0 -0.93423175325E+02  0.99754967770E+02  0.63458150101E+03  0.67140285353E+03  0.17149101148E+03 0.  0.
         24    2    3    3    0    0 -0.92089041139E+01  0.18642285875E+02  0.14329352019E+03  0.16637089341E+03  0.81938406797E+02 0.  0.
         -6    2    1    2    0  501  0.93423175325E+02 -0.99754967770E+02  0.82566685473E+02  0.23515458684E+03  0.17263104842E+03 0.  0.
        -24    2    5    5    0    0  0.88038499892E+02 -0.13830907285E+03  0.70436434075E+02  0.19411013840E+03  0.76402077773E+02 0.  0.
          5    1    3    3  502    0 -0.84214271211E+02  0.81112681895E+02  0.49128798082E+03  0.50503196012E+03  0.47000000000E+01 0. -1.
        -11    1    4    4    0    0 -0.22841484891E+02  0.45293589444E+02  0.11258617556E+03  0.12348639441E+03  0.00000000000E+00 0.  1.
         12    1    4    4    0    0  0.13632580777E+02 -0.26651303569E+02  0.30707344635E+02  0.42884499007E+02  0.00000000000E+00 0. -1.
         -5    1    5    5    0  501  0.53846754329E+01  0.38554105085E+02  0.12130251398E+02  0.41044448435E+02  0.47000000000E+01 0.  1.
         11    1    6    6    0    0  0.68398142965E+01 -0.35666068057E+02  0.49770756955E+02  0.61611522608E+02  0.00000000000E+00 0. -1.
        -12    1    6    6    0    0  0.81198685596E+02 -0.10264300480E+03  0.20665677120E+02  0.13249861579E+03  0.00000000000E+00 0.  1.
</event>
<event>
12    1  0.1348628E-002  0.1785996E+03  0.7818608E-02  0.1169165E+00
          2   -1    0    0  502    0  0.00000000000E+00  0.00000000000E+00  0.51873765773E+03  0.51873765773E+03  0.00000000000E+00 0. -1.
         -2   -1    0    0    0  501 -0.00000000000E+00 -0.00000000000E+00 -0.65102264467E+02  0.65102264467E+02  0.00000000000E+00 0.  1.
          6    2    1    2  502    0 -0.26351000417E+02  0.28395981095E+01  0.16406913173E+03  0.24601249520E+03  0.18138640872E+03 0.  0.
         24    2    3    3    0    0  0.29996654122E+02  0.54508457776E+02  0.61105483541E+02  0.11768349583E+03  0.79022489486E+02 0.  0.
         -6    2    1    2    0  501  0.26351000417E+02 -0.28395981095E+01  0.28956626154E+03  0.33782742700E+03  0.17197764992E+03 0.  0.
        -24    2    5    5    0    0  0.45879853470E+02  0.94990522340E+01  0.66893701849E+02  0.11391052895E+03  0.79408112374E+02 0.  0.
          5    1    3    3  502    0 -0.56347654539E+02 -0.51668859666E+02  0.10296364819E+03  0.12832899937E+03  0.47000000000E+01 0. -1.
        -11    1    4    4    0    0 -0.18473149960E+02  0.47624246942E+02  0.37272455413E+02  0.63234184574E+02  0.00000000000E+00 0.  1.
         12    1    4    4    0    0  0.48469804082E+02  0.68842108338E+01  0.23833028128E+02  0.54449311257E+02  0.00000000000E+00 0. -1.
         -5    1    5    5    0  501 -0.19528853053E+02 -0.12338650344E+02  0.22267255969E+03  0.22391689805E+03  0.47000000000E+01 0.  1.
         11    1    6    6    0    0 -0.14631290909E+02 -0.83762046589E+01  0.43439084142E+02  0.46596024608E+02  0.00000000000E+00 0. -1.
        -12    1    6    6    0    0  0.60511144379E+02  0.17875256893E+02  0.23454617707E+02  0.67314504342E+02  0.00000000000E+00 0.  1.
</event>
<event>
12    1  0.1348628E-002  0.2138511E+03  0.7818608E-02  0.1138552E+00
          2   -1    0    0  502    0  0.00000000000E+00  0.00000000000E+00  0.17642200418E+03  0.17642200418E+03  0.00000000000E+00 0. -1.
         -2   -1    0    0    0  501 -0.00000000000E+00 -0.00000000000E+00 -0.29838478414E+03  0.29838478414E+03  0.00000000000E+00 0.  1.
          6    2    1    2  502    0  0.50597827098E+02 -0.11455876035E+03 -0.14697931192E+03  0.25945541272E+03  0.17329265240E+03 0.  0.
         24    2    3    3    0    0  0.45288820010E+02 -0.73757549527E+02 -0.17090293260E+03  0.21162912301E+03  0.89932307905E+02 0.  0.
         -6    2    1    2    0  501 -0.50597827098E+02  0.11455876035E+03  0.25016531965E+02  0.21535137560E+03  0.17339705425E+03 0.  0.
        -24    2    5    5    0    0 -0.61517297842E+02  0.27722686229E+01 -0.79584738689E+01  0.98198076102E+02  0.76075366819E+02 0.  0.
          5    1    3    3  502    0  0.53090070883E+01 -0.40801210825E+02  0.23923620677E+02  0.47826289709E+02  0.47000000000E+01 0. -1.
        -11    1    4    4    0    0 -0.56035942781E+01  0.18555505831E+02 -0.25165788241E+02  0.31765137546E+02  0.00000000000E+00 0.  1.
         12    1    4    4    0    0  0.50892414288E+02 -0.92313055359E+02 -0.14573714436E+03  0.17986398547E+03  0.00000000000E+00 0. -1.
         -5    1    5    5    0  501  0.10919470744E+02  0.11178649173E+03  0.32975005833E+02  0.11715329950E+03  0.47000000000E+01 0.  1.
         13    1    6    6    0    0 -0.59773931098E+01  0.78112685034E+01  0.29447607795E+02  0.31046847648E+02  0.00000000000E+00 0. -1.
        -14    1    6    6    0    0 -0.55539904732E+02 -0.50389998805E+01 -0.37406081664E+02  0.67151228454E+02  0.00000000000E+00 0.  1.
</event>
<event>
12    1  0.1348628E-002  0.2249668E+03  0.7818608E-02  0.1130233E+00
         -1   -1    0    0    0  501 -0.00000000000E+00  0.00000000000E+00  0.76690550211E+02  0.76690550211E+02  0.00000000000E+00 0. -1.
          1   -1    0    0  502    0  0.00000000000E+00 -0.00000000000E+00 -0.10356001432E+04  0.10356001432E+04  0.00000000000E+00 0.  1.
          6    2    1    2  502    0 -0.13235756435E+03  0.60952238251E+02 -0.14246463343E+03  0.26501611119E+03  0.16942156658E+03 0.  0.
         24    2    3    3    0    0 -0.13748721415E+03  0.67303184251E+02 -0.16594104762E+03  0.23972026479E+03  0.80603482557E+02 0.  0.
         -6    2    1    2    0  501  0.13235756435E+03 -0.60952238251E+02 -0.81644495959E+03  0.84727458226E+03  0.17337285113E+03 0.  0.
        -24    2    5    5    0    0  0.82724191271E+02 -0.99098827568E+02 -0.57009406416E+03  0.59305127947E+03  0.10019335629E+03 0.  0.
          5    1    3    3  502    0  0.51296497958E+01 -0.63509459996E+01  0.23476414187E+02  0.25295846402E+02  0.47000000000E+01 0. -1.
        -11    1    4    4    0    0 -0.64622759699E+02  0.73211827208E+02 -0.75540886682E+02  0.12346051302E+03  0.00000000000E+00 0.  1.
         12    1    4    4    0    0 -0.72864454447E+02 -0.59086429572E+01 -0.90400160937E+02  0.11625975177E+03  0.00000000000E+00 0. -1.
         -5    1    5    5    0  501  0.49633373079E+02  0.38146589317E+02 -0.24635089544E+03  0.25422330279E+03  0.47000000000E+01 0.  1.
         11    1    6    6    0    0  0.63972834727E+02 -0.44759416542E+02 -0.15058792814E+03  0.16962503663E+03  0.00000000000E+00 0. -1.
        -12    1    6    6    0    0  0.18751356544E+02 -0.54339411025E+02 -0.41950613602E+03  0.42342624284E+03  0.00000000000E+00 0.  1.
</event>
<event>
12    1  0.1348628E-002  0.1948714E+03  0.7818608E-02  0.1154140E+00
         -1   -1    0    0    0  501 -0.00000000000E+00  0.00000000000E+00  0.18359027058E+03  0.18359027058E+03  0.00000000000E+00 0. -1.
          1   -1    0    0  502    0  0.00000000000E+00 -0.00000000000E+00 -0.20797086042E+03  0.20797086042E+03  0.00000000000E+00 0.  1.
          6    2    1    2  502    0 -0.42729569544E+02  0.89786315119E+02  0.16952186549E+01  0.19793387771E+03  0.17113605022E+03 0.  0.
         24    2    3    3    0    0 -0.42348605791E+02  0.85258197204E+02 -0.58411339315E+02  0.13747283822E+03  0.80153178888E+02 0.  0.
         -6    2    1    2    0  501  0.42729569544E+02 -0.89786315119E+02 -0.26075808492E+02  0.19362725329E+03  0.16408585232E+03 0.  0.
        -24    2    5    5    0    0 -0.12773264151E+02 -0.11325403695E+03 -0.20677046004E+02  0.13294335796E+03  0.65243873524E+02 0.  0.
          5    1    3    3  502    0 -0.38096375324E+00  0.45281179150E+01  0.60106557970E+02  0.60461039490E+02  0.47000000000E+01 0. -1.
        -11    1    4    4    0    0 -0.36158866597E+02  0.12912635666E+02 -0.51918218974E+02  0.64573223978E+02  0.00000000000E+00 0.  1.
         12    1    4    4    0    0 -0.61897391938E+01  0.72345561537E+02 -0.64931203409E+01  0.72899614246E+02  0.00000000000E+00 0. -1.
         -5    1    5    5    0  501  0.55502833695E+02  0.23467721828E+02 -0.53987624874E+01  0.60683895330E+02  0.47000000000E+01 0.  1.
         11    1    6    6    0    0 -0.37669831626E+02 -0.73220826924E+02 -0.23895760930E+01  0.82377277110E+02  0.00000000000E+00 0. -1.
        -12    1    6    6    0    0  0.24896567475E+02 -0.40033210023E+02 -0.18287469911E+02  0.50566080850E+02  0.00000000000E+00 0.  1.
</event>
<event>
12    1  0.1348628E-002  0.1834628E+03  0.7818608E-02  0.1164493E+00
          2   -1    0    0  502    0  0.00000000000E+00  0.00000000000E+00  0.18782314497E+04  0.18782314497E+04  0.00000000000E+00 0. -1.
         -2   -1    0    0    0  501 -0.00000000000E+00 -0.00000000000E+00 -0.20524977793E+02  0.20524977793E+02  0.00000000000E+00 0.  1.
          6    2    1    2  502    0 -0.58925986895E+02 -0.21438764663E+02  0.59209478123E+03  0.61996294771E+03  0.17275975808E+03 0.  0.
         24    2    3    3    0    0  0.19521882578E+00 -0.59764928347E+02  0.22264358841E+03  0.24382402967E+03  0.79423580968E+02 0.  0.
         -6    2    1    2    0  501  0.58925986895E+02  0.21438764663E+02  0.12656116907E+04  0.12787934798E+04  0.17206952024E+03 0.  0.
        -24    2    5    5    0    0  0.60964370705E+02  0.19390545849E+02  0.12684449260E+04  0.12725912680E+04  0.80270525481E+02 0.  0.
          5    1    3    3  502    0 -0.59121205721E+02  0.38326163683E+02  0.36945119282E+03  0.37613891804E+03  0.47000000000E+01 0. -1.
        -11    1    4    4    0    0  0.19191233640E+02  0.11945098159E+02  0.31349429862E+02  0.38649392898E+02  0.00000000000E+00 0.  1.
         12    1    4    4    0    0 -0.18996014814E+02 -0.71710026505E+02  0.19129415855E+03  0.20517463677E+03  0.00000000000E+00 0. -1.
         -5    1    5    5    0  501 -0.20383838092E+01  0.20482188138E+01 -0.28332353275E+01  0.62022118058E+01  0.47000000000E+01 0.  1.
         11    1    6    6    0    0  0.19364863021E+02  0.28154487155E+02  0.10172878055E+04  0.10178615585E+04  0.00000000000E+00 0. -1.
        -12    1    6    6    0    0  0.41599507683E+02 -0.87639413056E+01  0.25115712051E+03  0.25472970947E+03  0.00000000000E+00 0.  1.
</event>
<event>
12    1  0.1348628E-002  0.1970670E+03  0.7818608E-02  0.1152237E+00
         -1   -1    0    0    0  501 -0.00000000000E+00  0.00000000000E+00  0.43894837792E+02  0.43894837792E+02  0.00000000000E+00 0.  1.
          1   -1    0    0  502    0  0.00000000000E+00 -0.00000000000E+00 -0.17536491585E+04  0.17536491585E+04  0.00000000000E+00 0. -1.
          6    2    1    2  502    0  0.80181537877E+01  0.95657853151E+02 -0.22363570411E+03  0.29850052194E+03  0.17284362235E+03 0.  0.
         24    2    3    3    0    0 -0.45172577628E+02  0.82823856500E+02 -0.90029522270E+02  0.15404752888E+03  0.82005934539E+02 0.  0.
         -6    2    1    2    0  501 -0.80181537877E+01 -0.95657853151E+02 -0.14861186166E+04  0.14990434743E+04  0.17137117530E+03 0.  0.
        -24    2    5    5    0    0  0.47424898236E+02 -0.22885679951E+02 -0.52796309825E+03  0.53651876892E+03  0.79589452654E+02 0.  0.
          5    1    3    3  502    0  0.53190731416E+02  0.12833996652E+02 -0.13360618184E+03  0.14445299306E+03  0.47000000000E+01 0. -1.
        -13    1    4    4    0    0  0.15887707987E+02 -0.21345762214E+01 -0.28424032981E+02  0.32632825982E+02  0.00000000000E+00 0.  1.
         14    1    4    4    0    0 -0.61060285615E+02  0.84958432721E+02 -0.61605489289E+02  0.12141470290E+03  0.00000000000E+00 0. -1.
         -5    1    5    5    0  501 -0.55443052024E+02 -0.72772173200E+02 -0.95815551833E+03  0.96252470541E+03  0.47000000000E+01 0.  1.
         13    1    6    6    0    0  0.62248032723E+01  0.21516743465E+02 -0.29364726578E+03  0.29450031431E+03  0.00000000000E+00 0. -1.
        -14    1    6    6    0    0  0.41200094964E+02 -0.44402423416E+02 -0.23431583247E+03  0.24201845462E+03  0.00000000000E+00 0.  1.
</event>
<event>
12    1  0.1348628E-002  0.2048135E+03  0.7818608E-02  0.1145740E+00
         -1   -1    0    0    0  501 -0.00000000000E+00  0.00000000000E+00  0.15445722638E+03  0.15445722638E+03  0.00000000000E+00 0. -1.
          1   -1    0    0  502    0  0.00000000000E+00 -0.00000000000E+00 -0.99119810889E+03  0.99119810889E+03  0.00000000000E+00 0.  1.
          6    2    1    2  502    0  0.10830630403E+03  0.78197873383E+01  0.71732924549E+02  0.21355114361E+03  0.16931353728E+03 0.  0.
         24    2    3    3    0    0  0.38095299876E+01  0.40228960869E+02  0.26266697100E+02  0.94979653981E+02  0.81843225025E+02 0.  0.
         -6    2    1    2    0  501 -0.10830630403E+03 -0.78197873383E+01 -0.90847380706E+03  0.93210419166E+03  0.17805100794E+03 0.  0.
        -24    2    5    5    0    0 -0.14126157373E+03 -0.12780611753E+02 -0.59314769931E+03  0.61498701488E+03  0.79162232305E+02 0.  0.
          5    1    3    3  502    0  0.10449677404E+03 -0.32409173531E+02  0.45466227449E+02  0.11857148962E+03  0.47000000000E+01 0. -1.
        -13    1    4    4    0    0 -0.76878896112E+01 -0.10788882703E+02 -0.20774092471E+02  0.24638720638E+02  0.00000000000E+00 0.  1.
         14    1    4    4    0    0  0.11497419599E+02  0.51017843572E+02  0.47040789571E+02  0.70340933344E+02  0.00000000000E+00 0. -1.
         -5    1    5    5    0  501  0.32955269706E+02  0.49608244146E+01 -0.31532610775E+03  0.31711717678E+03  0.47000000000E+01 0.  1.
         13    1    6    6    0    0 -0.24000550958E+02 -0.30046269110E+02 -0.86546566729E+02  0.94705400830E+02  0.00000000000E+00 0. -1.
        -14    1    6    6    0    0 -0.11726102277E+03  0.17265657357E+02 -0.50660113258E+03  0.52028161405E+03  0.00000000000E+00 0.  1.
</event>
<event>
12    1  0.1348628E-002  0.2096605E+03  0.7818608E-02  0.1141835E+00
         -2   -1    0    0    0  501 -0.00000000000E+00  0.00000000000E+00  0.20548049080E+02  0.20548049080E+02  0.00000000000E+00 0. -1.
          2   -1    0    0  502    0  0.00000000000E+00 -0.00000000000E+00 -0.21714827812E+04  0.21714827812E+04  0.00000000000E+00 0.  1.
          6    2    1    2  502    0 -0.38944535819E+02  0.10465415884E+03 -0.11731878464E+04  0.11907032618E+04  0.17010398269E+03 0.  0.
         24    2    3    3    0    0 -0.43875215027E+02  0.13798829795E+03 -0.10449882910E+04  0.10580658145E+04  0.80851311755E+02 0.  0.
         -6    2    1    2    0  501  0.38944535819E+02 -0.10465415884E+03 -0.97774688571E+03  0.10013275685E+04  0.18492905936E+03 0.  0.
        -24    2    5    5    0    0  0.54586061605E+02 -0.75275512081E+02 -0.30876573890E+03  0.33150249651E+03  0.76886818338E+02 0.  0.
          5    1    3    3  502    0  0.49306792077E+01 -0.33334139101E+02 -0.12819955535E+03  0.13263744727E+03  0.47000000000E+01 0. -1.
        -11    1    4    4    0    0  0.14708786636E+02  0.33712877850E+02 -0.12389804111E+03  0.12924252832E+03  0.00000000000E+00 0.  1.
         12    1    4    4    0    0 -0.58584001662E+02  0.10427542010E+03 -0.92109024992E+03  0.92882328620E+03  0.00000000000E+00 0. -1.
         -5    1    5    5    0  501 -0.15641525786E+02 -0.29378646763E+02 -0.66898114680E+03  0.66982507194E+03  0.47000000000E+01 0.  1.
         13    1    6    6    0    0  0.32004719339E+02  0.16423188957E+01 -0.41260235150E+02  0.52243719967E+02  0.00000000000E+00 0. -1.
        -14    1    6    6    0    0  0.22581342266E+02 -0.76917830977E+02 -0.26750550375E+03  0.27925877655E+03  0.00000000000E+00 0.  1.
</event>
<event>
12    1  0.1348628E-002  0.1846815E+03  0.7818608E-02  0.1163348E+00
         -2   -1    0    0    0  501 -0.00000000000E+00  0.00000000000E+00  0.33522147134E+02  0.33522147134E+02  0.00000000000E+00 0. -1.
          2   -1    0    0  502    0  0.00000000000E+00 -0.00000000000E+00 -0.10232511520E+04  0.10232511520E+04  0.00000000000E+00 0.  1.
          6    2    1    2  502    0  0.62111704609E+02  0.25475806615E+02 -0.45548259619E+03  0.49155358371E+03  0.17220235091E+03 0.  0.
         24    2    3    3    0    0 -0.20002621211E+02 -0.18160849475E+02 -0.14831796921E+03  0.17058766912E+03  0.79824880572E+02 0.  0.
         -6    2    1    2    0  501 -0.62111704609E+02 -0.25475806615E+02 -0.53424640866E+03  0.56521971540E+03  0.17189305089E+03 0.  0.
        -24    2    5    5    0    0 -0.25293508717E+02  0.39609873371E+01 -0.49973244975E+03  0.50660736392E+03  0.79139426581E+02 0.  0.
          5    1    3    3  502    0  0.82114325820E+02  0.43636656090E+02 -0.30716462698E+03  0.32096591459E+03  0.47000000000E+01 0. -1.
        -13    1    4    4    0    0 -0.42827736008E+02  0.93277308089E+01 -0.52900381115E+02  0.68699867946E+02  0.00000000000E+00 0.  1.
         14    1    4    4    0    0  0.22825114797E+02 -0.27488580284E+02 -0.95417588092E+02  0.10188780118E+03  0.00000000000E+00 0. -1.
         -5    1    5    5    0  501 -0.36818195892E+02 -0.29436793952E+02 -0.34513958907E+02  0.58612351483E+02  0.47000000000E+01 0.  1.
         13    1    6    6    0    0 -0.42191993414E+02  0.30228847924E+02 -0.31956603144E+03  0.32375360385E+03  0.00000000000E+00 0. -1.
        -14    1    6    6    0    0  0.16898484697E+02 -0.26267860587E+02 -0.18016641831E+03  0.18285376007E+03  0.00000000000E+00 0.  1.
</event>
<event>
12    1  0.1348628E-002  0.1907078E+03  0.7818608E-02  0.1157825E+00
          2   -1    0    0  502    0  0.00000000000E+00  0.00000000000E+00  0.24957176986E+03  0.24957176986E+03  0.00000000000E+00 0.  1.
         -2   -1    0    0    0  501 -0.00000000000E+00 -0.00000000000E+00 -0.14967426600E+03  0.14967426600E+03  0.00000000000E+00 0. -1.
          6    2    1    2  502    0  0.44118385290E+02 -0.70282088816E+02  0.82397774599E+02  0.20786640953E+03  0.17185181705E+03 0.  0.
         24    2    3    3    0    0 -0.38213035282E+01  0.27353031172E+02  0.60599911159E+02  0.96834579546E+02  0.70297908137E+02 0.  0.
         -6    2    1    2    0  501 -0.44118385290E+02  0.70282088816E+02  0.17499729260E+02  0.19137962633E+03  0.17156315723E+03 0.  0.
        -24    2    5    5    0    0  0.21032496008E+02  0.21516320030E+02  0.52092783771E+02  0.10282734256E+03  0.83393562951E+02 0.  0.
          5    1    3    3  502    0  0.47939688818E+02 -0.97635119989E+02  0.21797863440E+02  0.11103182998E+03  0.47000000000E+01 0. -1.
        -11    1    4    4    0    0  0.30398936503E+02  0.42258855917E+01  0.40736206115E+02  0.51003842387E+02  0.00000000000E+00 0.  1.
         12    1    4    4    0    0 -0.34220240031E+02  0.23127145581E+02  0.19863705044E+02  0.45830737160E+02  0.00000000000E+00 0. -1.
         -5    1    5    5    0  501 -0.65150881298E+02  0.48765768786E+02 -0.34593054511E+02  0.88552283763E+02  0.47000000000E+01 0.  1.
         13    1    6    6    0    0 -0.56843514778E+01 -0.26769883636E+02  0.63560547999E+00  0.27374121282E+02  0.00000000000E+00 0. -1.
        -14    1    6    6    0    0  0.26716847486E+02  0.48286203666E+02  0.51457178291E+02  0.75453221282E+02  0.00000000000E+00 0.  1.
</event>
<event>
12    1  0.1348628E-002  0.2800742E+03  0.7818608E-02  0.1095648E+00
         -1   -1    0    0    0  501 -0.00000000000E+00  0.00000000000E+00  0.11584291119E+03  0.11584291119E+03  0.00000000000E+00 0.  1.
          1   -1    0    0  502    0  0.00000000000E+00 -0.00000000000E+00 -0.72945000751E+03  0.72945000751E+03  0.00000000000E+00 0. -1.
          6    2    1    2  502    0  0.18136088134E+03  0.12584020276E+03 -0.19437464898E+03  0.34152145491E+03  0.17357382894E+03 0.  0.
         24    2    3    3    0    0  0.14224650447E+03  0.46582274047E+02 -0.58563516093E+02  0.17941498510E+03  0.79724997155E+02 0.  0.
         -6    2    1    2    0  501 -0.18136088134E+03 -0.12584020276E+03 -0.41923244735E+03  0.50377146379E+03  0.17117919532E+03 0.  0.
        -24    2    5    5    0    0 -0.13129465588E+03 -0.15236256992E+03 -0.31942350846E+03  0.38890642484E+03  0.93617253492E+02 0.  0.
          5    1    3    3  502    0  0.39114376871E+02  0.79257928713E+02 -0.13581113288E+03  0.16210646982E+03  0.47000000000E+01 0. -1.
        -13    1    4    4    0    0  0.10124395794E+03  0.47140826284E+02 -0.47810367982E+01  0.11178307043E+03  0.00000000000E+00 0.  1.
         14    1    4    4    0    0  0.41002546530E+02 -0.55855223661E+00 -0.53782479295E+02  0.67631914668E+02  0.00000000000E+00 0. -1.
         -5    1    5    5    0  501 -0.50066225454E+02  0.26522367155E+02 -0.99808938885E+02  0.11486503895E+03  0.47000000000E+01 0.  1.
         13    1    6    6    0    0 -0.10531661105E+03 -0.76568197649E+02 -0.25414041341E+03  0.28555494599E+03  0.00000000000E+00 0. -1.
        -14    1    6    6    0    0 -0.25978044836E+02 -0.75794372266E+02 -0.65283095055E+02  0.10335147885E+03  0.00000000000E+00 0.  1.
</event>
<event>
12    1  0.1348628E-002  0.1760932E+03  0.7818608E-02  0.1171639E+00
          2   -1    0    0  502    0  0.00000000000E+00  0.00000000000E+00  0.90882003809E+02  0.90882003809E+02  0.00000000000E+00 0. -1.
         -2   -1    0    0    0  501 -0.00000000000E+00 -0.00000000000E+00 -0.47523378543E+03  0.47523378543E+03  0.00000000000E+00 0.  1.
          6    2    1    2  502    0  0.24170317966E+02  0.25071601960E+02 -0.34174423322E+03  0.38400903313E+03  0.17164214836E+03 0.  0.
         24    2    3    3    0    0  0.15168266718E+02  0.56212203065E+02 -0.11580280618E+03  0.15570574271E+03  0.86279199726E+02 0.  0.
         -6    2    1    2    0  501 -0.24170317966E+02 -0.25071601960E+02 -0.42607548401E+02  0.18210675611E+03  0.17359342713E+03 0.  0.
        -24    2    5    5    0    0 -0.10044997103E+02 -0.82523244466E+02 -0.22742675560E+02  0.11952146159E+03  0.82807986608E+02 0.  0.
          5    1    3    3  502    0  0.90020512479E+01 -0.31140601105E+02 -0.22594142704E+03  0.22830329042E+03  0.47000000000E+01 0. -1.
        -11    1    4    4    0    0  0.10672446442E+02 -0.20435920462E+02 -0.10372692707E+02  0.25280836857E+02  0.00000000000E+00 0.  1.
         12    1    4    4    0    0  0.44958202764E+01  0.76648123527E+02 -0.10543011347E+03  0.13042490585E+03  0.00000000000E+00 0. -1.
         -5    1    5    5    0  501 -0.14125320863E+02  0.57451642506E+02 -0.19864872841E+02  0.62585294512E+02  0.47000000000E+01 0.  1.
         11    1    6    6    0    0 -0.16750830276E+02 -0.46322840821E+02  0.28129788997E+02  0.56724605999E+02  0.00000000000E+00 0. -1.
        -12    1    6    6    0    0  0.67058331728E+01 -0.36200403645E+02 -0.50872464558E+02  0.62796855596E+02  0.00000000000E+00 0.  1.
</event>
<event>
12    1  0.1348628E-002  0.2559909E+03  0.7818608E-02  0.1109576E+00
          1   -1    0    0  502    0  0.00000000000E+00  0.00000000000E+00  0.80976277515E+02  0.80976277515E+02  0.00000000000E+00 0.  1.
         -1   -1    0    0    0  501 -0.00000000000E+00 -0.00000000000E+00 -0.12274208284E+04  0.12274208284E+04  0.00000000000E+00 0. -1.
          6    2    1    2  502    0 -0.18687764248E+03 -0.31754887996E+02 -0.95538451496E+03  0.98914251890E+03  0.17237089399E+03 0.  0.
         24    2    3    3    0    0 -0.32665896616E+02 -0.83425013873E+01 -0.48033064316E+03  0.48911484615E+03  0.85901966378E+02 0.  0.
         -6    2    1    2    0  501  0.18687764248E+03  0.31754887996E+02 -0.19106003597E+03  0.31925458706E+03  0.17172049337E+03 0.  0.
        -24    2    5    5    0    0  0.10296080889E+03  0.82681301073E+02 -0.15348179290E+03  0.21404171303E+03  0.69426712817E+02 0.  0.
          5    1    3    3  502    0 -0.15421174586E+03 -0.23412386609E+02 -0.47505387179E+03  0.50002767275E+03  0.47000000000E+01 0. -1.
        -11    1    4    4    0    0  0.16405659903E+02 -0.29506045096E+02 -0.11358321459E+03  0.11849429949E+03  0.00000000000E+00 0.  1.
         12    1    4    4    0    0 -0.49071556518E+02  0.21163543709E+02 -0.36674742857E+03  0.37062054666E+03  0.00000000000E+00 0. -1.
         -5    1    5    5    0  501  0.83916833589E+02 -0.50926413077E+02 -0.37578243066E+02  0.10521287402E+03  0.47000000000E+01 0.  1.
         11    1    6    6    0    0  0.65149012756E+02  0.81679670159E+02 -0.80696659214E+02  0.13201482185E+03  0.00000000000E+00 0. -1.
        -12    1    6    6    0    0  0.37811796133E+02  0.10016309136E+01 -0.72785133685E+02  0.82026891181E+02  0.00000000000E+00 0.  1.
</event>
<event>
12    1  0.1348628E-002  0.2044707E+03  0.7818608E-02  0.1146021E+00
          2   -1    0    0  502    0  0.00000000000E+00  0.00000000000E+00  0.10320699658E+04  0.10320699658E+04  0.00000000000E+00 0. -1.
         -2   -1    0    0    0  501 -0.00000000000E+00 -0.00000000000E+00 -0.51221538893E+02  0.51221538893E+02  0.00000000000E+00 0.  1.
          6    2    1    2  502    0  0.76389737705E+02 -0.78116574090E+02  0.24345577817E+03  0.31817812859E+03  0.17328881792E+03 0.  0.
         24    2    3    3    0    0  0.80227593112E+02 -0.66733299342E+01  0.21233501061E+03  0.24001510381E+03  0.77718037149E+02 0.  0.
         -6    2    1    2    0  501 -0.76389737705E+02  0.78116574090E+02  0.73739264877E+03  0.76511337613E+03  0.17237450131E+03 0.  0.
        -24    2    5    5    0    0 -0.68271998073E+02  0.75157077020E+02  0.28689923631E+03  0.31451259829E+03  0.79355848825E+02 0.  0.
          5    1    3    3  502    0 -0.38378554070E+01 -0.71443244156E+02  0.31120767565E+02  0.78163024785E+02  0.47000000000E+01 0. -1.
        -13    1    4    4    0    0  0.52701705610E+02 -0.26153624380E+02  0.60153932566E+02  0.84142601847E+02  0.00000000000E+00 0.  1.
         14    1    4    4    0    0  0.27525887502E+02  0.19480294446E+02  0.15218107804E+03  0.15587250196E+03  0.00000000000E+00 0. -1.
         -5    1    5    5    0  501 -0.81177396316E+01  0.29594970697E+01  0.45049341246E+03  0.45060077784E+03  0.47000000000E+01 0.  1.
         13    1    6    6    0    0 -0.41630499915E+02 -0.59695884081E+01  0.73800526214E+02  0.84942640520E+02  0.00000000000E+00 0. -1.
        -14    1    6    6    0    0 -0.26641498158E+02  0.81126665429E+02  0.21309871009E+03  0.22956995777E+03  0.00000000000E+00 0.  1.
</event>
<event>
12    1  0.1348628E-002  0.1731123E+03  0.7818608E-02  0.1174641E+00
         -2   -1    0    0    0  501 -0.00000000000E+00  0.00000000000E+00  0.82729792362E+02  0.82729792362E+02  0.00000000000E+00 0. -1.
          2   -1    0    0  502    0  0.00000000000E+00 -0.00000000000E+00 -0.40816416043E+03  0.40816416043E+03  0.00000000000E+00 0.  1.
          6    2    1    2  502    0  0.79048870922E+01 -0.17185861454E+02 -0.24471135604E+03  0.29952014457E+03  0.17167069685E+03 0.  0.
         24    2    3    3    0    0  0.21663388661E+02 -0.48930624294E+02 -0.24595357616E+03  0.26458220754E+03  0.81529592896E+02 0.  0.
         -6    2    1    2    0  501 -0.79048870922E+01  0.17185861454E+02 -0.80723012034E+02  0.19137380822E+03  0.17248156055E+03 0.  0.
        -24    2    5    5    0    0 -0.57392802754E+02 -0.20970654634E+02 -0.16653455136E+02  0.10175254045E+03  0.79640063761E+02 0.  0.
          5    1    3    3  502    0 -0.13758501569E+02  0.31744762840E+02  0.12422201259E+01  0.34937937031E+02  0.47000000000E+01 0. -1.
        -13    1    4    4    0    0  0.45309271209E+00  0.16233951649E+02 -0.12086974344E+03  0.12195589924E+03  0.00000000000E+00 0.  1.
         14    1    4    4    0    0  0.21210295949E+02 -0.65164575942E+02 -0.12508383272E+03  0.14262630830E+03  0.00000000000E+00 0. -1.
         -5    1    5    5    0  501  0.49487915662E+02  0.38156516088E+02 -0.64069556898E+02  0.89621267775E+02  0.47000000000E+01 0.  1.
         11    1    6    6    0    0 -0.54342459071E+02  0.16567127936E+02  0.70578111720E+01  0.57248452245E+02  0.00000000000E+00 0. -1.
        -12    1    6    6    0    0 -0.30503436834E+01 -0.37537782570E+02 -0.23711266308E+02  0.44504088203E+02  0.00000000000E+00 0.  1.
</event>
<event>
12    1  0.1348628E-002  0.2266113E+03  0.7818608E-02  0.1129048E+00
         -1   -1    0    0    0  501 -0.00000000000E+00  0.00000000000E+00  0.13640854731E+03  0.13640854731E+03  0.00000000000E+00 0.  1.
          1   -1    0    0  502    0  0.00000000000E+00 -0.00000000000E+00 -0.40923447722E+03  0.40923447722E+03  0.00000000000E+00 0. -1.
          6    2    1    2  502    0  0.11251655450E+03 -0.90610853481E+02 -0.57986988461E+02  0.23170297386E+03  0.17162014875E+03 0.  0.
         24    2    3    3    0    0  0.30802178500E+02 -0.10277883140E+03 -0.48995704009E+01  0.13338887065E+03  0.79096919280E+02 0.  0.
         -6    2    1    2    0  501 -0.11251655450E+03  0.90610853481E+02 -0.21483894145E+03  0.31394005068E+03  0.17757331684E+03 0.  0.
        -24    2    5    5    0    0 -0.15300193399E+03  0.72706766349E+02 -0.17065804720E+03  0.25122112447E+03  0.72746261956E+02 0.  0.
          5    1    3    3  502    0  0.81714376001E+02  0.12167977921E+02 -0.53087418060E+02  0.98314103201E+02  0.47000000000E+01 0. -1.
        -13    1    4    4    0    0 -0.20305664318E+02 -0.10655266901E+02  0.13252940729E+02  0.26485753795E+02  0.00000000000E+00 0.  1.
         14    1    4    4    0    0  0.51107842818E+02 -0.92123564501E+02 -0.18152511130E+02  0.10690311686E+03  0.00000000000E+00 0. -1.
         -5    1    5    5    0  501  0.40485379487E+02  0.17904087132E+02 -0.44180894244E+02  0.62718926206E+02  0.47000000000E+01 0.  1.
         13    1    6    6    0    0 -0.82287902923E+02  0.82751378140E+01 -0.47845202230E+02  0.95545487856E+02  0.00000000000E+00 0. -1.
        -14    1    6    6    0    0 -0.70714031065E+02  0.64431628535E+02 -0.12281284497E+03  0.15567563662E+03  0.00000000000E+00 0.  1.
</event>
<event>
12    1  0.1348628E-002  0.1898530E+03  0.7818608E-02  0.1158594E+00
          3   -1    0    0  502    0  0.00000000000E+00  0.00000000000E+00  0.63337503300E+02  0.63337503300E+02  0.00000000000E+00 0. -1.
         -3   -1    0    0    0  501 -0.00000000000E+00 -0.00000000000E+00 -0.75889818399E+03  0.75889818399E+03  0.00000000000E+00 0.  1.
          6    2    1    2  502    0  0.33578058770E+02  0.71180042640E+02 -0.14134480217E+03  0.23620697558E+03  0.17210838943E+03 0.  0.
         24    2    3    3    0    0  0.49304086246E+02  0.10489511042E+03 -0.71486392327E+02  0.15692077778E+03  0.77974028380E+02 0.  0.
         -6    2    1    2    0  501 -0.33578058770E+02 -0.71180042640E+02 -0.55421587852E+03  0.58602871171E+03  0.17343680821E+03 0.  0.
        -24    2    5    5    0    0  0.42665072457E+02 -0.45533114552E+02 -0.21888363540E+03  0.24115107651E+03  0.79688286033E+02 0.  0.
          5    1    3    3  502    0 -0.15726027476E+02 -0.33715067778E+02 -0.69858409843E+02  0.79286197798E+02  0.47000000000E+01 0. -1.
        -11    1    4    4    0    0  0.25317780946E+02  0.29125119996E+01 -0.40175167699E+02  0.47576431748E+02  0.00000000000E+00 0.  1.
         12    1    4    4    0    0  0.23986305300E+02  0.10198259842E+03 -0.31311224628E+02  0.10934434603E+03  0.00000000000E+00 0. -1.
         -5    1    5    5    0  501 -0.76243131227E+02 -0.25646928088E+02 -0.33533224312E+03  0.34487763519E+03  0.47000000000E+01 0.  1.
         11    1    6    6    0    0 -0.17983413189E+02 -0.57517300289E+01 -0.13156807722E+02  0.23012760323E+02  0.00000000000E+00 0. -1.
        -12    1    6    6    0    0  0.60648485646E+02 -0.39781384523E+02 -0.20572682767E+03  0.21813831619E+03  0.00000000000E+00 0.  1.
</event>
<event>
12    1  0.1348628E-002  0.1970368E+03  0.7818608E-02  0.1152263E+00
          1   -1    0    0  502    0  0.00000000000E+00  0.00000000000E+00  0.89192435693E+03  0.89192435693E+03  0.00000000000E+00 0. -1.
         -1   -1    0    0    0  501 -0.00000000000E+00 -0.00000000000E+00 -0.79642985871E+02  0.79642985871E+02  0.00000000000E+00 0.  1.
          6    2    1    2  502    0  0.60278128991E+02 -0.74870496286E+02  0.73355505541E+03  0.75962358684E+03  0.17229605426E+03 0.  0.
         24    2    3    3    0    0  0.24929690463E+02 -0.11029115507E+03  0.62398459330E+03  0.63907520924E+03  0.79213143061E+02 0.  0.
         -6    2    1    2    0  501 -0.60278128991E+02  0.74870496286E+02  0.78726315642E+02  0.21194375596E+03  0.17170695637E+03 0.  0.
        -24    2    5    5    0    0 -0.32908685133E+02  0.55976900540E+02  0.12235977787E+03  0.15687994349E+03  0.73641065162E+02 0.  0.
          5    1    3    3  502    0  0.35348438528E+02  0.35420658781E+02  0.10957046211E+03  0.12054837760E+03  0.47000000000E+01 0. -1.
        -13    1    4    4    0    0  0.26169356981E+02 -0.32991665514E+02  0.88145499953E+02  0.97687841619E+02  0.00000000000E+00 0.  1.
         14    1    4    4    0    0 -0.12396665174E+01 -0.77299489553E+02  0.53583909335E+03  0.54138736762E+03  0.00000000000E+00 0. -1.
         -5    1    5    5    0  501 -0.27369443858E+02  0.18893595746E+02 -0.43633462227E+02  0.55063812466E+02  0.47000000000E+01 0.  1.
         11    1    6    6    0    0 -0.44214365293E+02  0.69680092813E+01  0.38240430122E+02  0.58870992411E+02  0.00000000000E+00 0. -1.
        -12    1    6    6    0    0  0.11305680159E+02  0.49008891259E+02  0.84119347748E+02  0.98008951080E+02  0.00000000000E+00 0.  1.
</event>
<event>
12    1  0.1348628E-002  0.2338914E+03  0.7818608E-02  0.1123930E+00
          2   -1    0    0  502    0  0.00000000000E+00  0.00000000000E+00  0.29496721624E+03  0.29496721624E+03  0.00000000000E+00 0. -1.
         -2   -1    0    0    0  501 -0.00000000000E+00 -0.00000000000E+00 -0.21795132935E+03  0.21795132935E+03  0.00000000000E+00 0.  1.
          6    2    1    2  502    0  0.13460301814E+03 -0.86077965017E+02 -0.60732785189E+02  0.23998687617E+03  0.16845723785E+03 0.  0.
         24    2    3    3    0    0  0.15240474970E+03 -0.39538224885E+02 -0.68479945545E+02  0.18934146619E+03  0.79813588572E+02 0.  0.
         -6    2    1    2    0  501 -0.13460301814E+03  0.86077965017E+02  0.13774867208E+03  0.27293166942E+03  0.17317508758E+03 0.  0.
        -24    2    5    5    0    0 -0.75209335594E+02 -0.22729314053E+02  0.76941644667E+02  0.13477879002E+03  0.77924576844E+02 0.  0.
          5    1    3    3  502    0 -0.17801731561E+02 -0.46539740132E+02  0.77471603568E+01  0.50645409977E+02  0.47000000000E+01 0. -1.
        -11    1    4    4    0    0  0.65648949561E+02 -0.13238590570E+02 -0.72371275270E+02  0.98603480380E+02  0.00000000000E+00 0.  1.
         12    1    4    4    0    0  0.86755800139E+02 -0.26299634314E+02  0.38913297245E+01  0.90737985815E+02  0.00000000000E+00 0. -1.
         -5    1    5    5    0  501 -0.59393682545E+02  0.10880727907E+03  0.60807027417E+02  0.13815287941E+03  0.47000000000E+01 0.  1.
         11    1    6    6    0    0 -0.62340464090E+02 -0.28749261053E+02  0.91530832765E+02  0.11441480158E+03  0.00000000000E+00 0. -1.
        -12    1    6    6    0    0 -0.12868871504E+02  0.60199470005E+01 -0.14589188097E+02  0.20363988436E+02  0.00000000000E+00 0.  1.
</event>
<event>
12    1  0.1348628E-002  0.1769805E+03  0.7818608E-02  0.1170758E+00
          2   -1    0    0  502    0  0.00000000000E+00  0.00000000000E+00  0.19556461476E+04  0.19556461476E+04  0.00000000000E+00 0.  1.
         -2   -1    0    0    0  501 -0.00000000000E+00 -0.00000000000E+00 -0.17623849986E+02  0.17623849986E+02  0.00000000000E+00 0. -1.
          6    2    1    2  502    0  0.17994478772E+02  0.35799603484E+02  0.12702643250E+04  0.12826255885E+04  0.17306510952E+03 0.  0.
         24    2    3    3    0    0 -0.42018861078E+02  0.22338580671E+02  0.43152546060E+03  0.44162156195E+03  0.80936913430E+02 0.  0.
         -6    2    1    2    0  501 -0.17994478772E+02 -0.35799603484E+02  0.66775797262E+03  0.69064440906E+03  0.17170782417E+03 0.  0.
        -24    2    5    5    0    0 -0.55949797783E+02 -0.46852162608E+02  0.26568854193E+03  0.28660891259E+03  0.78922509152E+02 0.  0.
          5    1    3    3  502    0  0.60013339850E+02  0.13461022813E+02  0.83873886438E+03  0.84100402658E+03  0.47000000000E+01 0. -1.
        -13    1    4    4    0    0  0.39956163513E+01 -0.22868738634E+02  0.19780748222E+03  0.19916511787E+03  0.00000000000E+00 0.  1.
         14    1    4    4    0    0 -0.46014477429E+02  0.45207319305E+02  0.23371797839E+03  0.24245644407E+03  0.00000000000E+00 0. -1.
         -5    1    5    5    0  501  0.37955319011E+02  0.11052559124E+02  0.40206943070E+03  0.40403549647E+03  0.47000000000E+01 0.  1.
         11    1    6    6    0    0  0.20300041903E+02 -0.10207458639E+02  0.63093906553E+02  0.67060606598E+02  0.00000000000E+00 0. -1.
        -12    1    6    6    0    0 -0.76249839686E+02 -0.36644703969E+02  0.20259463537E+03  0.21954830599E+03  0.00000000000E+00 0.  1.
</event>
<event>
12    1  0.1348628E-002  0.3349194E+03  0.7818608E-02  0.1068981E+00
         -2   -1    0    0    0  501 -0.00000000000E+00  0.00000000000E+00  0.47813310344E+03  0.47813310344E+03  0.00000000000E+00 0.  1.
          2   -1    0    0  502    0  0.00000000000E+00 -0.00000000000E+00 -0.23977574212E+03  0.23977574212E+03  0.00000000000E+00 0. -1.
          6    2    1    2  502    0  0.29336869722E+02  0.28595209613E+03  0.66503030924E+02  0.34160379849E+03  0.17216634054E+03 0.  0.
         24    2    3    3    0    0  0.40163561443E+02  0.71076442493E+02  0.53386515152E+02  0.12600487279E+03  0.79762996562E+02 0.  0.
         -6    2    1    2    0  501 -0.29336869722E+02 -0.28595209613E+03  0.17185433039E+03  0.37630504706E+03  0.17158765796E+03 0.  0.
        -24    2    5    5    0    0  0.31393971282E+02 -0.34302264877E+02  0.19876372251E+02  0.76079694404E+02  0.56840328274E+02 0.  0.
          5    1    3    3  502    0 -0.10826691722E+02  0.21487565364E+03  0.13116515772E+02  0.21559892570E+03  0.47000000000E+01 0. -1.
        -13    1    4    4    0    0 -0.17922045307E+02 -0.29909404363E+01  0.17623556441E+02  0.25312747269E+02  0.00000000000E+00 0.  1.
         14    1    4    4    0    0  0.58085606750E+02  0.74067382929E+02  0.35762958711E+02  0.10069212552E+03  0.00000000000E+00 0. -1.
         -5    1    5    5    0  501 -0.60730841004E+02 -0.25164983125E+03  0.15197795814E+03  0.30022535266E+03  0.47000000000E+01 0.  1.
         11    1    6    6    0    0  0.21251812643E+02 -0.42789439229E+01  0.34840445818E+02  0.41034199962E+02  0.00000000000E+00 0. -1.
        -12    1    6    6    0    0  0.10142158639E+02 -0.30023320954E+02 -0.14964073568E+02  0.35045494442E+02  0.00000000000E+00 0.  1.
</event>
<event>
12    1  0.1348628E-002  0.2400835E+03  0.7818608E-02  0.1119737E+00
         -1   -1    0    0    0  501 -0.00000000000E+00  0.00000000000E+00  0.18839309590E+03  0.18839309590E+03  0.00000000000E+00 0.  1.
          1   -1    0    0  502    0  0.00000000000E+00 -0.00000000000E+00 -0.51681716040E+03  0.51681716040E+03  0.00000000000E+00 0. -1.
          6    2    1    2  502    0  0.14432265496E+03 -0.84985647044E+02  0.61514660273E+02  0.24662887589E+03  0.17026497013E+03 0.  0.
         24    2    3    3    0    0  0.51518587112E+02 -0.88323121370E+02 -0.68872158637E+01  0.13119646968E+03  0.81914231533E+02 0.  0.
         -6    2    1    2    0  501 -0.14432265496E+03  0.84985647044E+02 -0.38993872478E+03  0.45858138041E+03  0.17376157354E+03 0.  0.
        -24    2    5    5    0    0 -0.87973040625E+02 -0.11785949121E+02 -0.24303901306E+03  0.27380682544E+03  0.89577069150E+02 0.  0.
          5    1    3    3  502    0  0.92804067846E+02  0.33374743257E+01  0.68401876137E+02  0.11543240621E+03  0.47000000000E+01 0. -1.
        -13    1    4    4    0    0  0.63608184817E+02 -0.82716006156E+02 -0.26338280980E+02  0.10761804633E+03  0.00000000000E+00 0.  1.
         14    1    4    4    0    0 -0.12089597705E+02 -0.56071152132E+01  0.19451065116E+02  0.23578423353E+02  0.00000000000E+00 0. -1.
         -5    1    5    5    0  501 -0.56349614332E+02  0.96771596165E+02 -0.14689971172E+03  0.18477455497E+03  0.47000000000E+01 0.  1.
         11    1    6    6    0    0 -0.35345723895E+02  0.34334818970E+02 -0.58750913083E+02  0.76680308942E+02  0.00000000000E+00 0. -1.
        -12    1    6    6    0    0 -0.52627316730E+02 -0.46120768091E+02 -0.18428809997E+03  0.19712651650E+03  0.00000000000E+00 0.  1.
</event>
<event>
12    1  0.1348628E-002  0.1750821E+03  0.7818608E-02  0.1172649E+00
          2   -1    0    0  502    0  0.00000000000E+00  0.00000000000E+00  0.62347842543E+03  0.62347842543E+03  0.00000000000E+00 0. -1.
         -2   -1    0    0    0  501 -0.00000000000E+00 -0.00000000000E+00 -0.13726900852E+03  0.13726900852E+03  0.00000000000E+00 0.  1.
          6    2    1    2  502    0  0.16635142139E+01  0.33386714650E+02  0.54789127710E+03  0.57521818096E+03  0.17196995142E+03 0.  0.
         24    2    3    3    0    0  0.19421855241E+02  0.77930618418E+02  0.26097566994E+03  0.28428490052E+03  0.79115198366E+02 0.  0.
         -6    2    1    2    0  501 -0.16635142139E+01 -0.33386714650E+02 -0.61681860189E+02  0.18552925298E+03  0.17175276371E+03 0.  0.
        -24    2    5    5    0    0 -0.60454726823E+01  0.42592868844E+02 -0.30774389599E+01  0.89359263613E+02  0.78261785992E+02 0.  0.
          5    1    3    3  502    0 -0.17758341028E+02 -0.44543903768E+02  0.28691560716E+03  0.29093328045E+03  0.47000000000E+01 0. -1.
        -13    1    4    4    0    0  0.38639515513E+02  0.50312846463E+02  0.90495259551E+02  0.11051600192E+03  0.00000000000E+00 0.  1.
         14    1    4    4    0    0 -0.19217660272E+02  0.27617771955E+02  0.17048041039E+03  0.17376889860E+03  0.00000000000E+00 0. -1.
         -5    1    5    5    0  501  0.43819584685E+01 -0.75979583494E+02 -0.58604421229E+02  0.96169989371E+02  0.47000000000E+01 0.  1.
         13    1    6    6    0    0  0.82379712649E+01  0.45416730596E+01  0.33429086222E+02  0.34727435413E+02  0.00000000000E+00 0. -1.
        -14    1    6    6    0    0 -0.14283443947E+02  0.38051195784E+02 -0.36506525182E+02  0.54631828200E+02  0.00000000000E+00 0.  1.
</event>
<event>
12    1  0.1348628E-002  0.1842283E+03  0.7818608E-02  0.1163772E+00
         -3   -1    0    0    0  501 -0.00000000000E+00  0.00000000000E+00  0.24832444033E+03  0.24832444033E+03  0.00000000000E+00 0.  1.
          3   -1    0    0  502    0  0.00000000000E+00 -0.00000000000E+00 -0.13838200884E+03  0.13838200884E+03  0.00000000000E+00 0. -1.
          6    2    1    2  502    0  0.64400929282E+02 -0.15231817425E+02  0.76426023271E+02  0.19941553002E+03  0.17188987354E+03 0.  0.
         24    2    3    3    0    0  0.41145080674E+02 -0.87214023864E+00  0.11849292674E+03  0.14902952808E+03  0.80470791346E+02 0.  0.
         -6    2    1    2    0  501 -0.64400929282E+02  0.15231817425E+02  0.33516408218E+02  0.18729091916E+03  0.17197398299E+03 0.  0.
        -24    2    5    5    0    0 -0.95058581879E+02 -0.49838241295E+01 -0.30769836665E+02  0.11310618281E+03  0.52775498566E+02 0.  0.
          5    1    3    3  502    0  0.23255848608E+02 -0.14359677186E+02 -0.42066903471E+02  0.50386001935E+02  0.47000000000E+01 0. -1.
        -11    1    4    4    0    0 -0.21669625550E+02  0.13620240510E+02  0.28164650314E+02  0.38056946151E+02  0.00000000000E+00 0.  1.
         12    1    4    4    0    0  0.62814706224E+02 -0.14492380748E+02  0.90328276428E+02  0.11097258193E+03  0.00000000000E+00 0. -1.
         -5    1    5    5    0  501  0.30657652597E+02  0.20215641554E+02  0.64286244883E+02  0.74184736350E+02  0.47000000000E+01 0.  1.
         13    1    6    6    0    0 -0.70892579631E+02 -0.27103636246E+02 -0.24476175830E+02  0.79746148043E+02  0.00000000000E+00 0. -1.
        -14    1    6    6    0    0 -0.24166002248E+02  0.22119812116E+02 -0.62936608348E+01  0.33360034763E+02  0.00000000000E+00 0.  1.
</event>
<event>
12    1  0.1348628E-002  0.2061450E+03  0.7818608E-02  0.1144656E+00
          2   -1    0    0  502    0  0.00000000000E+00  0.00000000000E+00  0.35110140509E+03  0.35110140509E+03  0.00000000000E+00 0.  1.
         -2   -1    0    0    0  501 -0.00000000000E+00 -0.00000000000E+00 -0.12391497092E+03  0.12391497092E+03  0.00000000000E+00 0. -1.
          6    2    1    2  502    0 -0.11203664777E+03 -0.12724483471E+02  0.14947572951E+03  0.25415983891E+03  0.17187235693E+03 0.  0.
         24    2    3    3    0    0 -0.21728382160E+02  0.42925566866E+01  0.13595773875E+03  0.16115452418E+03  0.83640452565E+02 0.  0.
         -6    2    1    2    0  501  0.11203664777E+03  0.12724483471E+02  0.77710704663E+02  0.22085653710E+03  0.17327588823E+03 0.  0.
        -24    2    5    5    0    0  0.65344347908E+02  0.67724685293E+02  0.11419304082E+02  0.12276559533E+03  0.78003038980E+02 0.  0.
          5    1    3    3  502    0 -0.90308265607E+02 -0.17017040157E+02  0.13517990762E+02  0.93005314724E+02  0.47000000000E+01 0. -1.
        -13    1    4    4    0    0  0.25837530399E+02  0.54811432899E+00  0.94422970781E+02  0.97895739527E+02  0.00000000000E+00 0.  1.
         14    1    4    4    0    0 -0.47565912559E+02  0.37444423576E+01  0.41534767966E+02  0.63258784656E+02  0.00000000000E+00 0. -1.
         -5    1    5    5    0  501  0.46692299859E+02 -0.55000201823E+02  0.66291400580E+02  0.98090941771E+02  0.47000000000E+01 0.  1.
         13    1    6    6    0    0  0.82292507840E+02  0.52588494589E+02  0.75314057839E+00  0.97663574737E+02  0.00000000000E+00 0. -1.
        -14    1    6    6    0    0 -0.16948159932E+02  0.15136190704E+02  0.10666163504E+02  0.25102020596E+02  0.00000000000E+00 0.  1.
</event>
<event>
12    1  0.1348628E-002  0.1838714E+03  0.7818608E-02  0.1164108E+00
          1   -1    0    0  502    0  0.00000000000E+00  0.00000000000E+00  0.88716796464E+03  0.88716796464E+03  0.00000000000E+00 0. -1.
         -1   -1    0    0    0  501 -0.00000000000E+00 -0.00000000000E+00 -0.14627968121E+03  0.14627968121E+03  0.00000000000E+00 0.  1.
          6    2    1    2  502    0 -0.13937510380E+02  0.64716831370E+02 -0.73720398192E+02  0.19842141469E+03  0.17191229810E+03 0.  0.
         24    2    3    3    0    0 -0.30779639813E+02 -0.26421808388E+02 -0.20969400486E+02  0.91675610367E+02  0.79493418558E+02 0.  0.
         -6    2    1    2    0  501  0.13937510380E+02 -0.64716831370E+02  0.81460868162E+03  0.83502623115E+03  0.17116944846E+03 0.  0.
        -24    2    5    5    0    0 -0.62511244095E+01 -0.50352618468E+01  0.69711094655E+03  0.70161979030E+03  0.79007771254E+02 0.  0.
          5    1    3    3  502    0  0.16842129433E+02  0.91138639758E+02 -0.52750997706E+02  0.10674580432E+03  0.47000000000E+01 0. -1.
        -13    1    4    4    0    0 -0.11469614725E+02 -0.98372549971E+00 -0.48292478735E+02  0.49645576642E+02  0.00000000000E+00 0.  1.
         14    1    4    4    0    0 -0.19310025088E+02 -0.25438082888E+02  0.27323078249E+02  0.42030033725E+02  0.00000000000E+00 0. -1.
         -5    1    5    5    0  501  0.20188634790E+02 -0.59681569523E+02  0.11749773507E+03  0.13340644085E+03  0.47000000000E+01 0.  1.
         11    1    6    6    0    0 -0.14672360204E+01 -0.41920531298E+02  0.34027247108E+03  0.34284812717E+03  0.00000000000E+00 0. -1.
        -12    1    6    6    0    0 -0.47838883892E+01  0.36885269452E+02  0.35683847547E+03  0.35877166313E+03  0.00000000000E+00 0.  1.
</event>
<event>
12    1  0.1348628E-002  0.3250279E+03  0.7818608E-02  0.1073358E+00
         -1   -1    0    0    0  501 -0.00000000000E+00  0.00000000000E+00  0.18304043841E+03  0.18304043841E+03  0.00000000000E+00 0.  1.
          1   -1    0    0  502    0  0.00000000000E+00 -0.00000000000E+00 -0.11923190384E+04  0.11923190384E+04  0.00000000000E+00 0. -1.
          6    2    1    2  502    0  0.58826325280E+02  0.27187596005E+03 -0.11248972430E+02  0.32596762458E+03  0.16956202020E+03 0.  0.
         24    2    3    3    0    0  0.16234420720E+02  0.11479352101E+03 -0.63716050457E+02  0.15490083275E+03  0.80581784667E+02 0.  0.
         -6    2    1    2    0  501 -0.58826325280E+02 -0.27187596005E+03 -0.99802962755E+03  0.10493918522E+04  0.16668247606E+03 0.  0.
        -24    2    5    5    0    0 -0.64735874897E+02 -0.24400694501E+03 -0.98034818963E+03  0.10155343859E+04  0.80606410403E+02 0.  0.
          5    1    3    3  502    0  0.42591904560E+02  0.15708243904E+03  0.52467078028E+02  0.17106679183E+03  0.47000000000E+01 0. -1.
        -13    1    4    4    0    0  0.23405341127E+02  0.14313560042E+02  0.10920116928E+02  0.29528578497E+02  0.00000000000E+00 0.  1.
         14    1    4    4    0    0 -0.71709204067E+01  0.10047996096E+03 -0.74636167385E+02  0.12537225425E+03  0.00000000000E+00 0. -1.
         -5    1    5    5    0  501  0.59095496165E+01 -0.27869015038E+02 -0.17681437923E+02  0.33857466280E+02  0.47000000000E+01 0.  1.
         13    1    6    6    0    0 -0.17823772480E+02 -0.15105744965E+03 -0.44850136969E+03  0.47359214370E+03  0.00000000000E+00 0. -1.
        -14    1    6    6    0    0 -0.46912102417E+02 -0.92949495358E+02 -0.53184681994E+03  0.54194224224E+03  0.00000000000E+00 0.  1.
</event>
<event>
12    1  0.1348628E-002  0.1816295E+03  0.7818608E-02  0.1166235E+00
         -3   -1    0    0    0  501 -0.00000000000E+00  0.00000000000E+00  0.56642702045E+03  0.56642702045E+03  0.00000000000E+00 0. -1.
          3   -1    0    0  502    0  0.00000000000E+00 -0.00000000000E+00 -0.15956112796E+03  0.15956112796E+03  0.00000000000E+00 0.  1.
          6    2    1    2  502    0 -0.55690717601E+02  0.23047463522E+02 -0.85641296227E+02  0.20121075510E+03  0.17181005426E+03 0.  0.
         24    2    3    3    0    0 -0.86109530277E+02  0.46508602903E+02 -0.98968352526E+02  0.16027874250E+03  0.79477286987E+02 0.  0.
         -6    2    1    2    0  501  0.55690717601E+02 -0.23047463522E+02  0.49250718872E+03  0.52477739331E+03  0.17086643903E+03 0.  0.
        -24    2    5    5    0    0 -0.26437870427E+02 -0.17170568239E+02  0.34844360921E+03  0.35877724930E+03  0.79463050600E+02 0.  0.
          5    1    3    3  502    0  0.30418812676E+02 -0.23461139381E+02  0.13327056299E+02  0.40932012598E+02  0.47000000000E+01 0. -1.
        -13    1    4    4    0    0 -0.67521584090E+02 -0.74609031760E+01 -0.43374991598E+02  0.80599127107E+02  0.00000000000E+00 0.  1.
         14    1    4    4    0    0 -0.18587946187E+02  0.53969506079E+02 -0.55593360928E+02  0.79679615392E+02  0.00000000000E+00 0. -1.
         -5    1    5    5    0  501  0.82128588028E+02 -0.58768952826E+01  0.14406357951E+03  0.16600014401E+03  0.47000000000E+01 0.  1.
         11    1    6    6    0    0 -0.19846222990E+02 -0.44940274675E+02  0.28508279853E+03  0.28928481272E+03  0.00000000000E+00 0. -1.
        -12    1    6    6    0    0 -0.65916474373E+01  0.27769706436E+02  0.63360810682E+02  0.69492436580E+02  0.00000000000E+00 0.  1.
</event>
<event>
12    1  0.1348628E-002  0.2458423E+03  0.7818608E-02  0.1115961E+00
         -1   -1    0    0    0  501 -0.00000000000E+00  0.00000000000E+00  0.12204279459E+03  0.12204279459E+03  0.00000000000E+00 0. -1.
          1   -1    0    0  502    0  0.00000000000E+00 -0.00000000000E+00 -0.49727134560E+03  0.49727134560E+03  0.00000000000E+00 0.  1.
          6    2    1    2  502    0  0.14935881477E+03 -0.91108760538E+02 -0.16740870292E+03  0.29705925321E+03  0.17207458937E+03 0.  0.
         24    2    3    3    0    0  0.14044070236E+03 -0.73439100689E+02 -0.60090373957E+02  0.18782984628E+03  0.80946313815E+02 0.  0.
         -6    2    1    2    0  501 -0.14935881477E+03  0.91108760538E+02 -0.20781984809E+03  0.32225488698E+03  0.17335011142E+03 0.  0.
        -24    2    5    5    0    0 -0.48432664404E+02  0.72072346092E+02 -0.39259343938E+02  0.12481323367E+03  0.80603357009E+02 0.  0.
          5    1    3    3  502    0  0.89181124134E+01 -0.17669659849E+02 -0.10731832896E+03  0.10922940693E+03  0.47000000000E+01 0. -1.
        -13    1    4    4    0    0  0.33307409394E+02 -0.31883905948E+02 -0.56415691396E+02  0.72860807124E+02  0.00000000000E+00 0.  1.
         14    1    4    4    0    0  0.10713329296E+03 -0.41555194742E+02 -0.36746825614E+01  0.11496903915E+03  0.00000000000E+00 0. -1.
         -5    1    5    5    0  501 -0.10092615037E+03  0.19036414446E+02 -0.16856050415E+03  0.19744165331E+03  0.47000000000E+01 0.  1.
         13    1    6    6    0    0 -0.50402909258E+02  0.88543556639E+02 -0.34162713838E+02  0.10745932114E+03  0.00000000000E+00 0. -1.
        -14    1    6    6    0    0  0.19702448543E+01 -0.16471210548E+02 -0.50966301000E+01  0.17353912529E+02  0.00000000000E+00 0.  1.
</event>
<event>
12    1  0.1348628E-002  0.2615479E+03  0.7818608E-02  0.1106217E+00
          2   -1    0    0  502    0  0.00000000000E+00  0.00000000000E+00  0.47411177660E+03  0.47411177660E+03  0.00000000000E+00 0.  1.
         -2   -1    0    0    0  501 -0.00000000000E+00 -0.00000000000E+00 -0.22379347512E+03  0.22379347512E+03  0.00000000000E+00 0. -1.
          6    2    1    2  502    0 -0.90209061477E+02 -0.17384739950E+03  0.33332184294E+03  0.42402911958E+03  0.17417419494E+03 0.  0.
         24    2    3    3    0    0 -0.10502282579E+03 -0.18872825994E+03  0.25911430377E+03  0.34676504972E+03  0.80359363211E+02 0.  0.
         -6    2    1    2    0  501  0.90209061477E+02  0.17384739950E+03 -0.83003541464E+02  0.27387613214E+03  0.17250494130E+03 0.  0.
        -24    2    5    5    0    0  0.70580464204E+02  0.20054998341E+03 -0.69458105376E+02  0.23776687215E+03  0.80664486082E+02 0.  0.
          5    1    3    3  502    0  0.14813764312E+02  0.14880860435E+02  0.74207539177E+02  0.77264069859E+02  0.47000000000E+01 0. -1.
        -13    1    4    4    0    0 -0.84137439351E+01 -0.95839884271E+02  0.10088754953E+03  0.13940721701E+03  0.00000000000E+00 0.  1.
         14    1    4    4    0    0 -0.96609081854E+02 -0.92888375667E+02  0.15822675423E+03  0.20735783271E+03  0.00000000000E+00 0. -1.
         -5    1    5    5    0  501  0.19628597273E+02 -0.26702583906E+02 -0.13545436088E+02  0.36109259990E+02  0.47000000000E+01 0.  1.
         11    1    6    6    0    0 -0.64182080223E+01  0.73441125780E+02  0.82628866660E-02  0.73721044610E+02  0.00000000000E+00 0. -1.
        -12    1    6    6    0    0  0.76998672226E+02  0.12710885763E+03 -0.69466368263E+02  0.16404582754E+03  0.00000000000E+00 0.  1.
</event>
<event>
12    1  0.1348628E-002  0.2408083E+03  0.7818608E-02  0.1119256E+00
         -1   -1    0    0    0  501 -0.00000000000E+00  0.00000000000E+00  0.13263652929E+03  0.13263652929E+03  0.00000000000E+00 0. -1.
          1   -1    0    0  502    0  0.00000000000E+00 -0.00000000000E+00 -0.46902286948E+03  0.46902286948E+03  0.00000000000E+00 0.  1.
          6    2    1    2  502    0  0.70517499861E+02  0.15324095167E+03 -0.89863038574E+02  0.25707269607E+03  0.17191712628E+03 0.  0.
         24    2    3    3    0    0  0.78339835303E+02  0.32791451442E+02 -0.22066435716E+02  0.11855287656E+03  0.79721062922E+02 0.  0.
         -6    2    1    2    0  501 -0.70517499861E+02 -0.15324095167E+03 -0.24652330162E+03  0.34458670269E+03  0.17178693309E+03 0.  0.
        -24    2    5    5    0    0 -0.69471931023E+02 -0.16508142911E+03 -0.14869486068E+03  0.24592676160E+03  0.79319499758E+02 0.  0.
          5    1    3    3  502    0 -0.78223354422E+01  0.12044950022E+03 -0.67796602858E+02  0.13851981950E+03  0.47000000000E+01 0. -1.
        -13    1    4    4    0    0  0.63491050416E+02  0.48006376483E+02 -0.41485143481E+02  0.89759360490E+02  0.00000000000E+00 0.  1.
         14    1    4    4    0    0  0.14848784887E+02 -0.15214925041E+02  0.19418707765E+02  0.28793516074E+02  0.00000000000E+00 0. -1.
         -5    1    5    5    0  501 -0.10455688383E+01  0.11840477443E+02 -0.97828440940E+02  0.98659941096E+02  0.47000000000E+01 0.  1.
         13    1    6    6    0    0 -0.44033595821E+02 -0.71292951375E+02 -0.22710082211E+02  0.86818145055E+02  0.00000000000E+00 0. -1.
        -14    1    6    6    0    0 -0.25438335201E+02 -0.93788477735E+02 -0.12598477846E+03  0.15910861654E+03  0.00000000000E+00 0.  1.
</event>
<event>
12    1  0.1348628E-002  0.2080925E+03  0.7818608E-02  0.1143085E+00
         -1   -1    0    0    0  501 -0.00000000000E+00  0.00000000000E+00  0.49641268582E+02  0.49641268582E+02  0.00000000000E+00 0. -1.
          1   -1    0    0  502    0  0.00000000000E+00 -0.00000000000E+00 -0.87272908254E+03  0.87272908254E+03  0.00000000000E+00 0.  1.
          6    2    1    2  502    0 -0.10581921718E+03  0.49593423184E+02 -0.40522829809E+03  0.45627186422E+03  0.17411727702E+03 0.  0.
         24    2    3    3    0    0 -0.12062626410E+03  0.82062169311E+02 -0.27208047459E+03  0.31834470585E+03  0.77657400583E+02 0.  0.
         -6    2    1    2    0  501  0.10581921718E+03 -0.49593423184E+02 -0.41785951587E+03  0.46609848690E+03  0.17024690935E+03 0.  0.
        -24    2    5    5    0    0  0.82221514344E+02  0.32764514703E+02 -0.27776052196E+03  0.30181367444E+03  0.78145349661E+02 0.  0.
          5    1    3    3  502    0  0.14807046919E+02 -0.32468746127E+02 -0.13314782350E+03  0.13792715837E+03  0.47000000000E+01 0. -1.
        -11    1    4    4    0    0 -0.68898577599E+02  0.76247466765E+01 -0.79364536204E+02  0.10537495131E+03  0.00000000000E+00 0.  1.
         12    1    4    4    0    0 -0.51727686504E+02  0.74437422634E+02 -0.19271593839E+03  0.21296975454E+03  0.00000000000E+00 0. -1.
         -5    1    5    5    0  501  0.23597702841E+02 -0.82357937887E+02 -0.14009899391E+03  0.16428481246E+03  0.47000000000E+01 0.  1.
         13    1    6    6    0    0 -0.14546320336E+02  0.10524050747E+02 -0.56788435718E+02  0.59559025435E+02  0.00000000000E+00 0. -1.
        -14    1    6    6    0    0  0.96767834680E+02  0.22240463956E+02 -0.22097208624E+03  0.24225464900E+03  0.00000000000E+00 0.  1.
</event>
<event>
12    1  0.1348628E-002  0.2587932E+03  0.7818608E-02  0.1107871E+00
          2   -1    0    0  502    0  0.00000000000E+00  0.00000000000E+00  0.69631342652E+03  0.69631342652E+03  0.00000000000E+00 0. -1.
         -2   -1    0    0    0  501 -0.00000000000E+00 -0.00000000000E+00 -0.96196392532E+02  0.96196392532E+02  0.00000000000E+00 0.  1.
          6    2    1    2  502    0 -0.87496525564E+02 -0.17016705926E+03  0.30579735182E+03  0.40171663354E+03  0.17678168242E+03 0.  0.
         24    2    3    3    0    0 -0.11168445501E+03 -0.11514951072E+03  0.28776225630E+03  0.33879333699E+03  0.78999884370E+02 0.  0.
         -6    2    1    2    0  501  0.87496525564E+02  0.17016705926E+03  0.29431968217E+03  0.39079318551E+03  0.17170547018E+03 0.  0.
        -24    2    5    5    0    0  0.29957502805E+02  0.17338715149E+03  0.18727099841E+03  0.26912717206E+03  0.79990322041E+02 0.  0.
          5    1    3    3  502    0  0.24187929449E+02 -0.55017548537E+02  0.18035095527E+02  0.62923296551E+02  0.47000000000E+01 0. -1.
        -11    1    4    4    0    0  0.42281708607E+01 -0.32939258769E+02  0.31531148979E+02  0.45793946685E+02  0.00000000000E+00 0.  1.
         12    1    4    4    0    0 -0.11591262587E+03 -0.82210251952E+02  0.25623110732E+03  0.29299939031E+03  0.00000000000E+00 0. -1.
         -5    1    5    5    0  501  0.57539022759E+02 -0.32200922341E+01  0.10704868376E+03  0.12166601345E+03  0.47000000000E+01 0.  1.
         13    1    6    6    0    0  0.26112694612E+02  0.14372418257E+03  0.10040582496E+03  0.17725643334E+03  0.00000000000E+00 0. -1.
        -14    1    6    6    0    0  0.38448081927E+01  0.29662968926E+02  0.86865173443E+02  0.91870738719E+02  0.00000000000E+00 0.  1.
</event>
<event>
12    1  0.1348628E-002  0.2011784E+03  0.7818608E-02  0.1148749E+00
         -2   -1    0    0    0  501 -0.00000000000E+00  0.00000000000E+00  0.22355851698E+02  0.22355851698E+02  0.00000000000E+00 0.  1.
          2   -1    0    0  502    0  0.00000000000E+00 -0.00000000000E+00 -0.19046675353E+04  0.19046675353E+04  0.00000000000E+00 0. -1.
          6    2    1    2  502    0  0.66734569549E+02 -0.79621830899E+02 -0.11566802422E+04  0.11740899191E+04  0.17258278251E+03 0.  0.
         24    2    3    3    0    0  0.50709491898E+02 -0.44251445649E+02 -0.31283382802E+03  0.32933745364E+03  0.77900650849E+02 0.  0.
         -6    2    1    2    0  501 -0.66734569549E+02  0.79621830899E+02 -0.72563144143E+03  0.75293346788E+03  0.17197290347E+03 0.  0.
        -24    2    5    5    0    0 -0.99466465622E+02  0.95271774762E+02 -0.63954095032E+03  0.65939224476E+03  0.82554324284E+02 0.  0.
          5    1    3    3  502    0  0.16025077651E+02 -0.35370385250E+02 -0.84384641413E+03  0.84475246546E+03  0.47000000000E+01 0. -1.
        -13    1    4    4    0    0  0.69391671933E+02 -0.35962771806E+02 -0.20118069585E+03  0.21582909320E+03  0.00000000000E+00 0.  1.
         14    1    4    4    0    0 -0.18682180035E+02 -0.82886738433E+01 -0.11165313217E+03  0.11350836044E+03  0.00000000000E+00 0. -1.
         -5    1    5    5    0  501  0.32731896073E+02 -0.15649943864E+02 -0.86090491111E+02  0.93541223123E+02  0.47000000000E+01 0.  1.
         13    1    6    6    0    0 -0.63772667363E+02  0.97059918780E+02 -0.37850682999E+03  0.39592297393E+03  0.00000000000E+00 0. -1.
        -14    1    6    6    0    0 -0.35693798260E+02 -0.17881440177E+01 -0.26103412033E+03  0.26346927083E+03  0.00000000000E+00 0.  1.
</event>
<event>
12    1  0.1348628E-002  0.2438961E+03  0.7818608E-02  0.1117224E+00
          1   -1    0    0  502    0  0.00000000000E+00  0.00000000000E+00  0.15323188788E+04  0.15323188788E+04  0.00000000000E+00 0. -1.
         -1   -1    0    0    0  501 -0.00000000000E+00 -0.00000000000E+00 -0.46948000715E+02  0.46948000715E+02  0.00000000000E+00 0.  1.
          6    2    1    2  502    0 -0.17180919329E+03 -0.48953893392E+01  0.41543070016E+03  0.48199374709E+03  0.17376116329E+03 0.  0.
         24    2    3    3    0    0 -0.42119260689E+02 -0.41761961797E+02  0.24444049809E+03  0.26419025312E+03  0.80791330994E+02 0.  0.
         -6    2    1    2    0  501  0.17180919329E+03  0.48953893392E+01  0.10699401779E+04  0.10972731324E+04  0.17231940999E+03 0.  0.
        -24    2    5    5    0    0  0.11810491689E+03 -0.37775824009E+01  0.44011845729E+03  0.46508893496E+03  0.92953856556E+02 0.  0.
          5    1    3    3  502    0 -0.12968993260E+03  0.36866572457E+02  0.17099020207E+03  0.21780349397E+03  0.47000000000E+01 0. -1.
        -13    1    4    4    0    0 -0.10614588171E+02 -0.30223697579E+02  0.21133003327E+02  0.38376362608E+02  0.00000000000E+00 0.  1.
         14    1    4    4    0    0 -0.31504672519E+02 -0.11538264218E+02  0.22330749477E+03  0.22581389052E+03  0.00000000000E+00 0. -1.
         -5    1    5    5    0  501  0.53704276405E+02  0.86729717401E+01  0.62982172065E+03  0.63218419748E+03  0.47000000000E+01 0.  1.
         13    1    6    6    0    0  0.16405716281E+02 -0.43341295591E+01  0.24011017077E+03  0.24070900754E+03  0.00000000000E+00 0. -1.
        -14    1    6    6    0    0  0.10169920060E+03  0.55654715826E+00  0.20000828652E+03  0.22437992741E+03  0.00000000000E+00 0.  1.
</event>
<event>
12    1  0.1348628E-002  0.1730708E+03  0.7818608E-02  0.1174683E+00
         -2   -1    0    0    0  501 -0.00000000000E+00  0.00000000000E+00  0.18094340536E+03  0.18094340536E+03  0.00000000000E+00 0. -1.
          2   -1    0    0  502    0  0.00000000000E+00 -0.00000000000E+00 -0.16791729354E+03  0.16791729354E+03  0.00000000000E+00 0.  1.
          6    2    1    2  502    0 -0.28190573694E+02  0.26698662186E+02 -0.14119680883E+02  0.17060668342E+03  0.16552869247E+03 0.  0.
         24    2    3    3    0    0 -0.58438586314E+02  0.62909336864E+02  0.93018151518E+01  0.11772179234E+03  0.79995272307E+02 0.  0.
         -6    2    1    2    0  501  0.28190573694E+02 -0.26698662186E+02  0.27145792702E+02  0.17825401548E+03  0.17184316386E+03 0.  0.
        -24    2    5    5    0    0  0.59580361907E+02 -0.22612926682E+02 -0.34086353980E+02  0.10916365562E+03  0.81814792075E+02 0.  0.
          5    1    3    3  502    0  0.30248012621E+02 -0.36210674678E+02 -0.23421496035E+02  0.52884891081E+02  0.47000000000E+01 0. -1.
        -11    1    4    4    0    0  0.12571484532E+02  0.14527474822E+02 -0.19230448737E+02  0.27182713380E+02  0.00000000000E+00 0.  1.
         12    1    4    4    0    0 -0.71010070846E+02  0.48381862041E+02  0.28532263889E+02  0.90539078959E+02  0.00000000000E+00 0. -1.
         -5    1    5    5    0  501 -0.31389788214E+02 -0.40857355030E+01  0.61232146682E+02  0.69090359863E+02  0.47000000000E+01 0.  1.
         11    1    6    6    0    0  0.93251875225E+01 -0.14779317954E+02  0.25442076755E+02  0.30865622157E+02  0.00000000000E+00 0. -1.
        -12    1    6    6    0    0  0.50255174385E+02 -0.78336087286E+01 -0.59528430735E+02  0.78298033462E+02  0.00000000000E+00 0.  1.
</event>
<event>
12    1  0.1348628E-002  0.2126091E+03  0.7818608E-02  0.1139516E+00
          3   -1    0    0  502    0  0.00000000000E+00  0.00000000000E+00  0.15604450093E+03  0.15604450093E+03  0.00000000000E+00 0.  1.
         -3   -1    0    0    0  501 -0.00000000000E+00 -0.00000000000E+00 -0.29414207630E+03  0.29414207630E+03  0.00000000000E+00 0. -1.
          6    2    1    2  502    0  0.89639780205E+02  0.89994968319E+02 -0.40773635785E+02  0.21458481049E+03  0.16807667000E+03 0.  0.
         24    2    3    3    0    0 -0.24084325432E+01  0.27623284954E+02 -0.56085978354E+02  0.10224755847E+03  0.80870760020E+02 0.  0.
         -6    2    1    2    0  501 -0.89639780205E+02 -0.89994968319E+02 -0.97323939586E+02  0.23560176674E+03  0.17292153930E+03 0.  0.
        -24    2    5    5    0    0 -0.29229218367E+02 -0.47515654422E+02 -0.12386820125E+03  0.15698487340E+03  0.78669146258E+02 0.  0.
          5    1    3    3  502    0  0.92048212748E+02  0.62371683365E+02  0.15312342569E+02  0.11233725202E+03  0.47000000000E+01 0. -1.
        -11    1    4    4    0    0 -0.20547646399E+02  0.26482848635E+02  0.89713354134E+01  0.34699162864E+02  0.00000000000E+00 0.  1.
         12    1    4    4    0    0  0.18139213856E+02  0.11404363187E+01 -0.65057313767E+02  0.67548395606E+02  0.00000000000E+00 0. -1.
         -5    1    5    5    0  501 -0.60410561838E+02 -0.42479313897E+02  0.26544261666E+02  0.78616893338E+02  0.47000000000E+01 0.  1.
         13    1    6    6    0    0  0.10319643570E+02  0.99629769120E+01 -0.62311317033E+02  0.63941036766E+02  0.00000000000E+00 0. -1.
        -14    1    6    6    0    0 -0.39548861936E+02 -0.57478631334E+02 -0.61556884219E+02  0.93043836632E+02  0.00000000000E+00 0.  1.
</event>
<event>
12    1  0.1348628E-002  0.1748614E+03  0.7818608E-02  0.1172871E+00
          1   -1    0    0  502    0  0.00000000000E+00  0.00000000000E+00  0.34705543485E+03  0.34705543485E+03  0.00000000000E+00 0. -1.
         -1   -1    0    0    0  501 -0.00000000000E+00 -0.00000000000E+00 -0.10429840273E+03  0.10429840273E+03  0.00000000000E+00 0.  1.
          6    2    1    2  502    0  0.20081098013E+02  0.20063723042E+02  0.32140543505E+02  0.17727086403E+03  0.17200622436E+03 0.  0.
         24    2    3    3    0    0  0.65147558383E+02  0.17748221610E+02 -0.21772012395E+02  0.10680810024E+03  0.79842006615E+02 0.  0.
         -6    2    1    2    0  501 -0.20081098013E+02 -0.20063723042E+02  0.21061648861E+03  0.27408297355E+03  0.17307907914E+03 0.  0.
        -24    2    5    5    0    0 -0.38728278975E+02 -0.24775374441E+02  0.22951071053E+03  0.24671513405E+03  0.77971099471E+02 0.  0.
          5    1    3    3  502    0 -0.45066460370E+02  0.23155014315E+01  0.53912555900E+02  0.70462763790E+02  0.47000000000E+01 0. -1.
        -11    1    4    4    0    0  0.14307076644E+02  0.42771892193E+02  0.24840993688E+01  0.45169657443E+02  0.00000000000E+00 0.  1.
         12    1    4    4    0    0  0.50840481739E+02 -0.25023670583E+02 -0.24256111764E+02  0.61638442800E+02  0.00000000000E+00 0. -1.
         -5    1    5    5    0  501  0.18647180963E+02  0.47116513989E+01 -0.18894221917E+02  0.27367839495E+02  0.47000000000E+01 0.  1.
         13    1    6    6    0    0 -0.40304101552E+02  0.64139843972E+00  0.44831415474E+02  0.60288372074E+02  0.00000000000E+00 0. -1.
        -14    1    6    6    0    0  0.15758225769E+01 -0.25416772880E+02  0.18467929505E+03  0.18642676198E+03  0.00000000000E+00 0.  1.
</event>
<event>
12    1  0.1348628E-002  0.1733323E+03  0.7818608E-02  0.1174417E+00
         -2   -1    0    0    0  501 -0.00000000000E+00  0.00000000000E+00  0.15232835653E+03  0.15232835653E+03  0.00000000000E+00 0.  1.
          2   -1    0    0  502    0  0.00000000000E+00 -0.00000000000E+00 -0.19827734137E+03  0.19827734137E+03  0.00000000000E+00 0. -1.
          6    2    1    2  502    0  0.46552724006E+01  0.20025608654E+02 -0.35718374804E+02  0.17711065453E+03  0.17224890445E+03 0.  0.
         24    2    3    3    0    0 -0.56387266912E+02  0.23520013592E+02  0.87446149278E+01  0.10136469802E+03  0.80409071658E+02 0.  0.
         -6    2    1    2    0  501 -0.46552724006E+01 -0.20025608654E+02 -0.10230610040E+02  0.17349504338E+03  0.17196850913E+03 0.  0.
        -24    2    5    5    0    0  0.14985819087E+02 -0.68987573782E+02  0.15237036918E+02  0.11472653527E+03  0.89141182908E+02 0.  0.
          5    1    3    3  502    0  0.61042539312E+02 -0.34944049380E+01 -0.44462989732E+02  0.75745956509E+02  0.47000000000E+01 0. -1.
        -13    1    4    4    0    0 -0.50118564194E+02 -0.55501918207E+01  0.35253543422E+02  0.61526314938E+02  0.00000000000E+00 0.  1.
         14    1    4    4    0    0 -0.62687027177E+01  0.29070205412E+02 -0.26508928494E+02  0.39838383079E+02  0.00000000000E+00 0. -1.
         -5    1    5    5    0  501 -0.19641091487E+02  0.48961965129E+02 -0.25467646958E+02  0.58768508112E+02  0.47000000000E+01 0.  1.
         11    1    6    6    0    0  0.27123571961E+02 -0.32526482048E+02 -0.32542757398E+02  0.53410591172E+02  0.00000000000E+00 0. -1.
        -12    1    6    6    0    0 -0.12137752875E+02 -0.36461091734E+02  0.47779794316E+02  0.61315944094E+02  0.00000000000E+00 0.  1.
</event>
<event>
12    1  0.1348628E-002  0.2089921E+03  0.7818608E-02  0.1142367E+00
         -2   -1    0    0    0  501 -0.00000000000E+00  0.00000000000E+00  0.54290979438E+02  0.54290979438E+02  0.00000000000E+00 0.  1.
          2   -1    0    0  502    0  0.00000000000E+00 -0.00000000000E+00 -0.80666400922E+03  0.80666400922E+03  0.00000000000E+00 0. -1.
          6    2    1    2  502    0 -0.52652998703E+02  0.10080140764E+03 -0.35167147040E+03  0.40839065463E+03  0.17371482850E+03 0.  0.
         24    2    3    3    0    0 -0.50038317191E+02 -0.10913859399E+02 -0.17709889768E+03  0.20106286924E+03  0.80245325800E+02 0.  0.
         -6    2    1    2    0  501  0.52652998703E+02 -0.10080140764E+03 -0.40070155938E+03  0.45256433402E+03  0.17697309029E+03 0.  0.
        -24    2    5    5    0    0  0.52901004764E+02  0.15986262234E+02 -0.24727092134E+03  0.25968491047E+03  0.56914561403E+02 0.  0.
          5    1    3    3  502    0 -0.26146815126E+01  0.11171526704E+03 -0.17457257272E+03  0.20732778539E+03  0.47000000000E+01 0. -1.
        -13    1    4    4    0    0 -0.70055042273E+02 -0.17942154206E+02 -0.11945765877E+03  0.13964154856E+03  0.00000000000E+00 0.  1.
         14    1    4    4    0    0  0.20016725082E+02  0.70282948069E+01 -0.57641238908E+02  0.61421320678E+02  0.00000000000E+00 0. -1.
         -5    1    5    5    0  501 -0.24800606030E+00 -0.11678766987E+03 -0.15343063804E+03  0.19287942355E+03  0.47000000000E+01 0.  1.
         13    1    6    6    0    0  0.79227036454E+01  0.73534139979E+01 -0.16636143241E+03  0.16671223147E+03  0.00000000000E+00 0. -1.
        -14    1    6    6    0    0  0.44978301118E+02  0.86328482359E+01 -0.80909488935E+02  0.92972678997E+02  0.00000000000E+00 0.  1.
</event>
<event>
12    1  0.1348628E-002  0.1720864E+03  0.7818608E-02  0.1175689E+00
         -3   -1    0    0    0  501 -0.00000000000E+00  0.00000000000E+00  0.18285641249E+03  0.18285641249E+03  0.00000000000E+00 0. -1.
          3   -1    0    0  502    0  0.00000000000E+00 -0.00000000000E+00 -0.39295775052E+03  0.39295775052E+03  0.00000000000E+00 0.  1.
          6    2    1    2  502    0 -0.27041401701E+01 -0.98156817978E+01  0.11572591675E+03  0.20727692891E+03  0.17166122878E+03 0.  0.
         24    2    3    3    0    0 -0.53653381584E+00 -0.16600081462E+02 -0.99377672814E+01  0.81323850022E+02  0.78987079898E+02 0.  0.
         -6    2    1    2    0  501  0.27041401701E+01  0.98156817978E+01 -0.32582725479E+03  0.36853723410E+03  0.17190879260E+03 0.  0.
        -24    2    5    5    0    0  0.30268285753E+02  0.59460710572E+02 -0.13839072114E+03  0.17263175906E+03  0.78727297141E+02 0.  0.
          5    1    3    3  502    0 -0.21676063543E+01  0.67843996645E+01  0.12566368403E+03  0.12595307889E+03  0.47000000000E+01 0. -1.
        -11    1    4    4    0    0  0.27088352715E+02 -0.48052636681E+01 -0.33355004635E+02  0.43236856337E+02  0.00000000000E+00 0.  1.
         12    1    4    4    0    0 -0.27624886530E+02 -0.11794817794E+02  0.23417237354E+02  0.38086993684E+02  0.00000000000E+00 0. -1.
         -5    1    5    5    0  501 -0.27564145583E+02 -0.49645028774E+02 -0.18743653364E+03  0.19590547503E+03  0.47000000000E+01 0.  1.
         11    1    6    6    0    0  0.55412444988E+02  0.47373097196E+02 -0.11531260064E+03  0.13642487040E+03  0.00000000000E+00 0. -1.
        -12    1    6    6    0    0 -0.25144159234E+02  0.12087613376E+02 -0.23078120499E+02  0.36206888661E+02  0.00000000000E+00 0.  1.
</event>
<event>
12    1  0.1348628E-002  0.2125401E+03  0.7818608E-02  0.1139570E+00
          2   -1    0    0  502    0  0.00000000000E+00  0.00000000000E+00  0.12375797551E+04  0.12375797551E+04  0.00000000000E+00 0.  1.
         -2   -1    0    0    0  501 -0.00000000000E+00 -0.00000000000E+00 -0.37992736557E+02  0.37992736557E+02  0.00000000000E+00 0. -1.
          6    2    1    2  502    0  0.61300767905E+02 -0.10885640242E+03  0.47416544340E+03  0.51973192639E+03  0.17228147637E+03 0.  0.
         24    2    3    3    0    0  0.65038727795E+02 -0.10668915441E+03  0.48497970106E+03  0.50717376264E+03  0.80045632543E+02 0.  0.
         -6    2    1    2    0  501 -0.61300767905E+02  0.10885640242E+03  0.72542157519E+03  0.75584056531E+03  0.17161293055E+03 0.  0.
        -24    2    5    5    0    0 -0.18693546258E+02  0.68190869664E+02  0.19174459936E+03  0.21890270539E+03  0.78440803578E+02 0.  0.
          5    1    3    3  502    0 -0.37379598901E+01 -0.21672480084E+01 -0.10814257658E+02  0.12558163750E+02  0.47000000000E+01 0. -1.
        -13    1    4    4    0    0  0.74474845652E+02 -0.48648237912E+02  0.31444924790E+03  0.32678966201E+03  0.00000000000E+00 0.  1.
         14    1    4    4    0    0 -0.94361178565E+01 -0.58040916499E+02  0.17053045315E+03  0.18038410063E+03  0.00000000000E+00 0. -1.
         -5    1    5    5    0  501 -0.42607221647E+02  0.40665532756E+02  0.53367697582E+03  0.53693785992E+03  0.47000000000E+01 0.  1.
         11    1    6    6    0    0 -0.48050071966E+02  0.44649233343E+02  0.14297800332E+03  0.15730566706E+03  0.00000000000E+00 0. -1.
        -12    1    6    6    0    0  0.29356525708E+02  0.23541636321E+02  0.48766596040E+02  0.61597038335E+02  0.00000000000E+00 0.  1.
</event>
<event>
12    1  0.1348628E-002  0.2070206E+03  0.7818608E-02  0.1143947E+00
          2   -1    0    0  502    0  0.00000000000E+00  0.00000000000E+00  0.12258642408E+03  0.12258642408E+03  0.00000000000E+00 0. -1.
         -2   -1    0    0    0  501 -0.00000000000E+00 -0.00000000000E+00 -0.35067774544E+03  0.35067774544E+03  0.00000000000E+00 0.  1.
          6    2    1    2  502    0  0.10715165617E+03 -0.39765161145E+02 -0.12753478995E+03  0.24388730282E+03  0.17364661923E+03 0.  0.
         24    2    3    3    0    0  0.12274680057E+03 -0.86974996587E+01 -0.14408070321E+03  0.20510244283E+03  0.78519675658E+02 0.  0.
         -6    2    1    2    0  501 -0.10715165617E+03  0.39765161145E+02 -0.10055653141E+03  0.22937686670E+03  0.17157909403E+03 0.  0.
        -24    2    5    5    0    0 -0.40674741680E+02  0.75218136705E+02 -0.99934993113E+02  0.15388799371E+03  0.79889355101E+02 0.  0.
          5    1    3    3  502    0 -0.15595144405E+02 -0.31067661487E+02  0.16545913256E+02  0.38784859993E+02  0.47000000000E+01 0. -1.
        -11    1    4    4    0    0  0.25001972357E+01 -0.34205194030E+01 -0.55491449866E+02  0.55652959916E+02  0.00000000000E+00 0.  1.
         12    1    4    4    0    0  0.12024660334E+03 -0.52769802557E+01 -0.88589253344E+02  0.14944948291E+03  0.00000000000E+00 0. -1.
         -5    1    5    5    0  501 -0.66476914488E+02 -0.35452975560E+02 -0.62153829643E+00  0.75488872993E+02  0.47000000000E+01 0.  1.
         13    1    6    6    0    0 -0.34412401008E+02  0.14543009649E+02 -0.65289975809E+00  0.37364940129E+02  0.00000000000E+00 0. -1.
        -14    1    6    6    0    0 -0.62623406718E+01  0.60675127056E+02 -0.99282093355E+02  0.11652305358E+03  0.00000000000E+00 0.  1.
</event>
<event>
12    1  0.1348628E-002  0.1986742E+03  0.7818608E-02  0.1150862E+00
          1   -1    0    0  502    0  0.00000000000E+00  0.00000000000E+00  0.57485285275E+03  0.57485285275E+03  0.00000000000E+00 0. -1.
         -1   -1    0    0    0  501 -0.00000000000E+00 -0.00000000000E+00 -0.76257220891E+02  0.76257220891E+02  0.00000000000E+00 0.  1.
          6    2    1    2  502    0 -0.43086194306E+02 -0.89141849293E+02  0.35122458500E+03  0.40317477185E+03  0.17143073853E+03 0.  0.
         24    2    3    3    0    0 -0.18161985361E+02 -0.10692719414E+03  0.15813791097E+03  0.20761892722E+03  0.79591064150E+02 0.  0.
         -6    2    1    2    0  501  0.43086194306E+02  0.89141849293E+02  0.14737104685E+03  0.24793530179E+03  0.17306356921E+03 0.  0.
        -24    2    5    5    0    0 -0.31868488021E+02  0.72218657946E+02  0.12426687439E+03  0.16755811850E+03  0.80014573174E+02 0.  0.
          5    1    3    3  502    0 -0.24924208945E+02  0.17785344847E+02  0.19308667403E+03  0.19555584464E+03  0.47000000000E+01 0. -1.
        -13    1    4    4    0    0  0.24006095938E+02 -0.54290143066E+01  0.28098345428E+02  0.37353498555E+02  0.00000000000E+00 0.  1.
         14    1    4    4    0    0 -0.42168081299E+02 -0.10149817983E+03  0.13003956555E+03  0.17026542866E+03  0.00000000000E+00 0. -1.
         -5    1    5    5    0  501  0.74954682327E+02  0.16923191347E+02  0.23104172465E+02  0.80377183288E+02  0.47000000000E+01 0.  1.
         11    1    6    6    0    0  0.11543719622E+02 -0.12056939187E+02  0.26941415072E+02  0.31693328815E+02  0.00000000000E+00 0. -1.
        -12    1    6    6    0    0 -0.43412207644E+02  0.84275597133E+02  0.97325459316E+02  0.13586478968E+03  0.00000000000E+00 0.  1.
</event>
<event>
12    1  0.1348628E-002  0.2460122E+03  0.7818608E-02  0.1115851E+00
         -3   -1    0    0    0  501 -0.00000000000E+00  0.00000000000E+00  0.22856209555E+03  0.22856209555E+03  0.00000000000E+00 0.  1.
          3   -1    0    0  502    0  0.00000000000E+00 -0.00000000000E+00 -0.26531876631E+03  0.26531876631E+03  0.00000000000E+00 0. -1.
          6    2    1    2  502    0 -0.16120860561E+03 -0.67416667540E+02 -0.73756495775E+01  0.24558025473E+03  0.17240081126E+03 0.  0.
         24    2    3    3    0    0 -0.15584347464E+03 -0.11489979027E+02 -0.39731125801E+02  0.18057605518E+03  0.81301544512E+02 0.  0.
         -6    2    1    2    0  501  0.16120860561E+03  0.67416667540E+02 -0.29381021175E+02  0.24830060713E+03  0.17394460471E+03 0.  0.
        -24    2    5    5    0    0  0.20800747315E+02 -0.57951288399E+01  0.13172450156E+02  0.84266398126E+02  0.80380705414E+02 0.  0.
          5    1    3    3  502    0 -0.53651309751E+01 -0.55926688513E+02  0.32355476224E+02  0.65004199557E+02  0.47000000000E+01 0. -1.
        -13    1    4    4    0    0 -0.13019775075E+03  0.18506756494E+02 -0.11410264113E+02  0.13200056236E+03  0.00000000000E+00 0.  1.
         14    1    4    4    0    0 -0.25645723892E+02 -0.29996735521E+02 -0.28320861688E+02  0.48575492819E+02  0.00000000000E+00 0. -1.
         -5    1    5    5    0  501  0.14040785830E+03  0.73211796380E+02 -0.42553471331E+02  0.16403420900E+03  0.47000000000E+01 0.  1.
         11    1    6    6    0    0  0.38888513156E+02  0.25863316476E+02  0.57364288852E+01  0.47054587565E+02  0.00000000000E+00 0. -1.
        -12    1    6    6    0    0 -0.18087765840E+02 -0.31658445316E+02  0.74360212703E+01  0.37211810561E+02  0.00000000000E+00 0.  1.
</event>
<event>
12    1  0.1348628E-002  0.2086068E+03  0.7818608E-02  0.1142674E+00
         -1   -1    0    0    0  501 -0.00000000000E+00  0.00000000000E+00  0.32303789121E+02  0.32303789121E+02  0.00000000000E+00 0. -1.
          1   -1    0    0  502    0  0.00000000000E+00 -0.00000000000E+00 -0.13534204598E+04  0.13534204598E+04  0.00000000000E+00 0.  1.
          6    2    1    2  502    0  0.26830316701E+02  0.11383508672E+03 -0.70864359724E+03  0.73878040598E+03  0.17303886118E+03 0.  0.
         24    2    3    3    0    0  0.62474341226E+02  0.12625791082E+03 -0.63788618643E+03  0.65844657607E+03  0.82516685240E+02 0.  0.
         -6    2    1    2    0  501 -0.26830316701E+02 -0.11383508672E+03 -0.61247307340E+03  0.64694384291E+03  0.17243774927E+03 0.  0.
        -24    2    5    5    0    0  0.43274289655E+01 -0.13274328497E+03 -0.36514133834E+03  0.39689704280E+03  0.80991106141E+02 0.  0.
          5    1    3    3  502    0 -0.35644024525E+02 -0.12422824095E+02 -0.70757410811E+02  0.80333829907E+02  0.47000000000E+01 0. -1.
        -13    1    4    4    0    0  0.49863243701E+02  0.16472327810E+02 -0.22237341808E+03  0.22848986350E+03  0.00000000000E+00 0.  1.
         14    1    4    4    0    0  0.12611097524E+02  0.10978558301E+03 -0.41551276836E+03  0.42995671257E+03  0.00000000000E+00 0. -1.
         -5    1    5    5    0  501 -0.31157745667E+02  0.18908198244E+02 -0.24733173506E+03  0.25004680011E+03  0.47000000000E+01 0.  1.
         11    1    6    6    0    0  0.56774055612E+01 -0.40666689081E+01  0.24745054566E+01  0.74090422572E+01  0.00000000000E+00 0. -1.
        -12    1    6    6    0    0 -0.13499765957E+01 -0.12867661606E+03 -0.36761584379E+03  0.38948800054E+03  0.00000000000E+00 0.  1.
</event>
<event>
12    1  0.1348628E-002  0.1754999E+03  0.7818608E-02  0.1172231E+00
          1   -1    0    0  502    0  0.00000000000E+00  0.00000000000E+00  0.45703840795E+03  0.45703840795E+03  0.00000000000E+00 0.  1.
         -1   -1    0    0    0  501 -0.00000000000E+00 -0.00000000000E+00 -0.78358296358E+02  0.78358296358E+02  0.00000000000E+00 0. -1.
          6    2    1    2  502    0  0.72607463345E+01 -0.41500972461E+02  0.28941053905E+03  0.33842014152E+03  0.17027825146E+03 0.  0.
         24    2    3    3    0    0  0.93274559947E+01  0.26837418069E+02  0.23826254831E+03  0.25290631886E+03  0.79908170725E+02 0.  0.
         -6    2    1    2    0  501 -0.72607463345E+01  0.41500972461E+02  0.89269572537E+02  0.19697656279E+03  0.17045721033E+03 0.  0.
        -24    2    5    5    0    0 -0.28453875760E+02  0.65665200911E+02  0.68005571902E+01  0.10834086364E+03  0.81055249668E+02 0.  0.
          5    1    3    3  502    0 -0.20667096602E+01 -0.68338390530E+02  0.51147990745E+02  0.85513822662E+02  0.47000000000E+01 0. -1.
        -13    1    4    4    0    0 -0.68640550300E+01  0.12251716297E+02  0.22866212170E+03  0.22909296302E+03  0.00000000000E+00 0.  1.
         14    1    4    4    0    0  0.16191511025E+02  0.14585701771E+02  0.96004266092E+01  0.23813355843E+02  0.00000000000E+00 0. -1.
         -5    1    5    5    0  501  0.21193129425E+02 -0.24164228450E+02  0.82469015347E+02  0.88635699150E+02  0.47000000000E+01 0.  1.
         11    1    6    6    0    0  0.62352273617E+01  0.36968646510E+01 -0.28235858764E+02  0.29151476612E+02  0.00000000000E+00 0. -1.
        -12    1    6    6    0    0 -0.34689103122E+02  0.61968336260E+02  0.35036415955E+02  0.79189387024E+02  0.00000000000E+00 0.  1.
</event>
<event>
12    1  0.1348628E-002  0.1859366E+03  0.7818608E-02  0.1162178E+00
          2   -1    0    0  502    0  0.00000000000E+00  0.00000000000E+00  0.32701221758E+03  0.32701221758E+03  0.00000000000E+00 0.  1.
         -2   -1    0    0    0  501 -0.00000000000E+00 -0.00000000000E+00 -0.10625517083E+03  0.10625517083E+03  0.00000000000E+00 0. -1.
          6    2    1    2  502    0 -0.59019012484E+02  0.39116570912E+02  0.12567697587E+03  0.22436316008E+03  0.17184520763E+03 0.  0.
         24    2    3    3    0    0 -0.13292537698E+02  0.15538606418E+02  0.14512457524E+03  0.16916234462E+03  0.84478498159E+02 0.  0.
         -6    2    1    2    0  501  0.59019012484E+02 -0.39116570912E+02  0.95080070877E+02  0.20890422833E+03  0.17200990316E+03 0.  0.
        -24    2    5    5    0    0  0.75983573667E+01  0.34886639043E+02  0.17568670987E+02  0.89947656556E+02  0.80666660408E+02 0.  0.
          5    1    3    3  502    0 -0.45726474786E+02  0.23577964494E+02 -0.19447599372E+02  0.55200815459E+02  0.47000000000E+01 0. -1.
        -13    1    4    4    0    0 -0.30510184904E+02  0.43967493956E+02  0.94531889223E+02  0.10862913968E+03  0.00000000000E+00 0.  1.
         14    1    4    4    0    0  0.17217647206E+02 -0.28428887538E+02  0.50592686020E+02  0.60533204943E+02  0.00000000000E+00 0. -1.
         -5    1    5    5    0  501  0.51420655117E+02 -0.74003209954E+02  0.77511399890E+02  0.11895657178E+03  0.47000000000E+01 0.  1.
         11    1    6    6    0    0 -0.22738675675E+02  0.42196140511E+02 -0.92312784376E+01  0.48813708598E+02  0.00000000000E+00 0. -1.
        -12    1    6    6    0    0  0.30337033042E+02 -0.73095014682E+01  0.26799949424E+02  0.41133947958E+02  0.00000000000E+00 0.  1.
</event>
<event>
12    1  0.1348628E-002  0.2105345E+03  0.7818608E-02  0.1141143E+00
         -1   -1    0    0    0  501 -0.00000000000E+00  0.00000000000E+00  0.67307630817E+02  0.67307630817E+02  0.00000000000E+00 0.  1.
          1   -1    0    0  502    0  0.00000000000E+00 -0.00000000000E+00 -0.70741660972E+03  0.70741660972E+03  0.00000000000E+00 0. -1.
          6    2    1    2  502    0 -0.72846118161E+02  0.97778386602E+02 -0.42116247543E+03  0.47063024934E+03  0.17101997271E+03 0.  0.
         24    2    3    3    0    0  0.13221506092E+02  0.21786746863E+01 -0.13718845600E+03  0.15884462656E+03  0.78939141623E+02 0.  0.
         -6    2    1    2    0  501  0.72846118161E+02 -0.97778386602E+02 -0.21894650347E+03  0.30409399119E+03  0.17224521555E+03 0.  0.
        -24    2    5    5    0    0  0.11519126239E+03 -0.95211388957E+02 -0.19029622593E+03  0.25268748265E+03  0.72829079137E+02 0.  0.
          5    1    3    3  502    0 -0.86067624252E+02  0.95599711916E+02 -0.28397401943E+03  0.31178562279E+03  0.47000000000E+01 0. -1.
        -13    1    4    4    0    0  0.17273725908E+02 -0.34932207248E+02 -0.45861823656E+02  0.60182618579E+02  0.00000000000E+00 0.  1.
         14    1    4    4    0    0 -0.40522198158E+01  0.37110881934E+02 -0.91326632342E+02  0.98662007978E+02  0.00000000000E+00 0. -1.
         -5    1    5    5    0  501 -0.42345144231E+02 -0.25669976447E+01 -0.28650277537E+02  0.51406508536E+02  0.47000000000E+01 0.  1.
         13    1    6    6    0    0  0.42147891615E+00 -0.17192560574E+02 -0.59686800787E+02  0.62115022110E+02  0.00000000000E+00 0. -1.
        -14    1    6    6    0    0  0.11476978348E+03 -0.78018828383E+02 -0.13060942514E+03  0.19057246054E+03  0.00000000000E+00 0.  1.
</event>
<event>
12    1  0.1348628E-002  0.2833682E+03  0.7818608E-02  0.1093863E+00
         -2   -1    0    0    0  501 -0.00000000000E+00  0.00000000000E+00  0.59833675394E+02  0.59833675394E+02  0.00000000000E+00 0. -1.
          2   -1    0    0  502    0  0.00000000000E+00 -0.00000000000E+00 -0.14091176869E+04  0.14091176869E+04  0.00000000000E+00 0.  1.
          6    2    1    2  502    0  0.11276186870E+03  0.19425477365E+03 -0.51499359723E+03  0.58794027296E+03  0.17322010065E+03 0.  0.
         24    2    3    3    0    0  0.25972621077E+02  0.23299688605E+02 -0.21432036196E+03  0.23131091493E+03  0.79712416098E+02 0.  0.
         -6    2    1    2    0  501 -0.11276186870E+03 -0.19425477365E+03 -0.83429041424E+03  0.88101108929E+03  0.17230753913E+03 0.  0.
        -24    2    5    5    0    0 -0.94927700063E+02 -0.94846354784E+02 -0.30378404584E+03  0.34095628816E+03  0.77196791859E+02 0.  0.
          5    1    3    3  502    0  0.86789247627E+02  0.17095508504E+03 -0.30067323527E+03  0.35662935803E+03  0.47000000000E+01 0. -1.
        -13    1    4    4    0    0  0.25863184006E+02  0.36559509332E+02 -0.21336745168E+03  0.21801644765E+03  0.00000000000E+00 0.  1.
         14    1    4    4    0    0  0.10943707019E+00 -0.13259820727E+02 -0.95291027725E+00  0.13294467277E+02  0.00000000000E+00 0. -1.
         -5    1    5    5    0  501 -0.17834168640E+02 -0.99408418864E+02 -0.53050636840E+03  0.54005480113E+03  0.47000000000E+01 0.  1.
         11    1    6    6    0    0 -0.55569697048E+02 -0.45887224924E+02 -0.24331631867E+03  0.25376457510E+03  0.00000000000E+00 0. -1.
        -12    1    6    6    0    0 -0.39358003015E+02 -0.48959129861E+02 -0.60467727165E+02  0.87191713061E+02  0.00000000000E+00 0.  1.
</event>
<event>
12    1  0.1348628E-002  0.1925192E+03  0.7818608E-02  0.1156209E+00
         -2   -1    0    0    0  501 -0.00000000000E+00  0.00000000000E+00  0.71700273279E+02  0.71700273279E+02  0.00000000000E+00 0. -1.
          2   -1    0    0  502    0  0.00000000000E+00 -0.00000000000E+00 -0.52235751374E+03  0.52235751374E+03  0.00000000000E+00 0.  1.
          6    2    1    2  502    0 -0.85111229240E+02  0.15287393064E+02 -0.25651604056E+03  0.32120315561E+03  0.17289697041E+03 0.  0.
         24    2    3    3    0    0 -0.53540301172E+02 -0.58317024905E+02 -0.14332472731E+03  0.18246348125E+03  0.80520216647E+02 0.  0.
         -6    2    1    2    0  501  0.85111229240E+02 -0.15287393064E+02 -0.19414119990E+03  0.27285463142E+03  0.17111755800E+03 0.  0.
        -24    2    5    5    0    0  0.37509359063E+02 -0.22757740227E+02 -0.18787652535E+02  0.90940638813E+02  0.77410316769E+02 0.  0.
          5    1    3    3  502    0 -0.31570928067E+02  0.73604417970E+02 -0.11319131325E+03  0.13873967435E+03  0.47000000000E+01 0. -1.
        -13    1    4    4    0    0  0.19221100371E+02 -0.26156021054E+01 -0.13818284280E+02  0.23816738951E+02  0.00000000000E+00 0.  1.
         14    1    4    4    0    0 -0.72761401543E+02 -0.55701422800E+02 -0.12950644303E+03  0.15864674230E+03  0.00000000000E+00 0. -1.
         -5    1    5    5    0  501  0.47601870176E+02  0.74703471626E+01 -0.17535354737E+03  0.18191399260E+03  0.47000000000E+01 0.  1.
         11    1    6    6    0    0 -0.23940810633E+02 -0.10361762951E+02 -0.27346936164E+01  0.26229889332E+02  0.00000000000E+00 0. -1.
        -12    1    6    6    0    0  0.61450169696E+02 -0.12395977276E+02 -0.16052958919E+02  0.64710749481E+02  0.00000000000E+00 0.  1.
</event>
<event>
12    1  0.1348628E-002  0.1834128E+03  0.7818608E-02  0.1164540E+00
         -1   -1    0    0    0  501 -0.00000000000E+00  0.00000000000E+00  0.17365118838E+03  0.17365118838E+03  0.00000000000E+00 0. -1.
          1   -1    0    0  502    0  0.00000000000E+00 -0.00000000000E+00 -0.28968874779E+03  0.28968874779E+03  0.00000000000E+00 0.  1.
          6    2    1    2  502    0 -0.23238512764E+02 -0.56978494574E+02  0.75628659563E+02  0.19700492226E+03  0.17118606231E+03 0.  0.
         24    2    3    3    0    0  0.19774791732E+02 -0.96037184899E+01  0.99720248578E+02  0.12847019797E+03  0.77956333890E+02 0.  0.
         -6    2    1    2    0  501  0.23238512764E+02  0.56978494574E+02 -0.19166621898E+03  0.26633501391E+03  0.17438985870E+03 0.  0.
        -24    2    5    5    0    0  0.68728896466E+02  0.69675085563E+01 -0.63747161341E+02  0.12157366189E+03  0.77098944877E+02 0.  0.
          5    1    3    3  502    0 -0.43013304496E+02 -0.47374776084E+02 -0.24091589015E+02  0.68534724293E+02  0.47000000000E+01 0. -1.
        -13    1    4    4    0    0 -0.16567645945E+02  0.24787309033E+02  0.27157325359E+02  0.40328871816E+02  0.00000000000E+00 0.  1.
         14    1    4    4    0    0  0.36342437677E+02 -0.34391027523E+02  0.72562923219E+02  0.88141326156E+02  0.00000000000E+00 0. -1.
         -5    1    5    5    0  501 -0.45490383702E+02  0.50010986017E+02 -0.12791905764E+03  0.14476135202E+03  0.47000000000E+01 0.  1.
         11    1    6    6    0    0  0.60994224679E+02 -0.17281621295E+02 -0.70925275207E+02  0.95128042878E+02  0.00000000000E+00 0. -1.
        -12    1    6    6    0    0  0.77346717870E+01  0.24249129851E+02  0.71781138656E+01  0.26445619011E+02  0.00000000000E+00 0.  1.
</event>
<event>
12    1  0.1348628E-002  0.2146508E+03  0.7818608E-02  0.1137935E+00
         -2   -1    0    0    0  501 -0.00000000000E+00  0.00000000000E+00  0.61263857606E+02  0.61263857606E+02  0.00000000000E+00 0. -1.
          2   -1    0    0  502    0  0.00000000000E+00 -0.00000000000E+00 -0.87603120480E+03  0.87603120480E+03  0.00000000000E+00 0.  1.
          6    2    1    2  502    0  0.11200055109E+03 -0.65259694591E+02 -0.23125975458E+03  0.31559344605E+03  0.17121681553E+03 0.  0.
         24    2    3    3    0    0  0.13811080809E+03 -0.74572331268E+02 -0.17636261055E+03  0.25391478568E+03  0.93452234243E+02 0.  0.
         -6    2    1    2    0  501 -0.11200055109E+03  0.65259694591E+02 -0.58350759261E+03  0.62170161635E+03  0.17096443477E+03 0.  0.
        -24    2    5    5    0    0  0.67911472113E+01  0.51925837862E+02 -0.25446111720E+03  0.27158316168E+03  0.79148854850E+02 0.  0.
          5    1    3    3  502    0 -0.26110257000E+02  0.93126366766E+01 -0.54897144030E+02  0.61678660371E+02  0.47000000000E+01 0. -1.
        -13    1    4    4    0    0  0.12535470810E+03 -0.28094209480E+02 -0.15466794326E+03  0.20106033950E+03  0.00000000000E+00 0.  1.
         14    1    4    4    0    0  0.12756099991E+02 -0.46478121788E+02 -0.21694667293E+02  0.52854446179E+02  0.00000000000E+00 0. -1.
         -5    1    5    5    0  501 -0.11879169830E+03  0.13333856730E+02 -0.32904647541E+03  0.35011845467E+03  0.47000000000E+01 0.  1.
         13    1    6    6    0    0  0.22444214286E+02  0.63455478841E+02 -0.13833022276E+03  0.15383624761E+03  0.00000000000E+00 0. -1.
        -14    1    6    6    0    0 -0.15653067074E+02 -0.11529640979E+02 -0.11613089444E+03  0.11774691407E+03  0.00000000000E+00 0.  1.
</event>
<event>
12    1  0.1348628E-002  0.2801005E+03  0.7818608E-02  0.1095634E+00
         -2   -1    0    0    0  501 -0.00000000000E+00  0.00000000000E+00  0.98490414434E+02  0.98490414434E+02  0.00000000000E+00 0.  1.
          2   -1    0    0  502    0  0.00000000000E+00 -0.00000000000E+00 -0.88855251390E+03  0.88855251390E+03  0.00000000000E+00 0. -1.
          6    2    1    2  502    0  0.15355932771E+03 -0.14906321598E+03 -0.56144703179E+03  0.63033294114E+03  0.19051650243E+03 0.  0.
         24    2    3    3    0    0  0.17991207314E+03 -0.16618064619E+03 -0.50114526280E+03  0.56217234437E+03  0.70048619667E+02 0.  0.
         -6    2    1    2    0  501 -0.15355932771E+03  0.14906321598E+03 -0.22861506768E+03  0.35670998719E+03  0.17081234239E+03 0.  0.
        -24    2    5    5    0    0 -0.72100908441E+02  0.15112669543E+03 -0.12117195232E+03  0.22178095009E+03  0.80413485953E+02 0.  0.
          5    1    3    3  502    0 -0.26352745430E+02  0.17117430216E+02 -0.60301768985E+02  0.68160596767E+02  0.47000000000E+01 0. -1.
        -11    1    4    4    0    0  0.38774892121E+02 -0.69748119607E+01 -0.52526673787E+02  0.65659665854E+02  0.00000000000E+00 0.  1.
         12    1    4    4    0    0  0.14113718101E+03 -0.15920583423E+03 -0.44861858901E+03  0.49651267852E+03  0.00000000000E+00 0. -1.
         -5    1    5    5    0  501 -0.81458419265E+02 -0.20634794567E+01 -0.10744311535E+03  0.13492903710E+03  0.47000000000E+01 0.  1.
         11    1    6    6    0    0 -0.22770766850E+02  0.86736552413E+02 -0.10671047701E+03  0.13938745729E+03  0.00000000000E+00 0. -1.
        -12    1    6    6    0    0 -0.49330141590E+02  0.64390143022E+02 -0.14461475319E+02  0.82393492801E+02  0.00000000000E+00 0.  1.
</event>
<event>
12    1  0.1348628E-002  0.1843420E+03  0.7818608E-02  0.1163666E+00
          1   -1    0    0  502    0  0.00000000000E+00  0.00000000000E+00  0.92004679258E+03  0.92004679258E+03  0.00000000000E+00 0.  1.
         -1   -1    0    0    0  501 -0.00000000000E+00 -0.00000000000E+00 -0.47970764654E+02  0.47970764654E+02  0.00000000000E+00 0. -1.
          6    2    1    2  502    0 -0.82867061797E+01 -0.67791283791E+02  0.20449919043E+03  0.27554517625E+03  0.17158350041E+03 0.  0.
         24    2    3    3    0    0 -0.62637015628E+02 -0.60360039204E+02  0.90517997282E+02  0.14896325841E+03  0.80186123890E+02 0.  0.
         -6    2    1    2    0  501  0.82867061797E+01  0.67791283791E+02  0.66757683750E+03  0.69247238099E+03  0.17086496659E+03 0.  0.
        -24    2    5    5    0    0  0.83078469292E+01  0.62865313375E+01  0.57843648338E+03  0.58407068472E+03  0.80257452275E+02 0.  0.
          5    1    3    3  502    0  0.54350309448E+02 -0.74312445874E+01  0.11398119315E+03  0.12658191784E+03  0.47000000000E+01 0. -1.
        -11    1    4    4    0    0 -0.34415594214E+02 -0.62513534165E+02  0.96515106684E+02  0.12003141629E+03  0.00000000000E+00 0.  1.
         12    1    4    4    0    0 -0.28221421413E+02  0.21534949606E+01 -0.59971094014E+01  0.28931842117E+02  0.00000000000E+00 0. -1.
         -5    1    5    5    0  501 -0.21140749489E-01  0.61504752454E+02  0.89140354119E+02  0.10840169627E+03  0.47000000000E+01 0.  1.
         11    1    6    6    0    0  0.24322701458E+02 -0.65956929560E+01  0.58120794023E+02  0.63349219961E+02  0.00000000000E+00 0. -1.
        -12    1    6    6    0    0 -0.16014854529E+02  0.12882224294E+02  0.52031568936E+03  0.52072146476E+03  0.00000000000E+00 0.  1.
</event>
<event>
12    1  0.1348628E-002  0.1943134E+03  0.7818608E-02  0.1154627E+00
          2   -1    0    0  502    0  0.00000000000E+00  0.00000000000E+00  0.36384383039E+04  0.36384383039E+04  0.00000000000E+00 0.  1.
         -2   -1    0    0    0  501 -0.00000000000E+00 -0.00000000000E+00 -0.11162740503E+02  0.11162740503E+02  0.00000000000E+00 0. -1.
          6    2    1    2  502    0  0.33155558837E+02  0.79860521651E+02  0.13086812980E+04  0.13226689638E+04  0.17125844291E+03 0.  0.
         24    2    3    3    0    0  0.38012527112E+02  0.32566179965E+02  0.34581283165E+03  0.35861599937E+03  0.80705713374E+02 0.  0.
         -6    2    1    2    0  501 -0.33155558837E+02 -0.79860521651E+02  0.23185942654E+04  0.23269320806E+04  0.17679520877E+03 0.  0.
        -24    2    5    5    0    0 -0.62422766005E+02 -0.77196592188E+02  0.10311710003E+04  0.10391648580E+04  0.81817202651E+02 0.  0.
          5    1    3    3  502    0 -0.48569682746E+01  0.47294341686E+02  0.96286846631E+03  0.96405296447E+03  0.47000000000E+01 0. -1.
        -13    1    4    4    0    0  0.31253249094E+02  0.40948535974E+02  0.34382935553E+03  0.34766675697E+03  0.00000000000E+00 0.  1.
         14    1    4    4    0    0  0.67592780176E+01 -0.83823560087E+01  0.19834761243E+01  0.10949242399E+02  0.00000000000E+00 0. -1.
         -5    1    5    5    0  501  0.29267207168E+02 -0.26639294627E+01  0.12874232652E+04  0.12877672226E+04  0.47000000000E+01 0.  1.
         11    1    6    6    0    0  0.14709409697E+02 -0.40594369449E+02  0.36527475272E+03  0.36781777355E+03  0.00000000000E+00 0. -1.
        -12    1    6    6    0    0 -0.77132175702E+02 -0.36602222739E+02  0.66589624756E+03  0.67134708441E+03  0.00000000000E+00 0.  1.
</event>
<event>
12    1  0.1348628E-002  0.2447266E+03  0.7818608E-02  0.1116684E+00
          1   -1    0    0  502    0  0.00000000000E+00  0.00000000000E+00  0.63581396705E+03  0.63581396705E+03  0.00000000000E+00 0.  1.
         -1   -1    0    0    0  501 -0.00000000000E+00 -0.00000000000E+00 -0.10004825790E+03  0.10004825790E+03  0.00000000000E+00 0. -1.
          6    2    1    2  502    0  0.10122376077E+03 -0.14209839613E+03  0.17859382423E+03  0.30272595550E+03  0.17119884973E+03 0.  0.
         24    2    3    3    0    0  0.13759651867E+03 -0.10213804129E+03  0.12459315158E+03  0.22618857820E+03  0.79201250379E+02 0.  0.
         -6    2    1    2    0  501 -0.10122376077E+03  0.14209839613E+03  0.35717188493E+03  0.43313626945E+03  0.17203798594E+03 0.  0.
        -24    2    5    5    0    0 -0.39636860154E+02  0.13278943556E+03  0.15983064439E+03  0.22614530760E+03  0.79948423268E+02 0.  0.
          5    1    3    3  502    0 -0.36372757895E+02 -0.39960354841E+02  0.54000672651E+02  0.76537377292E+02  0.47000000000E+01 0. -1.
        -13    1    4    4    0    0  0.71311044814E+02 -0.88752285340E+02  0.10716806530E+03  0.15635609194E+03  0.00000000000E+00 0.  1.
         14    1    4    4    0    0  0.66285473853E+02 -0.13385755950E+02  0.17425086276E+02  0.69832486266E+02  0.00000000000E+00 0. -1.
         -5    1    5    5    0  501 -0.61586900618E+02  0.93089605750E+01  0.19734124053E+03  0.20699096185E+03  0.47000000000E+01 0.  1.
         11    1    6    6    0    0 -0.20451888788E+02  0.68855924537E+02  0.25637122748E+02  0.76267163063E+02  0.00000000000E+00 0. -1.
        -12    1    6    6    0    0 -0.19184971366E+02  0.63933511019E+02  0.13419352165E+03  0.14987814454E+03  0.00000000000E+00 0.  1.
</event>
<event>
12    1  0.1348628E-002  0.2263362E+03  0.7818608E-02  0.1129245E+00
          2   -1    0    0  502    0  0.00000000000E+00  0.00000000000E+00  0.24836543013E+04  0.24836543013E+04  0.00000000000E+00 0.  1.
         -2   -1    0    0    0  501 -0.00000000000E+00 -0.00000000000E+00 -0.21179693190E+02  0.21179693190E+02  0.00000000000E+00 0. -1.
          6    2    1    2  502    0  0.14231923781E+03  0.36438548984E+02  0.14348564392E+04  0.14526316278E+04  0.17246191378E+03 0.  0.
         24    2    3    3    0    0  0.46438237585E+02  0.46394662605E+02  0.45065992405E+03  0.46371446200E+03  0.87337051109E+02 0.  0.
         -6    2    1    2    0  501 -0.14231923781E+03 -0.36438548984E+02  0.10276181689E+04  0.10522023667E+04  0.17189585820E+03 0.  0.
        -24    2    5    5    0    0 -0.85084586984E+02  0.45883703450E+02  0.55158829519E+03  0.56570540967E+03  0.80176442661E+02 0.  0.
          5    1    3    3  502    0  0.95881000225E+02 -0.99561136204E+01  0.98419651516E+03  0.98891716582E+03  0.47000000000E+01 0. -1.
        -11    1    4    4    0    0 -0.47126872287E+01  0.29461942481E+02  0.33265700412E+03  0.33399236199E+03  0.00000000000E+00 0.  1.
         12    1    4    4    0    0  0.51150924814E+02  0.16932720124E+02  0.11800291993E+03  0.12972210001E+03  0.00000000000E+00 0. -1.
         -5    1    5    5    0  501 -0.57234650826E+02 -0.82322252435E+02  0.47602987375E+03  0.48649695704E+03  0.47000000000E+01 0.  1.
         13    1    6    6    0    0 -0.50160494714E+02 -0.26326032062E+01  0.12136183622E+03  0.13134573126E+03  0.00000000000E+00 0. -1.
        -14    1    6    6    0    0 -0.34924092270E+02  0.48516306656E+02  0.43022645897E+03  0.43435967841E+03  0.00000000000E+00 0.  1.
</event>
<event>
12    1  0.1348628E-002  0.1841135E+03  0.7818608E-02  0.1163880E+00
          1   -1    0    0  502    0  0.00000000000E+00  0.00000000000E+00  0.44428871569E+03  0.44428871569E+03  0.00000000000E+00 0.  1.
         -1   -1    0    0    0  501 -0.00000000000E+00 -0.00000000000E+00 -0.82904935740E+02  0.82904935740E+02  0.00000000000E+00 0. -1.
          6    2    1    2  502    0  0.20851789083E+01 -0.66705341986E+02  0.25430316797E+03  0.31343909760E+03  0.17064587907E+03 0.  0.
         24    2    3    3    0    0  0.17026422884E+02 -0.67534180803E+01  0.23042982595E+03  0.24703502837E+03  0.87137206867E+02 0.  0.
         -6    2    1    2    0  501 -0.20851789083E+01  0.66705341986E+02  0.10708061198E+03  0.21375455383E+03  0.17254217224E+03 0.  0.
        -24    2    5    5    0    0 -0.17781645665E+02 -0.29189568328E+02  0.64589543049E+02  0.10759526864E+03  0.78972874715E+02 0.  0.
          5    1    3    3  502    0 -0.14941243976E+02 -0.59951923905E+02  0.23873342015E+02  0.66404069231E+02  0.47000000000E+01 0. -1.
        -11    1    4    4    0    0 -0.21492731662E+02  0.61978150245E+01  0.18390807572E+03  0.18526340907E+03  0.00000000000E+00 0.  1.
         12    1    4    4    0    0  0.38519154546E+02 -0.12951233105E+02  0.46521750228E+02  0.61771619294E+02  0.00000000000E+00 0. -1.
         -5    1    5    5    0  501  0.15696466756E+02  0.95894910314E+02  0.42491068933E+02  0.10615928519E+03  0.47000000000E+01 0.  1.
         11    1    6    6    0    0 -0.36845654758E+02  0.36557376091E+01  0.56137038249E+01  0.37449704440E+02  0.00000000000E+00 0. -1.
        -12    1    6    6    0    0  0.19064009093E+02 -0.32845305937E+02  0.58975839224E+02  0.70145564200E+02  0.00000000000E+00 0.  1.
</event>
<event>
12    1  0.1348628E-002  0.2419706E+03  0.7818608E-02  0.1118487E+00
         -2   -1    0    0    0  501 -0.00000000000E+00  0.00000000000E+00  0.37585947240E+02  0.37585947240E+02  0.00000000000E+00 0. -1.
          2   -1    0    0  502    0  0.00000000000E+00 -0.00000000000E+00 -0.18079739395E+04  0.18079739395E+04  0.00000000000E+00 0.  1.
          6    2    1    2  502    0 -0.31339210575E+02  0.16726200096E+03 -0.54165760680E+03  0.59321564073E+03  0.17191018098E+03 0.  0.
         24    2    3    3    0    0 -0.29695777881E+02  0.96743959410E+02 -0.48756874993E+03  0.50420334107E+03  0.79097979304E+02 0.  0.
         -6    2    1    2    0  501  0.31339210575E+02 -0.16726200096E+03 -0.12287303855E+04  0.12523442460E+04  0.17213084345E+03 0.  0.
        -24    2    5    5    0    0 -0.22785889865E+01 -0.65999941667E+02 -0.43125866469E+03  0.44775279904E+03  0.10068440253E+03 0.  0.
          5    1    3    3  502    0 -0.16434326946E+01  0.70518041546E+02 -0.54088856868E+02  0.89012299666E+02  0.47000000000E+01 0. -1.
        -11    1    4    4    0    0 -0.32355370838E+02  0.90216231273E+02 -0.26975187457E+03  0.28627244408E+03  0.00000000000E+00 0.  1.
         12    1    4    4    0    0  0.26595929576E+01  0.65277281373E+01 -0.21781687536E+03  0.21793089699E+03  0.00000000000E+00 0. -1.
         -5    1    5    5    0  501  0.33617799562E+02 -0.10126205929E+03 -0.79747172080E+03  0.80459144700E+03  0.47000000000E+01 0.  1.
         11    1    6    6    0    0  0.18950936954E+01 -0.41531888990E+01  0.51969618139E+01  0.69172805524E+01  0.00000000000E+00 0. -1.
        -12    1    6    6    0    0 -0.41736826818E+01 -0.61846752768E+02 -0.43645562651E+03  0.44083551849E+03  0.00000000000E+00 0.  1.
</event>
<event>
12    1  0.1348628E-002  0.2488082E+03  0.7818608E-02  0.1114060E+00
          2   -1    0    0  502    0  0.00000000000E+00  0.00000000000E+00  0.22136726911E+04  0.22136726911E+04  0.00000000000E+00 0.  1.
         -2   -1    0    0    0  501 -0.00000000000E+00 -0.00000000000E+00 -0.44875583065E+02  0.44875583065E+02  0.00000000000E+00 0. -1.
          6    2    1    2  502    0 -0.16432906687E+03  0.75954219819E+02  0.39584021190E+03  0.46845339412E+03  0.17316472902E+03 0.  0.
         24    2    3    3    0    0 -0.34038586695E+02  0.53275025999E+02  0.26240888747E+03  0.28052797435E+03  0.76424252623E+02 0.  0.
         -6    2    1    2    0  501  0.16432906687E+03 -0.75954219819E+02  0.17729568962E+04  0.17900948801E+04  0.16819761678E+03 0.  0.
        -24    2    5    5    0    0  0.19703802323E+02 -0.41270590843E+02  0.88874309841E+03  0.89344804246E+03  0.79332264000E+02 0.  0.
          5    1    3    3  502    0 -0.13029048018E+03  0.22679193820E+02  0.13343132444E+03  0.18792541978E+03  0.47000000000E+01 0. -1.
        -13    1    4    4    0    0 -0.53351352382E+02  0.51507619803E+02  0.16068536703E+03  0.17697228280E+03  0.00000000000E+00 0.  1.
         14    1    4    4    0    0  0.19312765687E+02  0.17674061964E+01  0.10172352043E+03  0.10355569155E+03  0.00000000000E+00 0. -1.
         -5    1    5    5    0  501  0.14462526455E+03 -0.34683628976E+02  0.88421379774E+03  0.89664683760E+03  0.47000000000E+01 0.  1.
         11    1    6    6    0    0  0.13783188573E+02  0.14635270778E+02  0.52512395634E+03  0.52550864594E+03  0.00000000000E+00 0. -1.
        -12    1    6    6    0    0  0.59206137506E+01 -0.55905861621E+02  0.36361914207E+03  0.36793939652E+03  0.00000000000E+00 0.  1.
</event>
<event>
12    1  0.1348628E-002  0.2196296E+03  0.7818608E-02  0.1134160E+00
          1   -1    0    0  502    0  0.00000000000E+00  0.00000000000E+00  0.45941468192E+03  0.45941468192E+03  0.00000000000E+00 0. -1.
         -1   -1    0    0    0  501 -0.00000000000E+00 -0.00000000000E+00 -0.13917730714E+03  0.13917730714E+03  0.00000000000E+00 0.  1.
          6    2    1    2  502    0 -0.12308474739E+03 -0.54385190817E+02  0.12044324210E+02  0.22040708319E+03  0.17414537765E+03 0.  0.
         24    2    3    3    0    0 -0.15649639325E+03 -0.46263347244E+02  0.27286666333E+02  0.18250297503E+03  0.77015292895E+02 0.  0.
         -6    2    1    2    0  501  0.12308474739E+03  0.54385190817E+02  0.30819305057E+03  0.37818490587E+03  0.17301231918E+03 0.  0.
        -24    2    5    5    0    0  0.31857120848E+02  0.90270299719E+02  0.15382138751E+03  0.19525617319E+03  0.72803507822E+02 0.  0.
          5    1    3    3  502    0  0.33411645859E+02 -0.81218435730E+01 -0.15242342123E+02  0.37904108160E+02  0.47000000000E+01 0. -1.
        -13    1    4    4    0    0 -0.95416291960E+01 -0.28902424780E+02  0.15233924201E+02  0.34036234992E+02  0.00000000000E+00 0.  1.
         14    1    4    4    0    0 -0.14695476405E+03 -0.17360922463E+02  0.12052742132E+02  0.14846674004E+03  0.00000000000E+00 0. -1.
         -5    1    5    5    0  501  0.91227626540E+02 -0.35885108902E+02  0.15437166306E+03  0.18292873268E+03  0.47000000000E+01 0.  1.
         11    1    6    6    0    0 -0.89105717672E+01  0.14719093724E+01  0.56963129899E+02  0.57674630248E+02  0.00000000000E+00 0. -1.
        -12    1    6    6    0    0  0.40767692615E+02  0.88798390347E+02  0.96858257613E+02  0.13758154294E+03  0.00000000000E+00 0.  1.
</event>
<event>
12    1  0.1348628E-002  0.1730928E+03  0.7818608E-02  0.1174660E+00
         -1   -1    0    0    0  501 -0.00000000000E+00  0.00000000000E+00  0.73689967006E+02  0.73689967006E+02  0.00000000000E+00 0.  1.
          1   -1    0    0  502    0  0.00000000000E+00 -0.00000000000E+00 -0.41147150272E+03  0.41147150272E+03  0.00000000000E+00 0. -1.
          6    2    1    2  502    0  0.16898405351E+02 -0.14577238876E+02 -0.19541331594E+03  0.26110815382E+03  0.17173541261E+03 0.  0.
         24    2    3    3    0    0  0.65608861797E+02 -0.55716730387E+01 -0.18378025110E+03  0.21000798766E+03  0.77411936430E+02 0.  0.
         -6    2    1    2    0  501 -0.16898405351E+02  0.14577238876E+02 -0.14236821977E+03  0.22405331591E+03  0.17156085326E+03 0.  0.
        -24    2    5    5    0    0 -0.67176212981E+02  0.44798769690E+02 -0.10393691752E+03  0.15376637646E+03  0.79508756429E+02 0.  0.
          5    1    3    3  502    0 -0.48710456445E+02 -0.90055658369E+01 -0.11633064843E+02  0.51100166152E+02  0.47000000000E+01 0. -1.
        -13    1    4    4    0    0  0.61261928862E+02 -0.27331093834E+02 -0.82526915726E+02  0.10635179565E+03  0.00000000000E+00 0.  1.
         14    1    4    4    0    0  0.43469329349E+01  0.21759420796E+02 -0.10125333537E+03  0.10365619202E+03  0.00000000000E+00 0. -1.
         -5    1    5    5    0  501  0.50277807629E+02 -0.30221530814E+02 -0.38431302248E+02  0.70286939450E+02  0.47000000000E+01 0.  1.
         13    1    6    6    0    0  0.23284640158E+01 -0.55819947419E+01 -0.54237877369E+02  0.54574057495E+02  0.00000000000E+00 0. -1.
        -14    1    6    6    0    0 -0.69504676996E+02  0.50380764432E+02 -0.49699040154E+02  0.99192318963E+02  0.00000000000E+00 0.  1.
</event>
<event>
12    1  0.1348628E-002  0.2112903E+03  0.7818608E-02  0.1140548E+00
         -2   -1    0    0    0  501 -0.00000000000E+00  0.00000000000E+00  0.39400122455E+02  0.39400122455E+02  0.00000000000E+00 0.  1.
          2   -1    0    0  502    0  0.00000000000E+00 -0.00000000000E+00 -0.14036807864E+04  0.14036807864E+04  0.00000000000E+00 0. -1.
          6    2    1    2  502    0 -0.11652459561E+03  0.34216228614E+01 -0.37603426953E+03  0.43331961417E+03  0.18103708814E+03 0.  0.
         24    2    3    3    0    0 -0.76250891374E+02 -0.96018446553E+01 -0.37461888704E+03  0.39070887296E+03  0.80048229351E+02 0.  0.
         -6    2    1    2    0  501  0.11652459561E+03 -0.34216228614E+01 -0.98824639446E+03  0.10097612947E+04  0.17145625470E+03 0.  0.
        -24    2    5    5    0    0  0.44912702369E+02 -0.65802463258E+02 -0.54694343763E+03  0.55833021226E+03  0.78983460034E+02 0.  0.
          5    1    3    3  502    0 -0.40273704241E+02  0.13023467517E+02 -0.14153824865E+01  0.42610741216E+02  0.47000000000E+01 0. -1.
        -11    1    4    4    0    0  0.27513942036E+01 -0.12792817340E+02 -0.73147455982E+01  0.14991058959E+02  0.00000000000E+00 0.  1.
         12    1    4    4    0    0 -0.79002285577E+02  0.31909726845E+01 -0.36730414144E+03  0.37571781400E+03  0.00000000000E+00 0. -1.
         -5    1    5    5    0  501  0.71611893245E+02  0.62380840396E+02 -0.44130295683E+03  0.45143108246E+03  0.47000000000E+01 0.  1.
         11    1    6    6    0    0  0.55044247378E+01  0.75164855051E+01 -0.24346870277E+03  0.24364688686E+03  0.00000000000E+00 0. -1.
        -12    1    6    6    0    0  0.39408277631E+02 -0.73318948763E+02 -0.30347473485E+03  0.31468332541E+03  0.00000000000E+00 0.  1.
</event>
<event>
12    1  0.1348628E-002  0.3734955E+03  0.7818608E-02  0.1053364E+00
          2   -1    0    0  502    0  0.00000000000E+00  0.00000000000E+00  0.14715646853E+04  0.14715646853E+04  0.00000000000E+00 0. -1.
         -2   -1    0    0    0  501 -0.00000000000E+00 -0.00000000000E+00 -0.95389089822E+02  0.95389089822E+02  0.00000000000E+00 0.  1.
          6    2    1    2  502    0  0.24297689563E+03  0.22492878550E+03  0.62656294179E+03  0.72950477343E+03  0.17310506656E+03 0.  0.
         24    2    3    3    0    0  0.17459517505E+03  0.19508092138E+03  0.58008578590E+03  0.64147539923E+03  0.80318912926E+02 0.  0.
         -6    2    1    2    0  501 -0.24297689563E+03 -0.22492878550E+03  0.74961265366E+03  0.83744900167E+03  0.17254265998E+03 0.  0.
        -24    2    5    5    0    0 -0.20589194089E+03 -0.24300742616E+03  0.69841253401E+03  0.77152728015E+03  0.77654206969E+02 0.  0.
          5    1    3    3  502    0  0.68381720579E+02  0.29847864120E+02  0.46477155890E+02  0.88029374197E+02  0.47000000000E+01 0. -1.
        -13    1    4    4    0    0  0.10279023907E+03  0.78493556820E+02  0.20727989811E+03  0.24431952004E+03  0.00000000000E+00 0.  1.
         14    1    4    4    0    0  0.71804935985E+02  0.11658736456E+03  0.37280588779E+03  0.39715587919E+03  0.00000000000E+00 0. -1.
         -5    1    5    5    0  501 -0.37084954742E+02  0.18078640658E+02  0.51200119653E+02  0.65921721524E+02  0.47000000000E+01 0.  1.
         13    1    6    6    0    0 -0.66142238601E+02 -0.13234061740E+03  0.35524583181E+03  0.38482260297E+03  0.00000000000E+00 0. -1.
        -14    1    6    6    0    0 -0.13974970229E+03 -0.11066680876E+03  0.34316670220E+03  0.38670467717E+03  0.00000000000E+00 0.  1.
</event>
<event>
12    1  0.1348628E-002  0.2423577E+03  0.7818608E-02  0.1118232E+00
         -1   -1    0    0    0  501 -0.00000000000E+00  0.00000000000E+00  0.92517264235E+02  0.92517264235E+02  0.00000000000E+00 0. -1.
          1   -1    0    0  502    0  0.00000000000E+00 -0.00000000000E+00 -0.71464047559E+03  0.71464047559E+03  0.00000000000E+00 0.  1.
          6    2    1    2  502    0 -0.11348295489E+03  0.12585568298E+03 -0.17531167211E+03  0.29845958604E+03  0.17212178285E+03 0.  0.
         24    2    3    3    0    0 -0.99686678866E+02  0.14043888961E+03 -0.19344444199E+03  0.27100244687E+03  0.79756243737E+02 0.  0.
         -6    2    1    2    0  501  0.11348295489E+03 -0.12585568298E+03 -0.44681153925E+03  0.50869815379E+03  0.17439961603E+03 0.  0.
        -24    2    5    5    0    0  0.14245461359E+03 -0.64372593985E+02 -0.33652174798E+03  0.37906229726E+03  0.77486712082E+02 0.  0.
          5    1    3    3  502    0 -0.13796276023E+02 -0.14583206630E+02  0.18132769881E+02  0.27457139167E+02  0.47000000000E+01 0. -1.
        -11    1    4    4    0    0 -0.71830057801E+02  0.34856712160E+02 -0.93771464565E+02  0.12315695333E+03  0.00000000000E+00 0.  1.
         12    1    4    4    0    0 -0.27856621065E+02  0.10558217745E+03 -0.99672977423E+02  0.14784549354E+03  0.00000000000E+00 0. -1.
         -5    1    5    5    0  501 -0.28971658701E+02 -0.61483088996E+02 -0.11028979127E+03  0.12963585653E+03  0.47000000000E+01 0.  1.
         11    1    6    6    0    0  0.70556012435E+02 -0.35463203309E+01 -0.20842226300E+03  0.22006945947E+03  0.00000000000E+00 0. -1.
        -12    1    6    6    0    0  0.71898601154E+02 -0.60826273654E+02 -0.12809948498E+03  0.15899283778E+03  0.00000000000E+00 0.  1.
</event>
<event>
12    1  0.1348628E-002  0.3031602E+03  0.7818608E-02  0.1083671E+00
          1   -1    0    0  502    0  0.00000000000E+00  0.00000000000E+00  0.51949536397E+03  0.51949536397E+03  0.00000000000E+00 0.  1.
         -1   -1    0    0    0  501 -0.00000000000E+00 -0.00000000000E+00 -0.18813650559E+03  0.18813650559E+03  0.00000000000E+00 0. -1.
          6    2    1    2  502    0  0.24319298815E+03 -0.48743577869E+02  0.78802511826E+02  0.31235076717E+03  0.17272637324E+03 0.  0.
         24    2    3    3    0    0  0.62548695797E+02 -0.14164735681E+02  0.77611138697E+02  0.12836281632E+03  0.79627537208E+02 0.  0.
         -6    2    1    2    0  501 -0.24319298815E+03  0.48743577869E+02  0.25255634656E+03  0.39528110239E+03  0.17590814606E+03 0.  0.
        -24    2    5    5    0    0 -0.57963801750E+02 -0.13426494152E+02  0.61047258358E+02  0.12165217444E+03  0.86789462112E+02 0.  0.
          5    1    3    3  502    0  0.18064429235E+03 -0.34578842188E+02  0.11913731293E+01  0.18398795085E+03  0.47000000000E+01 0. -1.
        -13    1    4    4    0    0 -0.11415402776E+02  0.17058323761E+02  0.25129681813E+02  0.32446860220E+02  0.00000000000E+00 0.  1.
         14    1    4    4    0    0  0.73964098573E+02 -0.31223059443E+02  0.52481456884E+02  0.95915956104E+02  0.00000000000E+00 0. -1.
         -5    1    5    5    0  501 -0.18522918640E+03  0.62170072021E+02  0.19150908820E+03  0.27362892795E+03  0.47000000000E+01 0.  1.
         11    1    6    6    0    0 -0.14471310532E+02  0.34467036062E+02  0.37102147860E+02  0.52668441967E+02  0.00000000000E+00 0. -1.
        -12    1    6    6    0    0 -0.43492491219E+02 -0.47893530214E+02  0.23945110498E+02  0.68983732470E+02  0.00000000000E+00 0.  1.
</event>
<event>
12    1  0.1348628E-002  0.1745474E+03  0.7818608E-02  0.1173187E+00
         -3   -1    0    0    0  501 -0.00000000000E+00  0.00000000000E+00  0.51155160053E+03  0.51155160053E+03  0.00000000000E+00 0.  1.
          3   -1    0    0  502    0  0.00000000000E+00 -0.00000000000E+00 -0.62519181975E+02  0.62519181975E+02  0.00000000000E+00 0. -1.
          6    2    1    2  502    0  0.80599020530E+01 -0.30123066072E+02  0.28777847599E+03  0.33691483372E+03  0.17240299535E+03 0.  0.
         24    2    3    3    0    0 -0.65314933497E+02 -0.21232426730E+02  0.14575758818E+03  0.17674326155E+03  0.72636419966E+02 0.  0.
         -6    2    1    2    0  501 -0.80599020530E+01  0.30123066072E+02  0.16125394256E+03  0.23715594878E+03  0.17107819534E+03 0.  0.
        -24    2    5    5    0    0 -0.40765230795E+02  0.28709380786E+01  0.20246726384E+02  0.89787559966E+02  0.77342289002E+02 0.  0.
          5    1    3    3  502    0  0.73374835550E+02 -0.88906393413E+01  0.14202088781E+03  0.16017157218E+03  0.47000000000E+01 0. -1.
        -11    1    4    4    0    0 -0.27390277600E+02 -0.36977285648E+02  0.11936995197E+03  0.12793253063E+03  0.00000000000E+00 0.  1.
         12    1    4    4    0    0 -0.37924655897E+02  0.15744858917E+02  0.26387636217E+02  0.48810730914E+02  0.00000000000E+00 0. -1.
         -5    1    5    5    0  501  0.32705328742E+02  0.27252127993E+02  0.14100721617E+03  0.14736838881E+03  0.47000000000E+01 0.  1.
         11    1    6    6    0    0 -0.75376846676E+01  0.38103671106E+02  0.59747889990E+01  0.39298912777E+02  0.00000000000E+00 0. -1.
        -12    1    6    6    0    0 -0.33227546128E+02 -0.35232733027E+02  0.14271937385E+02  0.50488647189E+02  0.00000000000E+00 0.  1.
</event>
<event>
12    1  0.1348628E-002  0.1860998E+03  0.7818608E-02  0.1162027E+00
         -3   -1    0    0    0  501 -0.00000000000E+00  0.00000000000E+00  0.20673767660E+03  0.20673767660E+03  0.00000000000E+00 0.  1.
          3   -1    0    0  502    0  0.00000000000E+00 -0.00000000000E+00 -0.17021865594E+03  0.17021865594E+03  0.00000000000E+00 0. -1.
          6    2    1    2  502    0 -0.18914472999E+02  0.66963688728E+02 -0.53221920500E+01  0.18733405415E+03  0.17385001932E+03 0.  0.
         24    2    3    3    0    0 -0.56339776530E+02  0.10936713594E+02 -0.46945716541E+02  0.10799753621E+03  0.78522515259E+02 0.  0.
         -6    2    1    2    0  501  0.18914472999E+02 -0.66963688728E+02  0.41841212708E+02  0.18962227839E+03  0.17135935482E+03 0.  0.
        -24    2    5    5    0    0 -0.52154028635E+02 -0.23393659557E+02  0.96075635877E+01  0.10012268341E+03  0.81639086503E+02 0.  0.
          5    1    3    3  502    0  0.37425303531E+02  0.56026975134E+02  0.41623524491E+02  0.79336517935E+02  0.47000000000E+01 0. -1.
        -13    1    4    4    0    0  0.90652748760E+01 -0.21222626874E+02 -0.40584666701E+01  0.23431821349E+02  0.00000000000E+00 0.  1.
         14    1    4    4    0    0 -0.65405051406E+02  0.32159340468E+02 -0.42887249871E+02  0.84565714863E+02  0.00000000000E+00 0. -1.
         -5    1    5    5    0  501  0.71068501634E+02 -0.43570029171E+02  0.32233649120E+02  0.89499594982E+02  0.47000000000E+01 0.  1.
         13    1    6    6    0    0  0.20993759909E+02 -0.12133264984E+02  0.96925475449E+01  0.26113206471E+02  0.00000000000E+00 0. -1.
        -14    1    6    6    0    0 -0.73147788544E+02 -0.11260394573E+02 -0.84983957190E-01  0.74009476941E+02  0.00000000000E+00 0.  1.
</event>
<event>
12    1  0.1348628E-002  0.1872661E+03  0.7818608E-02  0.1160950E+00
          4   -1    0    0  502    0  0.00000000000E+00  0.00000000000E+00  0.24706511303E+03  0.24706511303E+03  0.00000000000E+00 0.  1.
         -4   -1    0    0    0  501 -0.00000000000E+00 -0.00000000000E+00 -0.16170921505E+03  0.16170921505E+03  0.00000000000E+00 0. -1.
          6    2    1    2  502    0  0.26245109683E+02  0.65326212404E+02 -0.28994234876E+02  0.18841140870E+03  0.17234231478E+03 0.  0.
         24    2    3    3    0    0 -0.70324909941E+01  0.21992770887E+02  0.46639075401E+02  0.94989390507E+02  0.79464728363E+02 0.  0.
         -6    2    1    2    0  501 -0.26245109683E+02 -0.65326212404E+02  0.11435013285E+03  0.22036291938E+03  0.17472133111E+03 0.  0.
        -24    2    5    5    0    0 -0.62781584057E+02 -0.51831228243E+02  0.17736958155E+02  0.11608816653E+03  0.80832290612E+02 0.  0.
          5    1    3    3  502    0  0.33277600677E+02  0.43333441516E+02 -0.75633310276E+02  0.93422018196E+02  0.47000000000E+01 0. -1.
        -13    1    4    4    0    0 -0.12912802036E+02  0.44086466419E+02  0.33830959902E+01  0.46063025478E+02  0.00000000000E+00 0.  1.
         14    1    4    4    0    0  0.58803110418E+01 -0.22093695532E+02  0.43255979410E+02  0.48926365029E+02  0.00000000000E+00 0. -1.
         -5    1    5    5    0  501  0.36536474374E+02 -0.13494984161E+02  0.96613174699E+02  0.10427475285E+03  0.47000000000E+01 0.  1.
         11    1    6    6    0    0  0.11642595956E+02 -0.20192400141E+02 -0.16200645465E+02  0.28385629771E+02  0.00000000000E+00 0. -1.
        -12    1    6    6    0    0 -0.74424180013E+02 -0.31638828101E+02  0.33937603620E+02  0.87702536757E+02  0.00000000000E+00 0.  1.
</event>
<event>
12    1  0.1348628E-002  0.2077507E+03  0.7818608E-02  0.1143360E+00
         -2   -1    0    0    0  501 -0.00000000000E+00  0.00000000000E+00  0.50165669505E+03  0.50165669505E+03  0.00000000000E+00 0.  1.
          2   -1    0    0  502    0  0.00000000000E+00 -0.00000000000E+00 -0.93325889159E+02  0.93325889159E+02  0.00000000000E+00 0. -1.
          6    2    1    2  502    0  0.11376514992E+03  0.34489089144E+02  0.12111968830E+03  0.24057547332E+03  0.17051267655E+03 0.  0.
         24    2    3    3    0    0  0.15398969360E+02  0.65620080923E+02  0.59807330724E+02  0.12046577630E+03  0.79949754061E+02 0.  0.
         -6    2    1    2    0  501 -0.11376514992E+03 -0.34489089144E+02  0.28721111759E+03  0.35440711089E+03  0.17024149779E+03 0.  0.
        -24    2    5    5    0    0 -0.14843275668E+03 -0.35613330018E+02  0.24718226012E+03  0.30123280970E+03  0.79633808100E+02 0.  0.
          5    1    3    3  502    0  0.98366180558E+02 -0.31130991779E+02  0.61312357574E+02  0.12010969702E+03  0.47000000000E+01 0. -1.
        -11    1    4    4    0    0 -0.17262608871E+02 -0.11546517661E+02  0.11267056740E+02  0.23627659696E+02  0.00000000000E+00 0.  1.
         12    1    4    4    0    0  0.32661578231E+02  0.77166598584E+02  0.48540273984E+02  0.96838116607E+02  0.00000000000E+00 0. -1.
         -5    1    5    5    0  501  0.34667606758E+02  0.11242408748E+01  0.40028857478E+02  0.53174301188E+02  0.47000000000E+01 0.  1.
         13    1    6    6    0    0 -0.25838610738E+02  0.94239936469E+01  0.78804093039E+01  0.28610248372E+02  0.00000000000E+00 0. -1.
        -14    1    6    6    0    0 -0.12259414594E+03 -0.45037323665E+02  0.23930185081E+03  0.27262256133E+03  0.00000000000E+00 0.  1.
</event>
<event>
12    1  0.1348628E-002  0.2537083E+03  0.7818608E-02  0.1110983E+00
          1   -1    0    0  502    0  0.00000000000E+00  0.00000000000E+00  0.69160262252E+02  0.69160262252E+02  0.00000000000E+00 0. -1.
         -1   -1    0    0    0  501 -0.00000000000E+00 -0.00000000000E+00 -0.11656423026E+04  0.11656423026E+04  0.00000000000E+00 0.  1.
          6    2    1    2  502    0 -0.17193513140E+03  0.75527657412E+02 -0.82717068890E+03  0.86550535703E+03  0.17211059826E+03 0.  0.
         24    2    3    3    0    0 -0.84409056218E+02 -0.87904667587E+01 -0.56404383139E+03  0.57562918856E+03  0.77468431797E+02 0.  0.
         -6    2    1    2    0  501  0.17193513140E+03 -0.75527657412E+02 -0.26931135146E+03  0.36929720783E+03  0.16907308255E+03 0.  0.
        -24    2    5    5    0    0  0.10856182127E+03 -0.77942811683E+02 -0.95099661089E+02  0.18384151914E+03  0.83024139196E+02 0.  0.
          5    1    3    3  502    0 -0.87526075184E+02  0.84318124170E+02 -0.26312685751E+03  0.28987616847E+03  0.47000000000E+01 0. -1.
        -11    1    4    4    0    0 -0.69213527126E+02  0.28141548710E+02 -0.38545248520E+03  0.39262714813E+03  0.00000000000E+00 0.  1.
         12    1    4    4    0    0 -0.15195529092E+02 -0.36932015468E+02 -0.17859134619E+03  0.18300204044E+03  0.00000000000E+00 0. -1.
         -5    1    5    5    0  501  0.63373310134E+02  0.24151542715E+01 -0.17421169037E+03  0.18545568869E+03  0.47000000000E+01 0.  1.
         13    1    6    6    0    0  0.19436782700E+01 -0.44324988009E+02 -0.17201338348E+02  0.47585381034E+02  0.00000000000E+00 0. -1.
        -14    1    6    6    0    0  0.10661814300E+03 -0.33617823675E+02 -0.77898322742E+02  0.13625613810E+03  0.00000000000E+00 0.  1.
</event>
<event>
12    1  0.1348628E-002  0.2310311E+03  0.7818608E-02  0.1125916E+00
          1   -1    0    0  502    0  0.00000000000E+00  0.00000000000E+00  0.29700194243E+03  0.29700194243E+03  0.00000000000E+00 0. -1.
         -1   -1    0    0    0  501 -0.00000000000E+00 -0.00000000000E+00 -0.21264451066E+03  0.21264451066E+03  0.00000000000E+00 0.  1.
          6    2    1    2  502    0 -0.88822166552E+02 -0.12533054707E+03 -0.58174584287E+02  0.23777067563E+03  0.17191128128E+03 0.  0.
         24    2    3    3    0    0 -0.55398201217E+02 -0.85487156662E+01 -0.59417776907E+02  0.11620261596E+03  0.82647047768E+02 0.  0.
         -6    2    1    2    0  501  0.88822166552E+02  0.12533054707E+03  0.14253201605E+03  0.27187577746E+03  0.17321645265E+03 0.  0.
        -24    2    5    5    0    0  0.11079363295E+02  0.12506861142E+03  0.65495081917E+02  0.16232765429E+03  0.79345773295E+02 0.  0.
          5    1    3    3  502    0 -0.33423965335E+02 -0.11678183140E+03  0.12431926204E+01  0.12156805967E+03  0.47000000000E+01 0. -1.
        -13    1    4    4    0    0 -0.12403480422E+02 -0.26178717554E+02 -0.63257787653E+02  0.69575277780E+02  0.00000000000E+00 0.  1.
         14    1    4    4    0    0 -0.42994720796E+02  0.17630001888E+02  0.38400107462E+01  0.46627338176E+02  0.00000000000E+00 0. -1.
         -5    1    5    5    0  501  0.77742803257E+02  0.26193565081E+00  0.77036934137E+02  0.10954812317E+03  0.47000000000E+01 0.  1.
         13    1    6    6    0    0  0.37168480465E+02  0.81571282815E+02  0.15241404136E+02  0.90926731604E+02  0.00000000000E+00 0. -1.
        -14    1    6    6    0    0 -0.26089117169E+02  0.43497328602E+02  0.50253677781E+02  0.71400922688E+02  0.00000000000E+00 0.  1.
</event>
<event>
12    1  0.1348628E-002  0.2153871E+03  0.7818608E-02  0.1137370E+00
         -2   -1    0    0    0  501 -0.00000000000E+00  0.00000000000E+00  0.43839920951E+03  0.43839920951E+03  0.00000000000E+00 0.  1.
          2   -1    0    0  502    0  0.00000000000E+00 -0.00000000000E+00 -0.15223873709E+03  0.15223873709E+03  0.00000000000E+00 0. -1.
          6    2    1    2  502    0 -0.12255767110E+03 -0.47043486116E+02  0.30568171578E+03  0.37336701519E+03  0.16949378849E+03 0.  0.
         24    2    3    3    0    0 -0.86901410687E+01 -0.20665103173E+02  0.19788218683E+03  0.21429325267E+03  0.79130735065E+02 0.  0.
         -6    2    1    2    0  501  0.12255767110E+03  0.47043486116E+02 -0.19521243348E+02  0.21727093141E+03  0.17202356340E+03 0.  0.
        -24    2    5    5    0    0  0.55661551736E+02  0.77865513053E+02 -0.53753950258E+02  0.13591334816E+03  0.80135538779E+02 0.  0.
          5    1    3    3  502    0 -0.11386753003E+03 -0.26378382944E+02  0.10779952894E+03  0.15907376252E+03  0.47000000000E+01 0. -1.
        -13    1    4    4    0    0  0.23972506808E+02 -0.38255902656E+02  0.10891182085E+03  0.11789817594E+03  0.00000000000E+00 0.  1.
         14    1    4    4    0    0 -0.32662647876E+02  0.17590799484E+02  0.88970365985E+02  0.96395076722E+02  0.00000000000E+00 0. -1.
         -5    1    5    5    0  501  0.66896119363E+02 -0.30822026937E+02  0.34232706910E+02  0.81357583252E+02  0.47000000000E+01 0.  1.
         11    1    6    6    0    0  0.23329659860E+02  0.22062139429E+02 -0.63048411435E+02  0.70753891835E+02  0.00000000000E+00 0. -1.
        -12    1    6    6    0    0  0.32331891876E+02  0.55803373624E+02  0.92944611773E+01  0.65159456326E+02  0.00000000000E+00 0.  1.
</event>
<event>
12    1  0.1348628E-002  0.2222076E+03  0.7818608E-02  0.1132248E+00
         -1   -1    0    0    0  501 -0.00000000000E+00  0.00000000000E+00  0.22916026722E+03  0.22916026722E+03  0.00000000000E+00 0. -1.
          1   -1    0    0  502    0  0.00000000000E+00 -0.00000000000E+00 -0.42762381060E+03  0.42762381060E+03  0.00000000000E+00 0.  1.
          6    2    1    2  502    0  0.12288965808E+03  0.64383096230E+02 -0.33051541712E+03  0.39820604042E+03  0.17343747728E+03 0.  0.
         24    2    3    3    0    0  0.36078514174E+02  0.91520196965E+02 -0.22861216257E+03  0.26153504777E+03  0.80370732850E+02 0.  0.
         -6    2    1    2    0  501 -0.12288965808E+03 -0.64383096230E+02  0.13205187375E+03  0.25857803740E+03  0.17371773923E+03 0.  0.
        -24    2    5    5    0    0 -0.14703723165E+03 -0.89224524428E+02  0.10986575609E+03  0.21717132682E+03  0.74242424405E+02 0.  0.
          5    1    3    3  502    0  0.86811143904E+02 -0.27137100735E+02 -0.10190325455E+03  0.13667099265E+03  0.47000000000E+01 0. -1.
        -13    1    4    4    0    0  0.18432375735E+02  0.66206245600E+00 -0.10768177720E+03  0.10924996999E+03  0.00000000000E+00 0.  1.
         14    1    4    4    0    0  0.17646138439E+02  0.90858134509E+02 -0.12093038537E+03  0.15228507778E+03  0.00000000000E+00 0. -1.
         -5    1    5    5    0  501  0.24147573572E+02  0.24841428198E+02  0.22186117664E+02  0.41406710583E+02  0.47000000000E+01 0.  1.
         11    1    6    6    0    0 -0.98201504250E+02 -0.82093986555E+02  0.10850605235E+03  0.16779905084E+03  0.00000000000E+00 0. -1.
        -12    1    6    6    0    0 -0.48835727400E+02 -0.71305378723E+01  0.13597037310E+01  0.49372275978E+02  0.00000000000E+00 0.  1.
</event>
<event>
12    1  0.1348628E-002  0.1915880E+03  0.7818608E-02  0.1157037E+00
          2   -1    0    0  502    0  0.00000000000E+00  0.00000000000E+00  0.38640119349E+03  0.38640119349E+03  0.00000000000E+00 0. -1.
         -2   -1    0    0    0  501 -0.00000000000E+00 -0.00000000000E+00 -0.94997714159E+02  0.94997714159E+02  0.00000000000E+00 0.  1.
          6    2    1    2  502    0 -0.87071222450E+02  0.27433993513E+02  0.14577913115E+03  0.23999896776E+03  0.16737361700E+03 0.  0.
         24    2    3    3    0    0  0.91045523339E+01  0.45531665327E+02  0.82185230672E+02  0.12319323349E+03  0.79158923792E+02 0.  0.
         -6    2    1    2    0  501  0.87071222450E+02 -0.27433993513E+02  0.14562434818E+03  0.24139993989E+03  0.16950946409E+03 0.  0.
        -24    2    5    5    0    0  0.99943812387E+02 -0.20857426014E+02  0.16932976120E+03  0.21323983659E+03  0.79842733079E+02 0.  0.
          5    1    3    3  502    0 -0.96175774784E+02 -0.18097671815E+02  0.63593900477E+02  0.11680573427E+03  0.47000000000E+01 0. -1.
        -13    1    4    4    0    0  0.82960566483E+01  0.66782463012E+02  0.74953534491E+02  0.10073109875E+03  0.00000000000E+00 0.  1.
         14    1    4    4    0    0  0.80849568556E+00 -0.21250797685E+02  0.72316961810E+01  0.22462134742E+02  0.00000000000E+00 0. -1.
         -5    1    5    5    0  501 -0.12872589937E+02 -0.65765674984E+01 -0.23705413018E+02  0.28160103304E+02  0.47000000000E+01 0.  1.
         13    1    6    6    0    0  0.13286302703E+02 -0.38153449397E+02  0.64809539115E+02  0.76370726726E+02  0.00000000000E+00 0. -1.
        -14    1    6    6    0    0  0.86657509685E+02  0.17296023383E+02  0.10452022209E+03  0.13686910986E+03  0.00000000000E+00 0.  1.
</event>
<event>
12    1  0.1348628E-002  0.1850186E+03  0.7818608E-02  0.1163033E+00
         -1   -1    0    0    0  501 -0.00000000000E+00  0.00000000000E+00  0.92334510075E+02  0.92334510075E+02  0.00000000000E+00 0.  1.
          1   -1    0    0  502    0  0.00000000000E+00 -0.00000000000E+00 -0.37479656802E+03  0.37479656802E+03  0.00000000000E+00 0. -1.
          6    2    1    2  502    0 -0.23783286479E+02 -0.52897378307E+02 -0.16390791737E+03  0.24570459039E+03  0.17361210504E+03 0.  0.
         24    2    3    3    0    0  0.52151376643E+01 -0.65838791165E+02 -0.30356490324E+02  0.10834934864E+03  0.80349989193E+02 0.  0.
         -6    2    1    2    0  501  0.23783286479E+02  0.52897378307E+02 -0.11855414057E+03  0.22142648770E+03  0.17779434148E+03 0.  0.
        -24    2    5    5    0    0  0.41207067552E+00 -0.33721827666E+02 -0.90380214605E+02  0.12727256757E+03  0.83020430023E+02 0.  0.
          5    1    3    3  502    0 -0.28998424143E+02  0.12941412858E+02 -0.13355142705E+03  0.13735524175E+03  0.47000000000E+01 0. -1.
        -13    1    4    4    0    0 -0.34554200759E+02 -0.12176906409E+02 -0.53310005919E+01  0.37022822787E+02  0.00000000000E+00 0.  1.
         14    1    4    4    0    0  0.39769338423E+02 -0.53661884756E+02 -0.25025489732E+02  0.71326525855E+02  0.00000000000E+00 0. -1.
         -5    1    5    5    0  501  0.23371215803E+02  0.86619205973E+02 -0.28173925968E+02  0.94153920131E+02  0.47000000000E+01 0.  1.
         11    1    6    6    0    0 -0.88986841991E+01  0.12740576945E+02 -0.76260055860E+02  0.77827405206E+02  0.00000000000E+00 0. -1.
        -12    1    6    6    0    0  0.93107548746E+01 -0.46462404610E+02 -0.14120158745E+02  0.49445162367E+02  0.00000000000E+00 0.  1.
</event>
<event>
12    1  0.1348628E-002  0.2437091E+03  0.7818608E-02  0.1117346E+00
          2   -1    0    0  502    0  0.00000000000E+00  0.00000000000E+00  0.18031038019E+04  0.18031038019E+04  0.00000000000E+00 0.  1.
         -2   -1    0    0    0  501 -0.00000000000E+00 -0.00000000000E+00 -0.33690330863E+02  0.33690330863E+02  0.00000000000E+00 0. -1.
          6    2    1    2  502    0  0.91090031231E+02  0.14783813862E+03  0.10244916844E+04  0.10532599457E+04  0.17210401734E+03 0.  0.
         24    2    3    3    0    0  0.25854906013E+02  0.12487156132E+03  0.90066720763E+03  0.91135266511E+03  0.55685530537E+02 0.  0.
         -6    2    1    2    0  501 -0.91090031231E+02 -0.14783813862E+03  0.74492178664E+03  0.78353418707E+03  0.16989362869E+03 0.  0.
        -24    2    5    5    0    0 -0.65907395172E+02 -0.15941257884E+03  0.46431836073E+03  0.50152619878E+03  0.78618273457E+02 0.  0.
          5    1    3    3  502    0  0.65235125218E+02  0.22966577306E+02  0.12382447673E+03  0.14190728055E+03  0.47000000000E+01 0. -1.
        -11    1    4    4    0    0  0.36624173354E+02  0.81754214629E+02  0.47515828539E+03  0.48352919029E+03  0.00000000000E+00 0.  1.
         12    1    4    4    0    0 -0.10769267341E+02  0.43117346690E+02  0.42550892224E+03  0.42782347483E+03  0.00000000000E+00 0. -1.
         -5    1    5    5    0  501 -0.25182636059E+02  0.11574440216E+02  0.28060342591E+03  0.28200798829E+03  0.47000000000E+01 0.  1.
         11    1    6    6    0    0 -0.63014532817E+02 -0.84558685216E+02  0.19157077159E+03  0.21867867550E+03  0.00000000000E+00 0. -1.
        -12    1    6    6    0    0 -0.28928623551E+01 -0.74853893625E+02  0.27274758914E+03  0.28284752328E+03  0.00000000000E+00 0.  1.
</event>
<event>
12    1  0.1348628E-002  0.1769650E+03  0.7818608E-02  0.1170773E+00
          1   -1    0    0  502    0  0.00000000000E+00  0.00000000000E+00  0.73775106450E+02  0.73775106450E+02  0.00000000000E+00 0. -1.
         -1   -1    0    0    0  501 -0.00000000000E+00 -0.00000000000E+00 -0.10472773218E+04  0.10472773218E+04  0.00000000000E+00 0.  1.
          6    2    1    2  502    0 -0.35245282007E+02  0.83219897881E+01 -0.57947246022E+02  0.18911709610E+03  0.17634031671E+03 0.  0.
         24    2    3    3    0    0 -0.90022744331E+02 -0.91374020281E+01 -0.49221491695E+02  0.13077646249E+03  0.80573825053E+02 0.  0.
         -6    2    1    2    0  501  0.35245282007E+02 -0.83219897881E+01 -0.91555496933E+03  0.93193533215E+03  0.17015015731E+03 0.  0.
        -24    2    5    5    0    0 -0.28452599353E+02 -0.20249977380E+02 -0.73048078161E+03  0.73578681205E+03  0.80996595578E+02 0.  0.
          5    1    3    3  502    0  0.54777462324E+02  0.17459391816E+02 -0.87257543265E+01  0.58340633609E+02  0.47000000000E+01 0. -1.
        -11    1    4    4    0    0 -0.37598530183E+02  0.35356315077E+02 -0.13777950542E+02  0.53418633536E+02  0.00000000000E+00 0.  1.
         12    1    4    4    0    0 -0.52424214148E+02 -0.44493717105E+02 -0.35443541153E+02  0.77357828953E+02  0.00000000000E+00 0. -1.
         -5    1    5    5    0  501  0.63697881360E+02  0.11927987592E+02 -0.18507418772E+03  0.19614852010E+03  0.47000000000E+01 0.  1.
         13    1    6    6    0    0 -0.15813423902E+01  0.79724957789E+01 -0.56253342376E+01  0.98846202751E+01  0.00000000000E+00 0. -1.
        -14    1    6    6    0    0 -0.26871256963E+02 -0.28222473159E+02 -0.72485544737E+03  0.72590219177E+03  0.00000000000E+00 0.  1.
</event>
<event>
12    1  0.1348628E-002  0.1820046E+03  0.7818608E-02  0.1165877E+00
          1   -1    0    0  502    0  0.00000000000E+00  0.00000000000E+00  0.89785965641E+03  0.89785965641E+03  0.00000000000E+00 0.  1.
         -1   -1    0    0    0  501 -0.00000000000E+00 -0.00000000000E+00 -0.41141679177E+02  0.41141679177E+02  0.00000000000E+00 0. -1.
          6    2    1    2  502    0  0.27619681191E+02  0.63956681627E+02  0.27473101288E+03  0.32881903583E+03  0.16670790315E+03 0.  0.
         24    2    3    3    0    0 -0.44109801752E+02  0.49505427694E+02  0.19217261327E+03  0.21840193204E+03  0.79828745735E+02 0.  0.
         -6    2    1    2    0  501 -0.27619681191E+02 -0.63956681627E+02  0.58198696435E+03  0.61018229975E+03  0.16958864451E+03 0.  0.
        -24    2    5    5    0    0 -0.50187316890E+02 -0.21927529211E+02  0.53225086983E+03  0.54110613214E+03  0.80655281857E+02 0.  0.
          5    1    3    3  502    0  0.71729482942E+02  0.14451253933E+02  0.82558399609E+02  0.11041710379E+03  0.47000000000E+01 0. -1.
        -11    1    4    4    0    0 -0.24569635891E+02  0.69845752226E+02  0.15465004087E+03  0.17146058222E+03  0.00000000000E+00 0.  1.
         12    1    4    4    0    0 -0.19540165861E+02 -0.20340324532E+02  0.37522572401E+02  0.46941349826E+02  0.00000000000E+00 0. -1.
         -5    1    5    5    0  501  0.22567635699E+02 -0.42029152416E+02  0.49736094515E+02  0.69076167608E+02  0.47000000000E+01 0.  1.
         13    1    6    6    0    0 -0.42750992874E+02  0.23054859696E+02  0.20391785160E+03  0.20962267088E+03  0.00000000000E+00 0. -1.
        -14    1    6    6    0    0 -0.74363240160E+01 -0.44982388907E+02  0.32833301823E+03  0.33148346126E+03  0.00000000000E+00 0.  1.
</event>
<event>
12    1  0.1348628E-002  0.4138920E+03  0.7818608E-02  0.1039073E+00
          2   -1    0    0  502    0  0.00000000000E+00  0.00000000000E+00  0.63227362752E+03  0.63227362752E+03  0.00000000000E+00 0. -1.
         -2   -1    0    0    0  501 -0.00000000000E+00 -0.00000000000E+00 -0.27382391504E+03  0.27382391504E+03  0.00000000000E+00 0.  1.
          6    2    1    2  502    0 -0.34928844971E+03 -0.14009314490E+03  0.22579327516E+03  0.47158444839E+03  0.17257108249E+03 0.  0.
         24    2    3    3    0    0 -0.25350437580E+03 -0.81036614088E+02  0.84604395576E+02  0.29097810198E+03  0.81724847559E+02 0.  0.
         -6    2    1    2    0  501  0.34928844971E+03  0.14009314490E+03  0.13265643732E+03  0.43451309418E+03  0.17197496417E+03 0.  0.
        -24    2    5    5    0    0  0.23085826472E+03  0.85578480491E+02  0.16405200520E+02  0.25977329502E+03  0.81202336718E+02 0.  0.
          5    1    3    3  502    0 -0.95784073905E+02 -0.59056530812E+02  0.14118887958E+03  0.18060634641E+03  0.47000000000E+01 0. -1.
        -11    1    4    4    0    0 -0.95764411892E+02  0.88724704513E+01  0.19771127162E+02  0.98185746349E+02  0.00000000000E+00 0.  1.
         12    1    4    4    0    0 -0.15773996391E+03 -0.89909084540E+02  0.64833268415E+02  0.19279235563E+03  0.00000000000E+00 0. -1.
         -5    1    5    5    0  501  0.11843018499E+03  0.54514664410E+02  0.11625123680E+03  0.17473979916E+03  0.47000000000E+01 0.  1.
         11    1    6    6    0    0  0.85876277397E+02  0.27725934713E+01  0.32884901076E+02  0.91999125066E+02  0.00000000000E+00 0. -1.
        -12    1    6    6    0    0  0.14498198732E+03  0.82805887019E+02 -0.16479700555E+02  0.16777416995E+03  0.00000000000E+00 0.  1.
</event>
<event>
12    1  0.1348628E-002  0.1976300E+03  0.7818608E-02  0.1151754E+00
          2   -1    0    0  502    0  0.00000000000E+00  0.00000000000E+00  0.13665988443E+04  0.13665988443E+04  0.00000000000E+00 0.  1.
         -2   -1    0    0    0  501 -0.00000000000E+00 -0.00000000000E+00 -0.28581553745E+02  0.28581553745E+02  0.00000000000E+00 0. -1.
          6    2    1    2  502    0  0.13363187288E+02 -0.94296649124E+02  0.67330540019E+03  0.70210110040E+03  0.17474369928E+03 0.  0.
         24    2    3    3    0    0 -0.27143892629E+02 -0.42211508174E+02  0.58103812028E+03  0.58857125245E+03  0.79323512703E+02 0.  0.
         -6    2    1    2    0  501 -0.13363187288E+02  0.94296649124E+02  0.66471189033E+03  0.69307929762E+03  0.17160006652E+03 0.  0.
        -24    2    5    5    0    0 -0.43611249774E+02  0.12375784597E+03  0.50621841901E+03  0.52899036485E+03  0.79723100925E+02 0.  0.
          5    1    3    3  502    0  0.40507079917E+02 -0.52085140950E+02  0.92267279915E+02  0.11352984794E+03  0.47000000000E+01 0. -1.
        -11    1    4    4    0    0  0.11345011576E+02 -0.52693280228E+02  0.34544433179E+03  0.34962419458E+03  0.00000000000E+00 0.  1.
         12    1    4    4    0    0 -0.38488904205E+02  0.10481772055E+02  0.23559378848E+03  0.23894705787E+03  0.00000000000E+00 0. -1.
         -5    1    5    5    0  501  0.30248062487E+02 -0.29461196842E+02  0.15849347133E+03  0.16408893277E+03  0.47000000000E+01 0.  1.
         11    1    6    6    0    0 -0.44029938599E+02  0.44833799637E+02  0.12760754565E+03  0.14224060880E+03  0.00000000000E+00 0. -1.
        -12    1    6    6    0    0  0.41868882443E+00  0.78924046329E+02  0.37861087335E+03  0.38674975606E+03  0.00000000000E+00 0.  1.
</event>
<event>
12    1  0.1348628E-002  0.3714932E+03  0.7818608E-02  0.1054123E+00
         -2   -1    0    0    0  501 -0.00000000000E+00  0.00000000000E+00  0.84134200707E+02  0.84134200707E+02  0.00000000000E+00 0.  1.
          2   -1    0    0  502    0  0.00000000000E+00 -0.00000000000E+00 -0.16410827431E+04  0.16410827431E+04  0.00000000000E+00 0. -1.
          6    2    1    2  502    0 -0.25874230882E+03  0.20292207646E+03 -0.79743441004E+03  0.87980053274E+03  0.17326969617E+03 0.  0.
         24    2    3    3    0    0 -0.56059813190E+02  0.10911873895E+03 -0.27173693192E+03  0.30860950632E+03  0.79682277689E+02 0.  0.
         -6    2    1    2    0  501  0.25874230882E+03 -0.20292207646E+03 -0.75951413234E+03  0.84541641106E+03  0.17245938470E+03 0.  0.
        -24    2    5    5    0    0  0.28065594040E+02 -0.74894669059E+02 -0.24825924466E+03  0.27008484234E+03  0.70116192701E+02 0.  0.
          5    1    3    3  502    0 -0.20268249563E+03  0.93803337510E+02 -0.52569747812E+03  0.57119102642E+03  0.47000000000E+01 0. -1.
        -11    1    4    4    0    0 -0.32343617405E+02  0.11555352972E+03 -0.20559919819E+03  0.23805410754E+03  0.00000000000E+00 0.  1.
         12    1    4    4    0    0 -0.23716195785E+02 -0.64347907743E+01 -0.66137733728E+02  0.70555398784E+02  0.00000000000E+00 0. -1.
         -5    1    5    5    0  501  0.23067671478E+03 -0.12802740740E+03 -0.51125488768E+03  0.57533156872E+03  0.47000000000E+01 0.  1.
         13    1    6    6    0    0  0.26728307723E+02  0.24404502472E+01 -0.42469353957E+02  0.50239469112E+02  0.00000000000E+00 0. -1.
        -14    1    6    6    0    0  0.13372863163E+01 -0.77335119307E+02 -0.20578989071E+03  0.21984537323E+03  0.00000000000E+00 0.  1.
</event>
<event>
12    1  0.1348628E-002  0.1813606E+03  0.7818608E-02  0.1166493E+00
          2   -1    0    0  502    0  0.00000000000E+00  0.00000000000E+00  0.71548770482E+02  0.71548770482E+02  0.00000000000E+00 0.  1.
         -2   -1    0    0    0  501 -0.00000000000E+00 -0.00000000000E+00 -0.46311834402E+03  0.46311834402E+03  0.00000000000E+00 0. -1.
          6    2    1    2  502    0  0.90551336554E+01  0.17067866959E+02 -0.22394765456E+03  0.29310242228E+03  0.18810414784E+03 0.  0.
         24    2    3    3    0    0 -0.50889287671E+02 -0.41174376753E+02 -0.14128305175E+03  0.17545456145E+03  0.80860086073E+02 0.  0.
         -6    2    1    2    0  501 -0.90551336554E+01 -0.17067866959E+02 -0.16762191898E+03  0.24156469222E+03  0.17286724756E+03 0.  0.
        -24    2    5    5    0    0  0.14945511316E+02  0.50039335767E+02 -0.12929157330E+03  0.16050475750E+03  0.79486872014E+02 0.  0.
          5    1    3    3  502    0  0.59944421326E+02  0.58242243712E+02 -0.82664602805E+02  0.11764786083E+03  0.47000000000E+01 0. -1.
        -11    1    4    4    0    0  0.18566941002E+02 -0.26921108743E+02 -0.52213237587E+02  0.61609249090E+02  0.00000000000E+00 0.  1.
         12    1    4    4    0    0 -0.69456228672E+02 -0.14253268011E+02 -0.89069814167E+02  0.11384531236E+03  0.00000000000E+00 0. -1.
         -5    1    5    5    0  501 -0.24000644972E+02 -0.67107202726E+02 -0.38330345679E+02  0.81059934718E+02  0.47000000000E+01 0.  1.
         11    1    6    6    0    0 -0.32495122548E+02  0.14335854591E+02 -0.53700026584E+02  0.64382781638E+02  0.00000000000E+00 0. -1.
        -12    1    6    6    0    0  0.47440633865E+02  0.35703481176E+02 -0.75591546715E+02  0.96121975866E+02  0.00000000000E+00 0.  1.
</event>
<event>
12    1  0.1348628E-002  0.2615527E+03  0.7818608E-02  0.1106214E+00
         -2   -1    0    0    0  501 -0.00000000000E+00  0.00000000000E+00  0.10045990601E+04  0.10045990601E+04  0.00000000000E+00 0.  1.
          2   -1    0    0  502    0  0.00000000000E+00 -0.00000000000E+00 -0.69769942498E+02  0.69769942498E+02  0.00000000000E+00 0. -1.
          6    2    1    2  502    0  0.10184121816E+03 -0.16810919037E+03  0.55078483045E+03  0.60977680265E+03  0.17271793765E+03 0.  0.
         24    2    3    3    0    0  0.57406598551E+02 -0.17358680434E+03  0.33927029904E+03  0.39352480457E+03  0.79558404966E+02 0.  0.
         -6    2    1    2    0  501 -0.10184121816E+03  0.16810919037E+03  0.38404428710E+03  0.46459219991E+03  0.17240523238E+03 0.  0.
        -24    2    5    5    0    0 -0.12563936013E+03  0.15987210589E+03  0.26317489650E+03  0.34103775560E+03  0.75507519767E+02 0.  0.
          5    1    3    3  502    0  0.44434619610E+02  0.54776139673E+01  0.21151453141E+03  0.21625199808E+03  0.47000000000E+01 0. -1.
        -13    1    4    4    0    0  0.65258127200E+02 -0.87019083510E+02  0.15037737069E+03  0.18559175002E+03  0.00000000000E+00 0.  1.
         14    1    4    4    0    0 -0.78515286493E+01 -0.86567720830E+02  0.18889292835E+03  0.20793305455E+03  0.00000000000E+00 0. -1.
         -5    1    5    5    0  501  0.23798141973E+02  0.82370844820E+01  0.12086939061E+03  0.12355444431E+03  0.47000000000E+01 0.  1.
         11    1    6    6    0    0 -0.70397410725E+02  0.57520378865E+02  0.16690145441E+03  0.19005390000E+03  0.00000000000E+00 0. -1.
        -12    1    6    6    0    0 -0.55241949408E+02  0.10235172703E+03  0.96273442083E+02  0.15098385559E+03  0.00000000000E+00 0.  1.
</event>
<event>
12    1  0.1348628E-002  0.2049309E+03  0.7818608E-02  0.1145644E+00
         -1   -1    0    0    0  501 -0.00000000000E+00  0.00000000000E+00  0.86222731994E+02  0.86222731994E+02  0.00000000000E+00 0.  1.
          1   -1    0    0  502    0  0.00000000000E+00 -0.00000000000E+00 -0.48867459821E+03  0.48867459821E+03  0.00000000000E+00 0. -1.
          6    2    1    2  502    0  0.10634682352E+03 -0.30418054957E+02 -0.18535106256E+03  0.27674763315E+03  0.17320314985E+03 0.  0.
         24    2    3    3    0    0  0.11016361646E+03 -0.34377301400E+02 -0.59754018161E+02  0.15094242219E+03  0.76780537169E+02 0.  0.
         -6    2    1    2    0  501 -0.10634682352E+03  0.30418054957E+02 -0.21710080365E+03  0.29814969705E+03  0.17183008458E+03 0.  0.
        -24    2    5    5    0    0 -0.10426938488E+03 -0.35780590957E+02 -0.13022220599E+03  0.18880365367E+03  0.80849498412E+02 0.  0.
          5    1    3    3  502    0 -0.38167929410E+01  0.39592464436E+01 -0.12559704440E+03  0.12580521095E+03  0.47000000000E+01 0. -1.
        -13    1    4    4    0    0 -0.41771368232E+01  0.10966294585E+02  0.40007302442E+01  0.12398142258E+02  0.00000000000E+00 0.  1.
         14    1    4    4    0    0  0.11434075328E+03 -0.45343595986E+02 -0.63754748405E+02  0.13854427993E+03  0.00000000000E+00 0. -1.
         -5    1    5    5    0  501 -0.20774386359E+01  0.66198645914E+02 -0.86878597657E+02  0.10934604338E+03  0.47000000000E+01 0.  1.
         13    1    6    6    0    0 -0.10643007964E+03 -0.58316212792E+01 -0.10440789538E+03  0.14920582521E+03  0.00000000000E+00 0. -1.
        -14    1    6    6    0    0  0.21606947563E+01 -0.29948969678E+02 -0.25814310609E+02  0.39597828461E+02  0.00000000000E+00 0.  1.
</event>
<event>
12    1  0.1348628E-002  0.1925729E+03  0.7818608E-02  0.1156161E+00
         -1   -1    0    0    0  501 -0.00000000000E+00  0.00000000000E+00  0.60724250904E+02  0.60724250904E+02  0.00000000000E+00 0.  1.
          1   -1    0    0  502    0  0.00000000000E+00 -0.00000000000E+00 -0.63639488354E+03  0.63639488354E+03  0.00000000000E+00 0. -1.
          6    2    1    2  502    0  0.78316914881E+02  0.42362211658E+02 -0.35714536062E+03  0.40551654959E+03  0.17018450942E+03 0.  0.
         24    2    3    3    0    0 -0.91644103562E+01 -0.12826031634E+02 -0.10760759346E+03  0.13535009774E+03  0.80571466938E+02 0.  0.
         -6    2    1    2    0  501 -0.78316914881E+02 -0.42362211658E+02 -0.21852527202E+03  0.29160258485E+03  0.17132039240E+03 0.  0.
        -24    2    5    5    0    0 -0.14477170980E+02  0.23682738763E+02 -0.16320333766E+03  0.18427106666E+03  0.80932292619E+02 0.  0.
          5    1    3    3  502    0  0.87481325238E+02  0.55188243292E+02 -0.24953776716E+03  0.27016645184E+03  0.47000000000E+01 0. -1.
        -11    1    4    4    0    0 -0.56136162862E+01 -0.11897447038E+02  0.10717311554E+02  0.16968285145E+02  0.00000000000E+00 0.  1.
         12    1    4    4    0    0 -0.35507940700E+01 -0.92858459578E+00 -0.11832490501E+03  0.11838181260E+03  0.00000000000E+00 0. -1.
         -5    1    5    5    0  501 -0.63839743902E+02 -0.66044950421E+02 -0.55321934353E+02  0.10733151820E+03  0.47000000000E+01 0.  1.
         11    1    6    6    0    0 -0.41961264533E+02 -0.83205987180E+01 -0.71303409252E+02  0.83151405612E+02  0.00000000000E+00 0. -1.
        -12    1    6    6    0    0  0.27484093554E+02  0.32003337481E+02 -0.91899928411E+02  0.10111966105E+03  0.00000000000E+00 0.  1.
</event>
<event>
12    1  0.1348628E-002  0.1993477E+03  0.7818608E-02  0.1150291E+00
          2   -1    0    0  502    0  0.00000000000E+00  0.00000000000E+00  0.75295410330E+03  0.75295410330E+03  0.00000000000E+00 0. -1.
         -2   -1    0    0    0  501 -0.00000000000E+00 -0.00000000000E+00 -0.64965554946E+02  0.64965554946E+02  0.00000000000E+00 0.  1.
          6    2    1    2  502    0  0.97249636622E+02  0.25957697680E+02  0.16775579371E+03  0.26102661857E+03  0.17280507917E+03 0.  0.
         24    2    3    3    0    0  0.24605117712E+02 -0.47624986219E+02  0.73042045961E+02  0.12072543714E+03  0.79786838294E+02 0.  0.
         -6    2    1    2    0  501 -0.97249636622E+02 -0.25957697680E+02  0.52023275465E+03  0.55689303968E+03  0.17133722521E+03 0.  0.
        -24    2    5    5    0    0 -0.11583749363E+03  0.20139308934E+02  0.43619185085E+03  0.45914128287E+03  0.81996769436E+02 0.  0.
          5    1    3    3  502    0  0.72644518910E+02  0.73582683899E+02  0.94713747749E+02  0.14030118143E+03  0.47000000000E+01 0. -1.
        -13    1    4    4    0    0  0.37712115654E+01  0.19201182242E+02  0.14425306124E-01  0.19568026069E+02  0.00000000000E+00 0.  1.
         14    1    4    4    0    0  0.20833906147E+02 -0.66826168460E+02  0.73027620655E+02  0.10115741107E+03  0.00000000000E+00 0. -1.
         -5    1    5    5    0  501  0.18587857013E+02 -0.46097006614E+02  0.84040903803E+02  0.97751756808E+02  0.47000000000E+01 0.  1.
         11    1    6    6    0    0 -0.95485852694E+02 -0.20709356373E+02  0.29750006076E+03  0.31313369614E+03  0.00000000000E+00 0. -1.
        -12    1    6    6    0    0 -0.20351640941E+02  0.40848665307E+02  0.13869179008E+03  0.14600758673E+03  0.00000000000E+00 0.  1.
</event>
<event>
12    1  0.1348628E-002  0.1886773E+03  0.7818608E-02  0.1159660E+00
         -2   -1    0    0    0  501 -0.00000000000E+00  0.00000000000E+00  0.10333197772E+03  0.10333197772E+03  0.00000000000E+00 0. -1.
          2   -1    0    0  502    0  0.00000000000E+00 -0.00000000000E+00 -0.34641377221E+03  0.34641377221E+03  0.00000000000E+00 0.  1.
          6    2    1    2  502    0  0.53889522380E+02 -0.54941777391E+02 -0.13814854562E+03  0.23377868641E+03  0.17217657808E+03 0.  0.
         24    2    3    3    0    0 -0.30523221302E+02 -0.58383955359E+02 -0.74708891206E+02  0.12802406648E+03  0.80426300987E+02 0.  0.
         -6    2    1    2    0  501 -0.53889522380E+02  0.54941777391E+02 -0.10493324887E+03  0.21596706351E+03  0.17236039649E+03 0.  0.
        -24    2    5    5    0    0 -0.31404440557E+02 -0.29401622222E+02 -0.88592071037E+02  0.12703724817E+03  0.80244707594E+02 0.  0.
          5    1    3    3  502    0  0.84412743682E+02  0.34421779680E+01 -0.63439654414E+02  0.10575461993E+03  0.47000000000E+01 0. -1.
        -11    1    4    4    0    0  0.60430150168E+01 -0.31782575930E+02 -0.76197358232E+02  0.82780961367E+02  0.00000000000E+00 0.  1.
         12    1    4    4    0    0 -0.36566236319E+02 -0.26601379429E+02  0.14884670265E+01  0.45243105112E+02  0.00000000000E+00 0. -1.
         -5    1    5    5    0  501 -0.22485081823E+02  0.84343399613E+02 -0.16341177833E+02  0.88929815337E+02  0.47000000000E+01 0.  1.
         11    1    6    6    0    0 -0.20533970738E+01 -0.20453161566E+01  0.15349362295E+02  0.15620585155E+02  0.00000000000E+00 0. -1.
        -12    1    6    6    0    0 -0.29351043483E+02 -0.27356306066E+02 -0.10394143333E+03  0.11141666302E+03  0.00000000000E+00 0.  1.
</event>
<event>
12    1  0.1348628E-002  0.1717283E+03  0.7818608E-02  0.1176057E+00
         -2   -1    0    0    0  501 -0.00000000000E+00  0.00000000000E+00  0.42293591194E+03  0.42293591194E+03  0.00000000000E+00 0.  1.
          2   -1    0    0  502    0  0.00000000000E+00 -0.00000000000E+00 -0.73061745084E+02  0.73061745084E+02  0.00000000000E+00 0. -1.
          6    2    1    2  502    0 -0.95729428179E+00  0.15764568550E+02  0.22880102255E+03  0.28664122580E+03  0.17194140390E+03 0.  0.
         24    2    3    3    0    0  0.44182889609E+02 -0.37071482198E+01  0.58071054957E+02  0.10891223045E+03  0.80769770555E+02 0.  0.
         -6    2    1    2    0  501  0.95729428179E+00 -0.15764568550E+02  0.12107314431E+03  0.20935643122E+03  0.17006460828E+03 0.  0.
        -24    2    5    5    0    0 -0.29242771462E+01  0.55495223080E+02  0.84399568241E+02  0.12898189744E+03  0.80154672762E+02 0.  0.
          5    1    3    3  502    0 -0.45140183891E+02  0.19471716770E+02  0.17072996759E+03  0.17772899535E+03  0.47000000000E+01 0. -1.
        -11    1    4    4    0    0 -0.73270214583E+01  0.16482618354E+02  0.49807530408E+02  0.52973125608E+02  0.00000000000E+00 0.  1.
         12    1    4    4    0    0  0.51509911067E+02 -0.20189766574E+02  0.82635245481E+01  0.55939104841E+02  0.00000000000E+00 0. -1.
         -5    1    5    5    0  501  0.38815714280E+01 -0.71259791630E+02  0.36673576070E+02  0.80374533788E+02  0.47000000000E+01 0.  1.
         11    1    6    6    0    0  0.34363021037E+01  0.45952960539E+02  0.23567662564E+01  0.46141490024E+02  0.00000000000E+00 0. -1.
        -12    1    6    6    0    0 -0.63605792499E+01  0.95422625405E+01  0.82042801984E+02  0.82840407412E+02  0.00000000000E+00 0.  1.
</event>
<event>
12    1  0.1348628E-002  0.2505865E+03  0.7818608E-02  0.1112935E+00
         -2   -1    0    0    0  501 -0.00000000000E+00  0.00000000000E+00  0.73720146584E+02  0.73720146584E+02  0.00000000000E+00 0. -1.
          2   -1    0    0  502    0  0.00000000000E+00 -0.00000000000E+00 -0.98591703032E+03  0.98591703032E+03  0.00000000000E+00 0.  1.
          6    2    1    2  502    0 -0.15485978577E+03 -0.95976439760E+02 -0.26077328687E+03  0.36170090383E+03  0.17213891612E+03 0.  0.
         24    2    3    3    0    0 -0.84088027904E+02  0.69764174973E+00 -0.19121314799E+03  0.22308192003E+03  0.78305759293E+02 0.  0.
         -6    2    1    2    0  501  0.15485978577E+03  0.95976439760E+02 -0.65142359687E+03  0.69793627308E+03  0.17195728681E+03 0.  0.
        -24    2    5    5    0    0  0.17629556746E+03  0.11159186669E+03 -0.58765765347E+03  0.62871546818E+03  0.80054671452E+02 0.  0.
          5    1    3    3  502    0 -0.70771757869E+02 -0.96674081510E+02 -0.69560138876E+02  0.13861898379E+03  0.47000000000E+01 0. -1.
        -11    1    4    4    0    0 -0.93682879933E+02  0.77775902489E+01 -0.18881066577E+03  0.21091808934E+03  0.00000000000E+00 0.  1.
         12    1    4    4    0    0  0.95948520290E+01 -0.70799484991E+01 -0.24024822220E+01  0.12163830689E+02  0.00000000000E+00 0. -1.
         -5    1    5    5    0  501 -0.21435781686E+02 -0.15615426927E+02 -0.63765943397E+02  0.69220804907E+02  0.47000000000E+01 0.  1.
         11    1    6    6    0    0  0.12767968664E+02  0.14004060441E+02 -0.12130250070E+02  0.22500615534E+02  0.00000000000E+00 0. -1.
        -12    1    6    6    0    0  0.16352759880E+03  0.97587806246E+02 -0.57552740340E+03  0.60621485264E+03  0.00000000000E+00 0.  1.
</event>
<event>
12    1  0.1348628E-002  0.3671125E+03  0.7818608E-02  0.1055803E+00
          2   -1    0    0  502    0  0.00000000000E+00  0.00000000000E+00  0.11268642459E+04  0.11268642459E+04  0.00000000000E+00 0.  1.
         -2   -1    0    0    0  501 -0.00000000000E+00 -0.00000000000E+00 -0.12304704915E+03  0.12304704915E+03  0.00000000000E+00 0. -1.
          6    2    1    2  502    0  0.32318281076E+03 -0.21058856064E+01  0.39837460923E+03  0.54228230935E+03  0.17583005952E+03 0.  0.
         24    2    3    3    0    0  0.20797939336E+03  0.68285426769E+02  0.25143636557E+03  0.34268345743E+03  0.79330816794E+02 0.  0.
         -6    2    1    2    0  501 -0.32318281076E+03  0.21058856064E+01  0.60544258752E+03  0.70762898570E+03  0.17241371960E+03 0.  0.
        -24    2    5    5    0    0 -0.26174756661E+03 -0.34702467659E+01  0.57900027050E+03  0.64034846397E+03  0.79252828531E+02 0.  0.
          5    1    3    3  502    0  0.11520341740E+03 -0.70391312375E+02  0.14693824365E+03  0.19959885191E+03  0.47000000000E+01 0. -1.
        -13    1    4    4    0    0  0.14573621019E+03  0.81779577618E+02  0.16084107895E+03  0.23194136102E+03  0.00000000000E+00 0.  1.
         14    1    4    4    0    0  0.62243183171E+02 -0.13494150849E+02  0.90595286628E+02  0.11074209641E+03  0.00000000000E+00 0. -1.
         -5    1    5    5    0  501 -0.61435244148E+02  0.55761323723E+01  0.26442317020E+02  0.67280521736E+02  0.47000000000E+01 0.  1.
         13    1    6    6    0    0 -0.14102704169E+03 -0.29929901151E+02  0.24570345103E+03  0.28487648432E+03  0.00000000000E+00 0. -1.
        -14    1    6    6    0    0 -0.12072052492E+03  0.26459654385E+02  0.33329681947E+03  0.35547197965E+03  0.00000000000E+00 0.  1.
</event>
<event>
12    1  0.1348628E-002  0.2540500E+03  0.7818608E-02  0.1110772E+00
          3   -1    0    0  502    0  0.00000000000E+00  0.00000000000E+00  0.67440586493E+02  0.67440586493E+02  0.00000000000E+00 0.  1.
         -3   -1    0    0    0  501 -0.00000000000E+00 -0.00000000000E+00 -0.97702718214E+03  0.97702718214E+03  0.00000000000E+00 0. -1.
          6    2    1    2  502    0  0.15969590004E+03  0.97034875021E+02 -0.52988259971E+03  0.58772128227E+03  0.17240124332E+03 0.  0.
         24    2    3    3    0    0  0.18612439503E+03  0.96459192950E+02 -0.44211703154E+03  0.49594066497E+03  0.80888857444E+02 0.  0.
         -6    2    1    2    0  501 -0.15969590004E+03 -0.97034875021E+02 -0.37970399594E+03  0.45674648636E+03  0.17182456405E+03 0.  0.
        -24    2    5    5    0    0 -0.53382660740E+02 -0.91253647568E+02 -0.26261854938E+03  0.29842081176E+03  0.94390368953E+02 0.  0.
          5    1    3    3  502    0 -0.26428494986E+02  0.57568207011E+00 -0.87765568168E+02  0.91780617305E+02  0.47000000000E+01 0. -1.
        -13    1    4    4    0    0  0.91601324318E+02  0.14021477383E+02 -0.13072170894E+03  0.16023598108E+03  0.00000000000E+00 0.  1.
         14    1    4    4    0    0  0.94523070713E+02  0.82437715568E+02 -0.31139532260E+03  0.33570468388E+03  0.00000000000E+00 0. -1.
         -5    1    5    5    0  501 -0.10631323930E+03 -0.57812274524E+01 -0.11708544656E+03  0.15832567460E+03  0.47000000000E+01 0.  1.
         11    1    6    6    0    0  0.25933207156E+02 -0.21482693425E+02 -0.42144169771E+02  0.53945976642E+02  0.00000000000E+00 0. -1.
        -12    1    6    6    0    0 -0.79315867896E+02 -0.69770954143E+02 -0.22047437961E+03  0.24447483512E+03  0.00000000000E+00 0.  1.
</event>
<event>
12    1  0.1348628E-002  0.2229599E+03  0.7818608E-02  0.1131695E+00
         -1   -1    0    0    0  501 -0.00000000000E+00  0.00000000000E+00  0.56544660337E+02  0.56544660337E+02  0.00000000000E+00 0.  1.
          1   -1    0    0  502    0  0.00000000000E+00 -0.00000000000E+00 -0.11204687957E+04  0.11204687957E+04  0.00000000000E+00 0. -1.
          6    2    1    2  502    0  0.12070895255E+03 -0.74556208867E+02 -0.80466985182E+03  0.83492958756E+03  0.17171070514E+03 0.  0.
         24    2    3    3    0    0  0.29017034464E+02 -0.87808809164E+02 -0.56504408413E+03  0.57797504334E+03  0.78917415430E+02 0.  0.
         -6    2    1    2    0  501 -0.12070895255E+03  0.74556208867E+02 -0.25925428353E+03  0.34208386846E+03  0.17227684123E+03 0.  0.
        -24    2    5    5    0    0 -0.93316977993E+02  0.16255135787E+02 -0.24943673979E+03  0.27675539413E+03  0.73502198622E+02 0.  0.
          5    1    3    3  502    0  0.91691918091E+02  0.13252600297E+02 -0.23962576769E+03  0.25695454422E+03  0.47000000000E+01 0. -1.
        -11    1    4    4    0    0 -0.11694882877E+02  0.64021049476E+01 -0.14346816899E+03  0.14408633782E+03  0.00000000000E+00 0.  1.
         12    1    4    4    0    0  0.40711917341E+02 -0.94210914112E+02 -0.42157591514E+03  0.43388870552E+03  0.00000000000E+00 0. -1.
         -5    1    5    5    0  501 -0.27391974562E+02  0.58301073080E+02 -0.98175437401E+01  0.65328474326E+02  0.47000000000E+01 0.  1.
         11    1    6    6    0    0 -0.89569875514E+01 -0.24446451511E+02 -0.47983992130E+02  0.54592308233E+02  0.00000000000E+00 0. -1.
        -12    1    6    6    0    0 -0.84359990442E+02  0.40701587298E+02 -0.20145274766E+03  0.22216308590E+03  0.00000000000E+00 0.  1.
</event>
<event>
12    1  0.1348628E-002  0.1757219E+03  0.7818608E-02  0.1172009E+00
          2   -1    0    0  502    0  0.00000000000E+00  0.00000000000E+00  0.20393341902E+03  0.20393341902E+03  0.00000000000E+00 0.  1.
         -2   -1    0    0    0  501 -0.00000000000E+00 -0.00000000000E+00 -0.69413038968E+03  0.69413038968E+03  0.00000000000E+00 0. -1.
          6    2    1    2  502    0  0.27239056801E+02  0.19306447980E+02 -0.64214565832E+03  0.66575354101E+03  0.17251674038E+03 0.  0.
         24    2    3    3    0    0 -0.12252794466E+02  0.54789380667E+02 -0.20972702831E+03  0.23006258814E+03  0.76100991136E+02 0.  0.
         -6    2    1    2    0  501 -0.27239056801E+02 -0.19306447980E+02  0.15194868766E+03  0.23231026770E+03  0.17252522033E+03 0.  0.
        -24    2    5    5    0    0  0.33328743292E+02  0.36842018108E+02  0.62253012288E+02  0.11029177389E+03  0.76293501823E+02 0.  0.
          5    1    3    3  502    0  0.39491851267E+02 -0.35482932687E+02 -0.43241863001E+03  0.43569095286E+03  0.47000000000E+01 0. -1.
        -13    1    4    4    0    0 -0.10116314955E+02  0.47026547021E+01  0.29641984123E+01  0.11543017878E+02  0.00000000000E+00 0.  1.
         14    1    4    4    0    0 -0.21364795106E+01  0.50086725965E+02 -0.21269122673E+03  0.21851957027E+03  0.00000000000E+00 0. -1.
         -5    1    5    5    0  501 -0.60567800093E+02 -0.56148466089E+02  0.89695675367E+02  0.12201849381E+03  0.47000000000E+01 0.  1.
         13    1    6    6    0    0  0.38299105373E+02 -0.82733713450E+01  0.49528856499E+02  0.63153604584E+02  0.00000000000E+00 0. -1.
        -14    1    6    6    0    0 -0.49703620811E+01  0.45115389453E+02  0.12724155789E+02  0.47138169303E+02  0.00000000000E+00 0.  1.
</event>
<event>
12    1  0.1348628E-002  0.1786813E+03  0.7818608E-02  0.1169085E+00
         -1   -1    0    0    0  501 -0.00000000000E+00  0.00000000000E+00  0.12035433966E+02  0.12035433966E+02  0.00000000000E+00 0. -1.
          1   -1    0    0  502    0  0.00000000000E+00 -0.00000000000E+00 -0.27763552821E+04  0.27763552821E+04  0.00000000000E+00 0.  1.
          6    2    1    2  502    0 -0.55689910750E+02 -0.22580897689E+02 -0.11111881642E+04  0.11259488501E+04  0.17149464628E+03 0.  0.
         24    2    3    3    0    0 -0.60636154491E+02  0.35713591777E+02 -0.91641149920E+03  0.92252133954E+03  0.79267787680E+02 0.  0.
         -6    2    1    2    0  501  0.55689910750E+02  0.22580897689E+02 -0.16531316839E+04  0.16624418659E+04  0.16509794111E+03 0.  0.
        -24    2    5    5    0    0  0.58044087272E+02 -0.26888517834E+02 -0.14378047871E+04  0.14414429345E+04  0.79893798617E+02 0.  0.
          5    1    3    3  502    0  0.49462437414E+01 -0.58294489466E+02 -0.19477666501E+03  0.20342751059E+03  0.47000000000E+01 0. -1.
        -11    1    4    4    0    0 -0.26029124526E+02 -0.18738220230E+02 -0.14954458609E+03  0.15294515177E+03  0.00000000000E+00 0.  1.
         12    1    4    4    0    0 -0.34607029966E+02  0.54451812007E+02 -0.76686691311E+03  0.76957618777E+03  0.00000000000E+00 0. -1.
         -5    1    5    5    0  501 -0.23541765225E+01  0.49469415523E+02 -0.21532689679E+03  0.22099893144E+03  0.47000000000E+01 0.  1.
         11    1    6    6    0    0  0.48006636020E+02  0.21640144794E+02 -0.77746220144E+03  0.77924348418E+03  0.00000000000E+00 0. -1.
        -12    1    6    6    0    0  0.10037451252E+02 -0.48528662628E+02 -0.66034258565E+03  0.66219945028E+03  0.00000000000E+00 0.  1.
</event>
<event>
12    1  0.1348628E-002  0.2076698E+03  0.7818608E-02  0.1143425E+00
         -1   -1    0    0    0  501 -0.00000000000E+00  0.00000000000E+00  0.24117642466E+03  0.24117642466E+03  0.00000000000E+00 0.  1.
          1   -1    0    0  502    0  0.00000000000E+00 -0.00000000000E+00 -0.18643237927E+03  0.18643237927E+03  0.00000000000E+00 0. -1.
          6    2    1    2  502    0  0.95843392509E+02 -0.66535014965E+02 -0.15726288563E+02  0.20907070268E+03  0.17277262070E+03 0.  0.
         24    2    3    3    0    0  0.13026930661E+03 -0.76805173305E+02 -0.52497880029E+01  0.17135509877E+03  0.80410712662E+02 0.  0.
         -6    2    1    2    0  501 -0.95843392509E+02  0.66535014965E+02  0.70470333956E+02  0.21853810125E+03  0.17082145540E+03 0.  0.
        -24    2    5    5    0    0 -0.86427567838E+02  0.84579866404E+02 -0.10778146216E+02  0.13464722005E+03  0.58225657128E+02 0.  0.
          5    1    3    3  502    0 -0.34425914101E+02  0.10270158340E+02 -0.10476500560E+02  0.37715603906E+02  0.47000000000E+01 0. -1.
        -13    1    4    4    0    0  0.63194985062E+02  0.72168358246E+01  0.16004551093E+01  0.63625861981E+02  0.00000000000E+00 0.  1.
         14    1    4    4    0    0  0.67074321549E+02 -0.84022009129E+02 -0.68502431122E+01  0.10772923679E+03  0.00000000000E+00 0. -1.
         -5    1    5    5    0  501 -0.94158246713E+01 -0.18044851439E+02  0.81248480172E+02  0.83890881197E+02  0.47000000000E+01 0.  1.
         11    1    6    6    0    0 -0.75524315090E+02  0.70831089978E+02  0.13789735609E+02  0.10445631759E+03  0.00000000000E+00 0. -1.
        -12    1    6    6    0    0 -0.10903252749E+02  0.13748776427E+02 -0.24567881825E+02  0.30190902456E+02  0.00000000000E+00 0.  1.
</event>
<event>
12    1  0.1348628E-002  0.2631230E+03  0.7818608E-02  0.1105281E+00
          2   -1    0    0  502    0  0.00000000000E+00  0.00000000000E+00  0.27525147422E+03  0.27525147422E+03  0.00000000000E+00 0.  1.
         -2   -1    0    0    0  501 -0.00000000000E+00 -0.00000000000E+00 -0.28283885422E+03  0.28283885422E+03  0.00000000000E+00 0. -1.
          6    2    1    2  502    0 -0.18682615063E+03 -0.78260390112E+02  0.89051232300E+02  0.27755954616E+03  0.16757231415E+03 0.  0.
         24    2    3    3    0    0 -0.15311865787E+03 -0.11034320878E+02  0.10240551615E+03  0.20103526015E+03  0.79757171834E+02 0.  0.
         -6    2    1    2    0  501  0.18682615063E+03  0.78260390112E+02 -0.96638612303E+02  0.28053078228E+03  0.16831458402E+03 0.  0.
        -24    2    5    5    0    0  0.16671945103E+03  0.35458270686E+02 -0.12409602908E+03  0.22564635341E+03  0.80397686905E+02 0.  0.
          5    1    3    3  502    0 -0.33707492764E+02 -0.67226069235E+02 -0.13354283852E+02  0.76524286017E+02  0.47000000000E+01 0. -1.
        -13    1    4    4    0    0 -0.38743546382E+02  0.29923592403E+02  0.14421598837E+02  0.51033971839E+02  0.00000000000E+00 0.  1.
         14    1    4    4    0    0 -0.11437511149E+03 -0.40957913281E+02  0.87983917315E+02  0.15000128831E+03  0.00000000000E+00 0. -1.
         -5    1    5    5    0  501  0.20106699600E+02  0.42802119426E+02  0.27457416777E+02  0.54884428869E+02  0.47000000000E+01 0.  1.
         13    1    6    6    0    0  0.33812533392E+02  0.15409657604E+02 -0.72884801868E+02  0.81810386292E+02  0.00000000000E+00 0. -1.
        -14    1    6    6    0    0  0.13290691764E+03  0.20048613083E+02 -0.51211227212E+02  0.14383596712E+03  0.00000000000E+00 0.  1.
</event>
<event>
12    1  0.1348628E-002  0.1747071E+03  0.7818608E-02  0.1173026E+00
          1   -1    0    0  502    0  0.00000000000E+00  0.00000000000E+00  0.52101149520E+03  0.52101149520E+03  0.00000000000E+00 0. -1.
         -1   -1    0    0    0  501 -0.00000000000E+00 -0.00000000000E+00 -0.79055867535E+02  0.79055867535E+02  0.00000000000E+00 0.  1.
          6    2    1    2  502    0  0.23599261870E+02  0.15704956266E+02  0.37304109032E+03  0.41164760666E+03  0.17172805884E+03 0.  0.
         24    2    3    3    0    0 -0.86268759373E+01 -0.55850230577E+01  0.72114597918E+02  0.10821617947E+03  0.80028812287E+02 0.  0.
         -6    2    1    2    0  501 -0.23599261870E+02 -0.15704956266E+02  0.68914537349E+02  0.18841975608E+03  0.17305843004E+03 0.  0.
        -24    2    5    5    0    0  0.39634066818E+02  0.33724625170E+02  0.35736574255E+02  0.10144502059E+03  0.79408940725E+02 0.  0.
          5    1    3    3  502    0  0.32226137808E+02  0.21289979324E+02  0.30092649240E+03  0.30343142719E+03  0.47000000000E+01 0. -1.
        -11    1    4    4    0    0  0.23171553640E+02 -0.26412135785E+02  0.12070293828E+02  0.37151228888E+02  0.00000000000E+00 0.  1.
         12    1    4    4    0    0 -0.31798429577E+02  0.20827112727E+02  0.60044304090E+02  0.71064950586E+02  0.00000000000E+00 0. -1.
         -5    1    5    5    0  501 -0.63233328689E+02 -0.49429581437E+02  0.33177963094E+02  0.86974735487E+02  0.47000000000E+01 0.  1.
         11    1    6    6    0    0 -0.11841867840E+02  0.22455222471E+02  0.41277685496E+02  0.48459407447E+02  0.00000000000E+00 0. -1.
        -12    1    6    6    0    0  0.51475934658E+02  0.11269402700E+02 -0.55411112407E+01  0.52985613141E+02  0.00000000000E+00 0.  1.
</event>
<event>
12    1  0.1348628E-002  0.2676642E+03  0.7818608E-02  0.1102624E+00
         -1   -1    0    0    0  501 -0.00000000000E+00  0.00000000000E+00  0.11638624526E+03  0.11638624526E+03  0.00000000000E+00 0.  1.
          1   -1    0    0  502    0  0.00000000000E+00 -0.00000000000E+00 -0.91164882708E+03  0.91164882708E+03  0.00000000000E+00 0. -1.
          6    2    1    2  502    0  0.13874918095E+03  0.15131658098E+03 -0.69077779284E+03  0.74090015269E+03  0.17207857008E+03 0.  0.
         24    2    3    3    0    0  0.16697024648E+02  0.41440576840E+02 -0.14951865520E+03  0.17525626364E+03  0.79767271800E+02 0.  0.
         -6    2    1    2    0  501 -0.13874918095E+03 -0.15131658098E+03 -0.10448478899E+03  0.28713491965E+03  0.17140988321E+03 0.  0.
        -24    2    5    5    0    0 -0.22007547056E+02 -0.53083611121E+02 -0.90459912517E+02  0.13384724040E+03  0.80186570526E+02 0.  0.
          5    1    3    3  502    0  0.12205215630E+03  0.10987600414E+03 -0.54125913763E+03  0.56564388905E+03  0.47000000000E+01 0. -1.
        -13    1    4    4    0    0  0.18883929036E+02 -0.21380961917E+02 -0.44256589358E+02  0.52653527992E+02  0.00000000000E+00 0.  1.
         14    1    4    4    0    0 -0.21869043878E+01  0.62821538757E+02 -0.10526206584E+03  0.12260273565E+03  0.00000000000E+00 0. -1.
         -5    1    5    5    0  501 -0.11674163390E+03 -0.98232969857E+02 -0.14024876473E+02  0.15328767926E+03  0.47000000000E+01 0.  1.
         13    1    6    6    0    0  0.18979440789E+02 -0.37795184788E+02 -0.11910710915E+02  0.43938140611E+02  0.00000000000E+00 0. -1.
        -14    1    6    6    0    0 -0.40986987845E+02 -0.15288426332E+02 -0.78549201601E+02  0.89909099787E+02  0.00000000000E+00 0.  1.
</event>
<event>
12    1  0.1348628E-002  0.2018687E+03  0.7818608E-02  0.1148172E+00
          2   -1    0    0  502    0  0.00000000000E+00  0.00000000000E+00  0.12252733215E+04  0.12252733215E+04  0.00000000000E+00 0.  1.
         -2   -1    0    0    0  501 -0.00000000000E+00 -0.00000000000E+00 -0.51409704560E+02  0.51409704560E+02  0.00000000000E+00 0. -1.
          6    2    1    2  502    0  0.79358886677E+02  0.73960877924E+02  0.20464273449E+03  0.28633283806E+03  0.16834429308E+03 0.  0.
         24    2    3    3    0    0  0.10903542556E+03  0.26593004127E+02  0.17436801934E+03  0.22259069497E+03  0.80910440753E+02 0.  0.
         -6    2    1    2    0  501 -0.79358886677E+02 -0.73960877924E+02  0.96922088249E+03  0.99035018804E+03  0.17215205935E+03 0.  0.
        -24    2    5    5    0    0 -0.48375880605E+02 -0.61699600812E+02  0.29674807124E+03  0.31703595423E+03  0.79405994263E+02 0.  0.
          5    1    3    3  502    0 -0.29676538883E+02  0.47367873797E+02  0.30274715146E+02  0.63742143087E+02  0.47000000000E+01 0. -1.
        -11    1    4    4    0    0  0.13403542806E+02  0.63980360814E+01  0.96465899899E+02  0.97602559745E+02  0.00000000000E+00 0.  1.
         12    1    4    4    0    0  0.95631882754E+02  0.20194968045E+02  0.77902119441E+02  0.12498813522E+03  0.00000000000E+00 0. -1.
         -5    1    5    5    0  501 -0.30983006072E+02 -0.12261277112E+02  0.67247281124E+03  0.67331423380E+03  0.47000000000E+01 0.  1.
         11    1    6    6    0    0 -0.57364397503E+02 -0.70917082921E+02  0.28622645945E+03  0.30040887610E+03  0.00000000000E+00 0. -1.
        -12    1    6    6    0    0  0.89885168976E+01  0.92174821095E+01  0.10521611792E+02  0.16627078131E+02  0.00000000000E+00 0.  1.
</event>
<event>
12    1  0.1348628E-002  0.1830822E+03  0.7818608E-02  0.1164853E+00
         -2   -1    0    0    0  501 -0.00000000000E+00  0.00000000000E+00  0.25672740654E+02  0.25672740654E+02  0.00000000000E+00 0.  1.
          2   -1    0    0  502    0  0.00000000000E+00 -0.00000000000E+00 -0.14216478993E+04  0.14216478993E+04  0.00000000000E+00 0. -1.
          6    2    1    2  502    0 -0.10499959943E+02  0.64027906809E+02 -0.49128199853E+03  0.52428957277E+03  0.17120669386E+03 0.  0.
         24    2    3    3    0    0 -0.39030277163E+02 -0.27754077004E+01 -0.14514021363E+03  0.17057657175E+03  0.80620219522E+02 0.  0.
         -6    2    1    2    0  501  0.10499959943E+02 -0.64027906809E+02 -0.90469316014E+03  0.92303106721E+03  0.17119233343E+03 0.  0.
        -24    2    5    5    0    0  0.45300509139E+02  0.38095395078E+01 -0.55467746093E+03  0.56477685992E+03  0.96120586348E+02 0.  0.
          5    1    3    3  502    0  0.28530317220E+02  0.66803314510E+02 -0.34614178491E+03  0.35371300102E+03  0.47000000000E+01 0. -1.
        -11    1    4    4    0    0 -0.15639999313E+02 -0.27020970731E+02 -0.12342104351E+02  0.33571862885E+02  0.00000000000E+00 0.  1.
         12    1    4    4    0    0 -0.23390277850E+02  0.24245563031E+02 -0.13279810928E+03  0.13700470887E+03  0.00000000000E+00 0. -1.
         -5    1    5    5    0  501 -0.34800549196E+02 -0.67837446317E+02 -0.35001569921E+03  0.35825420729E+03  0.47000000000E+01 0.  1.
         13    1    6    6    0    0  0.42743425712E+01  0.43189604087E+02 -0.15099619186E+03  0.15710971282E+03  0.00000000000E+00 0. -1.
        -14    1    6    6    0    0  0.41026166568E+02 -0.39380064580E+02 -0.40368126907E+03  0.40766714710E+03  0.00000000000E+00 0.  1.
</event>
<event>
12    1  0.1348628E-002  0.1780439E+03  0.7818608E-02  0.1169710E+00
          2   -1    0    0  502    0  0.00000000000E+00  0.00000000000E+00  0.12652972770E+04  0.12652972770E+04  0.00000000000E+00 0.  1.
         -2   -1    0    0    0  501 -0.00000000000E+00 -0.00000000000E+00 -0.33788841602E+02  0.33788841602E+02  0.00000000000E+00 0. -1.
          6    2    1    2  502    0 -0.33215450023E+02  0.32536664302E+02  0.94565208595E+03  0.96223994970E+03  0.17171474164E+03 0.  0.
         24    2    3    3    0    0 -0.80756643904E+02  0.46405141440E+02  0.74634058463E+03  0.75681438086E+03  0.84075359830E+02 0.  0.
         -6    2    1    2    0  501  0.33215450023E+02 -0.32536664302E+02  0.28585634949E+03  0.33684616894E+03  0.17201624442E+03 0.  0.
        -24    2    5    5    0    0 -0.20940304562E+02 -0.24913156083E+02  0.68152555593E+02  0.11232891903E+03  0.83149585177E+02 0.  0.
          5    1    3    3  502    0  0.47541193881E+02 -0.13868477138E+02  0.19931150132E+03  0.20542556884E+03  0.47000000000E+01 0. -1.
        -11    1    4    4    0    0 -0.51432092330E+02  0.60460267519E+02  0.65627634900E+03  0.66105926385E+03  0.00000000000E+00 0.  1.
         12    1    4    4    0    0 -0.29324551573E+02 -0.14055126080E+02  0.90064235630E+02  0.95755117011E+02  0.00000000000E+00 0. -1.
         -5    1    5    5    0  501  0.54155754584E+02 -0.76235082189E+01  0.21770379389E+03  0.22451724991E+03  0.47000000000E+01 0.  1.
         11    1    6    6    0    0 -0.46708866628E+02 -0.15746025556E+02  0.69197327432E+02  0.84958376081E+02  0.00000000000E+00 0. -1.
        -12    1    6    6    0    0  0.25768562067E+02 -0.91671305274E+01 -0.10447718389E+01  0.27370542948E+02  0.00000000000E+00 0.  1.
</event>
<event>
12    1  0.1348628E-002  0.3488307E+03  0.7818608E-02  0.1063096E+00
          1   -1    0    0  502    0  0.00000000000E+00  0.00000000000E+00  0.31226844748E+03  0.31226844748E+03  0.00000000000E+00 0. -1.
         -1   -1    0    0    0  501 -0.00000000000E+00 -0.00000000000E+00 -0.41772017249E+03  0.41772017249E+03  0.00000000000E+00 0.  1.
          6    2    1    2  502    0  0.57997063247E+02  0.29797250377E+03  0.41846990157E+02  0.35135411898E+03  0.17189320520E+03 0.  0.
         24    2    3    3    0    0 -0.13185402384E+02  0.16032815008E+03  0.43344536813E+02  0.19631462672E+03  0.10383502900E+03 0.  0.
         -6    2    1    2    0  501 -0.57997063247E+02 -0.29797250377E+03 -0.14729871517E+03  0.37863450099E+03  0.17180192521E+03 0.  0.
        -24    2    5    5    0    0 -0.44282941892E+01 -0.25866577679E+03 -0.93965813468E+02  0.29330502069E+03  0.10134430025E+03 0.  0.
          5    1    3    3  502    0  0.71182465631E+02  0.13764435369E+03 -0.14975466558E+01  0.15503949227E+03  0.47000000000E+01 0. -1.
        -13    1    4    4    0    0 -0.58480958751E+00  0.48526400289E+02 -0.34462496421E+02  0.59521569089E+02  0.00000000000E+00 0.  1.
         14    1    4    4    0    0 -0.12600592797E+02  0.11180174979E+03  0.77807033234E+02  0.13679305763E+03  0.00000000000E+00 0. -1.
         -5    1    5    5    0  501 -0.53568769058E+02 -0.39306726979E+02 -0.53332901700E+02  0.85329480298E+02  0.47000000000E+01 0.  1.
         11    1    6    6    0    0 -0.26478107736E+02 -0.19840135406E+03 -0.29461314746E+02  0.20231697050E+03  0.00000000000E+00 0. -1.
        -12    1    6    6    0    0  0.22049813547E+02 -0.60264422723E+02 -0.64504498722E+02  0.90988050199E+02  0.00000000000E+00 0.  1.
</event>
<event>
12    1  0.1348628E-002  0.1715299E+03  0.7818608E-02  0.1176262E+00
         -3   -1    0    0    0  501 -0.00000000000E+00  0.00000000000E+00  0.44081780138E+03  0.44081780138E+03  0.00000000000E+00 0.  1.
          3   -1    0    0  502    0  0.00000000000E+00 -0.00000000000E+00 -0.10192008777E+03  0.10192008777E+03  0.00000000000E+00 0. -1.
          6    2    1    2  502    0  0.24900474283E+01  0.15055246421E+02  0.10496833037E+02  0.17257064284E+03  0.17157383975E+03 0.  0.
         24    2    3    3    0    0 -0.27100070753E+02  0.46766399266E+02 -0.41183763566E+02  0.10493820703E+03  0.79965085996E+02 0.  0.
         -6    2    1    2    0  501 -0.24900474283E+01 -0.15055246421E+02  0.32840088058E+03  0.37016724630E+03  0.17012874857E+03 0.  0.
        -24    2    5    5    0    0 -0.30751250296E+02  0.27421611221E+02  0.93740626760E+02  0.12997877084E+03  0.80059925101E+02 0.  0.
          5    1    3    3  502    0  0.29590118181E+02 -0.31711152846E+02  0.51680596603E+02  0.67632435813E+02  0.47000000000E+01 0. -1.
        -13    1    4    4    0    0 -0.33992742202E+02  0.66842271039E+02 -0.35479325092E+02  0.82958894816E+02  0.00000000000E+00 0.  1.
         14    1    4    4    0    0  0.68926714493E+01 -0.20075871773E+02 -0.57044384744E+01  0.21979312215E+02  0.00000000000E+00 0. -1.
         -5    1    5    5    0  501  0.28261202868E+02 -0.42476857641E+02  0.23466025382E+03  0.24018847546E+03  0.47000000000E+01 0.  1.
         13    1    6    6    0    0  0.22040760693E+02  0.28978969371E+02  0.46993082028E+02  0.59446829657E+02  0.00000000000E+00 0. -1.
        -14    1    6    6    0    0 -0.52792010989E+02 -0.15573581505E+01  0.46747544732E+02  0.70531941184E+02  0.00000000000E+00 0.  1.
</event>
<event>
12    1  0.1348628E-002  0.1816422E+03  0.7818608E-02  0.1166223E+00
          1   -1    0    0  502    0  0.00000000000E+00  0.00000000000E+00  0.91283937512E+02  0.91283937512E+02  0.00000000000E+00 0.  1.
         -1   -1    0    0    0  501 -0.00000000000E+00 -0.00000000000E+00 -0.41710275222E+03  0.41710275222E+03  0.00000000000E+00 0. -1.
          6    2    1    2  502    0 -0.55648894329E+02 -0.76487858072E+01 -0.25479546665E+03  0.31220354331E+03  0.17144975727E+03 0.  0.
         24    2    3    3    0    0 -0.62735103753E+02 -0.54839067384E+02 -0.10752718732E+03  0.15732561352E+03  0.79033132946E+02 0.  0.
         -6    2    1    2    0  501  0.55648894329E+02  0.76487858072E+01 -0.71023348060E+02  0.19618314642E+03  0.17403507579E+03 0.  0.
        -24    2    5    5    0    0 -0.83457160967E+01 -0.22116161719E+02 -0.91356144737E+02  0.12258440400E+03  0.78244586631E+02 0.  0.
          5    1    3    3  502    0  0.70862094242E+01  0.47190281577E+02 -0.14726827933E+03  0.15487792979E+03  0.47000000000E+01 0. -1.
        -11    1    4    4    0    0 -0.60288154918E+02 -0.26975378758E+01 -0.73117330680E+02  0.94805497625E+02  0.00000000000E+00 0.  1.
         12    1    4    4    0    0 -0.24469488347E+01 -0.52141529508E+02 -0.34409856638E+02  0.62520115898E+02  0.00000000000E+00 0. -1.
         -5    1    5    5    0  501  0.63994610426E+02  0.29764947526E+02  0.20332796677E+02  0.73598742418E+02  0.47000000000E+01 0.  1.
         13    1    6    6    0    0 -0.28321837986E+02  0.15815592513E+02 -0.63938106844E+02  0.71696171308E+02  0.00000000000E+00 0. -1.
        -14    1    6    6    0    0  0.19976121889E+02 -0.37931754232E+02 -0.27418037893E+02  0.50888232694E+02  0.00000000000E+00 0.  1.
</event>
<event>
12    1  0.1348628E-002  0.2071578E+03  0.7818608E-02  0.1143837E+00
          1   -1    0    0  502    0  0.00000000000E+00  0.00000000000E+00  0.27921090406E+03  0.27921090406E+03  0.00000000000E+00 0.  1.
         -1   -1    0    0    0  501 -0.00000000000E+00 -0.00000000000E+00 -0.25983082486E+03  0.25983082486E+03  0.00000000000E+00 0. -1.
          6    2    1    2  502    0  0.10902050620E+03  0.30146881257E+02  0.18199125062E+03  0.27826855206E+03  0.17753384618E+03 0.  0.
         24    2    3    3    0    0  0.72321889201E+02 -0.48342894671E+02  0.74223498349E+02  0.13990883305E+03  0.80609321634E+02 0.  0.
         -6    2    1    2    0  501 -0.10902050620E+03 -0.30146881257E+02 -0.16261117142E+03  0.26077317687E+03  0.16960528140E+03 0.  0.
        -24    2    5    5    0    0 -0.27283438623E+02  0.33986515332E+02 -0.10993126904E+03  0.14419143349E+03  0.82503432231E+02 0.  0.
          5    1    3    3  502    0  0.36698617002E+02  0.78489775928E+02  0.10776775227E+03  0.13835971901E+03  0.47000000000E+01 0. -1.
        -13    1    4    4    0    0 -0.66783882213E+01 -0.37906584835E+02  0.18747676494E+02  0.42813378948E+02  0.00000000000E+00 0.  1.
         14    1    4    4    0    0  0.79000277422E+02 -0.10436309836E+02  0.55475821855E+02  0.97095454097E+02  0.00000000000E+00 0. -1.
         -5    1    5    5    0  501 -0.81737067580E+02 -0.64133396589E+02 -0.52679902376E+02  0.11658174338E+03  0.47000000000E+01 0.  1.
         13    1    6    6    0    0 -0.36848036581E+02  0.14466384546E+02 -0.11521087981E+03  0.12182200502E+03  0.00000000000E+00 0. -1.
        -14    1    6    6    0    0  0.95645979578E+01  0.19520130786E+02  0.52796107640E+01  0.22369428464E+02  0.00000000000E+00 0.  1.
</event>
<event>
12    1  0.1348628E-002  0.1921328E+03  0.7818608E-02  0.1156552E+00
          1   -1    0    0  502    0  0.00000000000E+00  0.00000000000E+00  0.10419866803E+04  0.10419866803E+04  0.00000000000E+00 0.  1.
         -1   -1    0    0    0  501 -0.00000000000E+00 -0.00000000000E+00 -0.35439965632E+02  0.35439965632E+02  0.00000000000E+00 0. -1.
          6    2    1    2  502    0 -0.74269797993E+02 -0.36506279319E+02  0.51283264887E+03  0.54757341601E+03  0.17317796873E+03 0.  0.
         24    2    3    3    0    0 -0.11795514069E+03 -0.32688683881E+02  0.35163040567E+03  0.38044700752E+03  0.78192186769E+02 0.  0.
         -6    2    1    2    0  501  0.74269797993E+02  0.36506279319E+02  0.49371406585E+03  0.52985322997E+03  0.17361496240E+03 0.  0.
        -24    2    5    5    0    0  0.11520190249E+03  0.12383584581E+02  0.30977939556E+03  0.33982324677E+03  0.78049558793E+02 0.  0.
          5    1    3    3  502    0  0.43685342700E+02 -0.38175954382E+01  0.16120224320E+03  0.16712640849E+03  0.47000000000E+01 0. -1.
        -13    1    4    4    0    0 -0.46143701014E+02 -0.41468495495E+02  0.23625916139E+03  0.24426884493E+03  0.00000000000E+00 0.  1.
         14    1    4    4    0    0 -0.71811439680E+02  0.87798116143E+01  0.11537124428E+03  0.13617816259E+03  0.00000000000E+00 0. -1.
         -5    1    5    5    0  501 -0.40932104499E+02  0.24122694738E+02  0.18393467029E+03  0.19002998320E+03  0.47000000000E+01 0.  1.
         11    1    6    6    0    0  0.52652886777E-01 -0.19839551569E+02  0.36891159232E+02  0.41887566273E+02  0.00000000000E+00 0. -1.
        -12    1    6    6    0    0  0.11514924961E+03  0.32223136149E+02  0.27288823633E+03  0.29793568050E+03  0.00000000000E+00 0.  1.
</event>
<event>
12    1  0.1348628E-002  0.2126170E+03  0.7818608E-02  0.1139510E+00
          2   -1    0    0  502    0  0.00000000000E+00  0.00000000000E+00  0.16532768101E+04  0.16532768101E+04  0.00000000000E+00 0.  1.
         -2   -1    0    0    0  501 -0.00000000000E+00 -0.00000000000E+00 -0.27845373013E+02  0.27845373013E+02  0.00000000000E+00 0. -1.
          6    2    1    2  502    0 -0.23930390854E+02 -0.12184584821E+03  0.69930624517E+03  0.73087223023E+03  0.17241205889E+03 0.  0.
         24    2    3    3    0    0  0.45039058925E+01 -0.15009817270E+03  0.52744068838E+03  0.55433168904E+03  0.80871472745E+02 0.  0.
         -6    2    1    2    0  501  0.23930390854E+02  0.12184584821E+03  0.92612519189E+03  0.95024995286E+03  0.17276581700E+03 0.  0.
        -24    2    5    5    0    0  0.45531453648E+02  0.95315769916E+02  0.89167250760E+03  0.90146954262E+03  0.80057892799E+02 0.  0.
          5    1    3    3  502    0 -0.28434296747E+02  0.28252324488E+02  0.17186555679E+03  0.17654054118E+03  0.47000000000E+01 0. -1.
        -11    1    4    4    0    0 -0.12263626623E+02 -0.10548011173E+03  0.45771047066E+03  0.46986734879E+03  0.00000000000E+00 0.  1.
         12    1    4    4    0    0  0.16767532515E+02 -0.44618060965E+02  0.69730217721E+02  0.84464340253E+02  0.00000000000E+00 0. -1.
         -5    1    5    5    0  501 -0.21601062793E+02  0.26530078293E+02  0.34452684285E+02  0.48780410233E+02  0.47000000000E+01 0.  1.
         13    1    6    6    0    0 -0.13826477149E+02  0.15269889141E+02  0.52434772207E+02  0.56336012648E+02  0.00000000000E+00 0. -1.
        -14    1    6    6    0    0  0.59357930797E+02  0.80045880774E+02  0.83923773540E+03  0.84513352998E+03  0.00000000000E+00 0.  1.
</event>
<event>
12    1  0.1348628E-002  0.1898719E+03  0.7818608E-02  0.1158577E+00
          1   -1    0    0  502    0  0.00000000000E+00  0.00000000000E+00  0.23445290056E+03  0.23445290056E+03  0.00000000000E+00 0. -1.
         -1   -1    0    0    0  501 -0.00000000000E+00 -0.00000000000E+00 -0.17436106024E+03  0.17436106024E+03  0.00000000000E+00 0.  1.
          6    2    1    2  502    0 -0.63153887438E+02  0.48738012111E+02  0.10032204527E+03  0.21492920847E+03  0.17252896731E+03 0.  0.
         24    2    3    3    0    0  0.18332690386E+02  0.44065123881E+02  0.94183661086E+02  0.13294342915E+03  0.80781004320E+02 0.  0.
         -6    2    1    2    0  501  0.63153887438E+02 -0.48738012111E+02 -0.40230204943E+02  0.19388475234E+03  0.17207271857E+03 0.  0.
        -24    2    5    5    0    0 -0.14281841763E+02 -0.47755200937E+02  0.20015887051E+02  0.95655735875E+02  0.79150829753E+02 0.  0.
          5    1    3    3  502    0 -0.81486577824E+02  0.46728882300E+01  0.61383841797E+01  0.81985779317E+02  0.47000000000E+01 0. -1.
        -11    1    4    4    0    0 -0.15224923670E+02  0.12201231116E+02 -0.77530501654E+01  0.20994716678E+02  0.00000000000E+00 0.  1.
         12    1    4    4    0    0  0.33557614056E+02  0.31863892765E+02  0.10193671125E+03  0.11194871247E+03  0.00000000000E+00 0. -1.
         -5    1    5    5    0  501  0.77435729201E+02 -0.98281117451E+00 -0.60246091994E+02  0.98229016463E+02  0.47000000000E+01 0.  1.
         13    1    6    6    0    0 -0.11491890167E+02  0.18338434586E+02 -0.89758375127E+01  0.23429199340E+02  0.00000000000E+00 0. -1.
        -14    1    6    6    0    0 -0.27899515962E+01 -0.66093635523E+02  0.28991724564E+02  0.72226536534E+02  0.00000000000E+00 0.  1.
</event>
<event>
12    1  0.1348628E-002  0.1813815E+03  0.7818608E-02  0.1166473E+00
          2   -1    0    0  502    0  0.00000000000E+00  0.00000000000E+00  0.17088781960E+04  0.17088781960E+04  0.00000000000E+00 0. -1.
         -2   -1    0    0    0  501 -0.00000000000E+00 -0.00000000000E+00 -0.22015022800E+02  0.22015022800E+02  0.00000000000E+00 0.  1.
          6    2    1    2  502    0  0.15140012166E+00  0.54780931892E+02  0.11460513151E+04  0.11601648232E+04  0.17189481287E+03 0.  0.
         24    2    3    3    0    0 -0.23322725538E+02 -0.74802767239E+01  0.31487428069E+03  0.32631540920E+03  0.82073318283E+02 0.  0.
         -6    2    1    2    0  501 -0.15140012166E+00 -0.54780931892E+02  0.54081185808E+03  0.57072839560E+03  0.17393234972E+03 0.  0.
        -24    2    5    5    0    0  0.54636968075E+02 -0.20904940950E+02  0.43786947447E+03  0.44920238030E+03  0.81430258212E+02 0.  0.
          5    1    3    3  502    0  0.23474125659E+02  0.62261208616E+02  0.83117703439E+03  0.83384941397E+03  0.47000000000E+01 0. -1.
        -11    1    4    4    0    0 -0.40752152798E+02 -0.13651521324E+02  0.29862007562E+03  0.30169695317E+03  0.00000000000E+00 0.  1.
         12    1    4    4    0    0  0.17429427261E+02  0.61712445999E+01  0.16254205074E+02  0.24618456026E+02  0.00000000000E+00 0. -1.
         -5    1    5    5    0  501 -0.54788368197E+02 -0.33875990942E+02  0.10294238361E+03  0.12152601530E+03  0.47000000000E+01 0.  1.
         11    1    6    6    0    0  0.27623699395E+02 -0.29944488460E+02  0.39866851888E+03  0.40074471812E+03  0.00000000000E+00 0. -1.
        -12    1    6    6    0    0  0.27013268680E+02  0.90395475104E+01  0.39200955594E+02  0.48457662175E+02  0.00000000000E+00 0.  1.
</event>
<event>
12    1  0.1348628E-002  0.1812908E+03  0.7818608E-02  0.1166560E+00
         -1   -1    0    0    0  501 -0.00000000000E+00  0.00000000000E+00  0.57177167894E+02  0.57177167894E+02  0.00000000000E+00 0.  1.
          1   -1    0    0  502    0  0.00000000000E+00 -0.00000000000E+00 -0.63024396196E+03  0.63024396196E+03  0.00000000000E+00 0. -1.
          6    2    1    2  502    0 -0.33412926080E+02  0.47442826875E+02 -0.18545622967E+03  0.25975781587E+03  0.17237419857E+03 0.  0.
         24    2    3    3    0    0  0.11409641455E+02  0.79076904804E+02 -0.16638843311E+03  0.20148734039E+03  0.80800376693E+02 0.  0.
         -6    2    1    2    0  501  0.33412926080E+02 -0.47442826875E+02 -0.38761056440E+03  0.42766331399E+03  0.17113361752E+03 0.  0.
        -24    2    5    5    0    0  0.20376824814E+02 -0.95378631723E+02 -0.23054787857E+03  0.26286477454E+03  0.80207649285E+02 0.  0.
          5    1    3    3  502    0 -0.44822567534E+02 -0.31634077929E+02 -0.19067796557E+02  0.58270475477E+02  0.47000000000E+01 0. -1.
        -13    1    4    4    0    0  0.14013251495E+02  0.48674861277E+02 -0.24336196507E+02  0.56194873416E+02  0.00000000000E+00 0.  1.
         14    1    4    4    0    0 -0.26036100404E+01  0.30402043527E+02 -0.14205223660E+03  0.14529246698E+03  0.00000000000E+00 0. -1.
         -5    1    5    5    0  501  0.13036101266E+02  0.47935804848E+02 -0.15706268583E+03  0.16479853945E+03  0.47000000000E+01 0.  1.
         11    1    6    6    0    0  0.25213880016E+02 -0.50034294275E+02 -0.20067480083E+03  0.20834957652E+03  0.00000000000E+00 0. -1.
        -12    1    6    6    0    0 -0.48370552022E+01 -0.45344337448E+02 -0.29873077741E+02  0.54515198022E+02  0.00000000000E+00 0.  1.
</event>
<event>
12    1  0.1348628E-002  0.1721943E+03  0.7818608E-02  0.1175579E+00
         -2   -1    0    0    0  501 -0.00000000000E+00  0.00000000000E+00  0.20411681655E+02  0.20411681655E+02  0.00000000000E+00 0.  1.
          2   -1    0    0  502    0  0.00000000000E+00 -0.00000000000E+00 -0.14572384766E+04  0.14572384766E+04  0.00000000000E+00 0. -1.
          6    2    1    2  502    0 -0.57609346652E+01 -0.50399103378E+02 -0.66061825349E+03  0.68099669934E+03  0.15737461571E+03 0.  0.
         24    2    3    3    0    0 -0.48323737716E+02 -0.29597783385E+02 -0.57561824115E+03  0.58357298962E+03  0.77523301392E+02 0.  0.
         -6    2    1    2    0  501  0.57609346652E+01  0.50399103378E+02 -0.77620854140E+03  0.79665345887E+03  0.17199934823E+03 0.  0.
        -24    2    5    5    0    0 -0.62539578086E+02  0.44493128049E+02 -0.41980923027E+03  0.43369010044E+03  0.77178210195E+02 0.  0.
          5    1    3    3  502    0  0.42562803051E+02 -0.20801319993E+02 -0.85000012339E+02  0.97423709715E+02  0.47000000000E+01 0. -1.
        -13    1    4    4    0    0 -0.38713867003E+02 -0.19902506161E+01 -0.10302739093E+03  0.11007891659E+03  0.00000000000E+00 0.  1.
         14    1    4    4    0    0 -0.96098707133E+01 -0.27607532768E+02 -0.47259085022E+03  0.47349407303E+03  0.00000000000E+00 0. -1.
         -5    1    5    5    0  501  0.68300512751E+02  0.59059753287E+01 -0.35639931113E+03  0.36296335843E+03  0.47000000000E+01 0.  1.
         11    1    6    6    0    0 -0.10607800051E+02  0.22870575140E+02 -0.30293898531E+03  0.30398621260E+03  0.00000000000E+00 0. -1.
        -12    1    6    6    0    0 -0.51931778035E+02  0.21622552909E+02 -0.11687024496E+03  0.12970388784E+03  0.00000000000E+00 0.  1.
</event>
<event>
12    1  0.1348628E-002  0.2464617E+03  0.7818608E-02  0.1115562E+00
         -2   -1    0    0    0  501 -0.00000000000E+00  0.00000000000E+00  0.43858923313E+02  0.43858923313E+02  0.00000000000E+00 0.  1.
          2   -1    0    0  502    0  0.00000000000E+00 -0.00000000000E+00 -0.19391100308E+04  0.19391100308E+04  0.00000000000E+00 0. -1.
          6    2    1    2  502    0  0.15751486462E+03  0.81522957646E+02 -0.15118649939E+04  0.15340881818E+04  0.19035194875E+03 0.  0.
         24    2    3    3    0    0  0.50053015796E+01  0.64917501590E+02 -0.48586014693E+03  0.49666688642E+03  0.79866004249E+02 0.  0.
         -6    2    1    2    0  501 -0.15751486462E+03 -0.81522957646E+02 -0.38338611351E+03  0.44888077229E+03  0.15182921490E+03 0.  0.
        -24    2    5    5    0    0 -0.85931405330E+02 -0.90598209309E+01 -0.27918855501E+03  0.30309216154E+03  0.80326349111E+02 0.  0.
          5    1    3    3  502    0  0.15250956305E+03  0.16605456056E+02 -0.10260048470E+04  0.10374212954E+04  0.47000000000E+01 0. -1.
        -11    1    4    4    0    0  0.24919225360E+02  0.75335259878E+02 -0.34366825486E+03  0.35270985040E+03  0.00000000000E+00 0.  1.
         12    1    4    4    0    0 -0.19913923781E+02 -0.10417758287E+02 -0.14219189208E+03  0.14395703602E+03  0.00000000000E+00 0. -1.
         -5    1    5    5    0  501 -0.71583459295E+02 -0.72463136715E+02 -0.10419755851E+03  0.14578861075E+03  0.47000000000E+01 0.  1.
         11    1    6    6    0    0 -0.97952186243E+02  0.13067353660E+01 -0.26190350074E+03  0.27962435883E+03  0.00000000000E+00 0. -1.
        -12    1    6    6    0    0  0.12020780914E+02 -0.10366556297E+02 -0.17285054264E+02  0.23467802712E+02  0.00000000000E+00 0.  1.
</event>
<event>
12    1  0.1348628E-002  0.1782188E+03  0.7818608E-02  0.1169538E+00
         -1   -1    0    0    0  501 -0.00000000000E+00  0.00000000000E+00  0.34685316955E+02  0.34685316955E+02  0.00000000000E+00 0.  1.
          1   -1    0    0  502    0  0.00000000000E+00 -0.00000000000E+00 -0.25150178630E+04  0.25150178630E+04  0.00000000000E+00 0. -1.
          6    2    1    2  502    0 -0.32517372661E+02 -0.22001694650E+02 -0.23076529144E+03  0.29330498431E+03  0.17673069908E+03 0.  0.
         24    2    3    3    0    0  0.36077946613E+02  0.23901465954E+02 -0.95636199850E+02  0.13489292867E+03  0.84716711316E+02 0.  0.
         -6    2    1    2    0  501  0.32517372661E+02  0.22001694650E+02 -0.22495672546E+04  0.22563981956E+04  0.17099277826E+03 0.  0.
        -24    2    5    5    0    0 -0.76086929316E+01 -0.48678876067E+02 -0.11161186962E+04  0.11200296072E+04  0.79484915836E+02 0.  0.
          5    1    3    3  502    0 -0.68595319274E+02 -0.45903160603E+02 -0.13512909159E+03  0.15841205564E+03  0.47000000000E+01 0. -1.
        -13    1    4    4    0    0  0.39921659858E+02  0.47030837515E+02 -0.92576317142E+02  0.11124753075E+03  0.00000000000E+00 0.  1.
         14    1    4    4    0    0 -0.38437132444E+01 -0.23129371561E+02 -0.30598827077E+01  0.23645397914E+02  0.00000000000E+00 0. -1.
         -5    1    5    5    0  501  0.40126065592E+02  0.70680570716E+02 -0.11334485584E+04  0.11363685884E+04  0.47000000000E+01 0.  1.
         11    1    6    6    0    0  0.19503318058E+02 -0.35259051477E+02 -0.96876828745E+03  0.96960588638E+03  0.00000000000E+00 0. -1.
        -12    1    6    6    0    0 -0.27112010989E+02 -0.13419824589E+02 -0.14735040875E+03  0.15042372083E+03  0.00000000000E+00 0.  1.
</event>
<event>
12    1  0.1348628E-002  0.2322549E+03  0.7818608E-02  0.1125063E+00
          2   -1    0    0  502    0  0.00000000000E+00  0.00000000000E+00  0.60705331987E+03  0.60705331987E+03  0.00000000000E+00 0.  1.
         -2   -1    0    0    0  501 -0.00000000000E+00 -0.00000000000E+00 -0.13284753674E+03  0.13284753674E+03  0.00000000000E+00 0. -1.
          6    2    1    2  502    0  0.10758122850E+02 -0.15803525668E+03  0.44899117838E+03  0.50484884867E+03  0.16789402068E+03 0.  0.
         24    2    3    3    0    0  0.36314451727E+02 -0.13110317726E+03  0.43810041653E+03  0.46587242578E+03  0.81230287726E+02 0.  0.
         -6    2    1    2    0  501 -0.10758122850E+02  0.15803525668E+03  0.25214604748E+02  0.23505200794E+03  0.17182197351E+03 0.  0.
        -24    2    5    5    0    0  0.24615712555E+02  0.31747685719E+02 -0.22412935626E+02  0.95444230887E+02  0.83626626579E+02 0.  0.
          5    1    3    3  502    0 -0.25556328878E+02 -0.26932079424E+02  0.10890761848E+02  0.38976422892E+02  0.47000000000E+01 0. -1.
        -11    1    4    4    0    0 -0.37271465324E+01 -0.11472735082E+03  0.33239851511E+03  0.35166038943E+03  0.00000000000E+00 0.  1.
         12    1    4    4    0    0  0.40041598260E+02 -0.16375826444E+02  0.10570190143E+03  0.11421203635E+03  0.00000000000E+00 0. -1.
         -5    1    5    5    0  501 -0.35373835405E+02  0.12628757096E+03  0.47627540374E+02  0.13960777705E+03  0.47000000000E+01 0.  1.
         11    1    6    6    0    0  0.50855267453E+02  0.69150201239E+00 -0.46367581210E+01  0.51070891207E+02  0.00000000000E+00 0. -1.
        -12    1    6    6    0    0 -0.26239554898E+02  0.31056183707E+02 -0.17776177505E+02  0.44373339680E+02  0.00000000000E+00 0.  1.
</event>
<event>
12    1  0.1348628E-002  0.2222811E+03  0.7818608E-02  0.1132194E+00
          2   -1    0    0  502    0  0.00000000000E+00  0.00000000000E+00  0.88306125872E+03  0.88306125872E+03  0.00000000000E+00 0.  1.
         -2   -1    0    0    0  501 -0.00000000000E+00 -0.00000000000E+00 -0.56178428801E+02  0.56178428801E+02  0.00000000000E+00 0. -1.
          6    2    1    2  502    0  0.14082605297E+03 -0.47183803948E+01  0.38388647234E+03  0.44366958667E+03  0.17210356818E+03 0.  0.
         24    2    3    3    0    0  0.57798016366E+02  0.24157327509E+02  0.31448836505E+03  0.33157298251E+03  0.84341708590E+02 0.  0.
         -6    2    1    2    0  501 -0.14082605297E+03  0.47183803948E+01  0.44299635758E+03  0.49557010085E+03  0.17172568742E+03 0.  0.
        -24    2    5    5    0    0 -0.52764075534E+02 -0.31972685359E+02  0.11613020165E+03  0.15503417019E+03  0.82116197650E+02 0.  0.
          5    1    3    3  502    0  0.83028036605E+02 -0.28875707904E+02  0.69398107287E+02  0.11209660416E+03  0.47000000000E+01 0. -1.
        -13    1    4    4    0    0 -0.18862454950E+02  0.37719439340E+01  0.25781568598E+02  0.32166893651E+02  0.00000000000E+00 0.  1.
         14    1    4    4    0    0  0.76660471316E+02  0.20385383575E+02  0.28870679646E+03  0.29940608886E+03  0.00000000000E+00 0. -1.
         -5    1    5    5    0  501 -0.88061977437E+02  0.36691065754E+02  0.32686615593E+03  0.34053593066E+03  0.47000000000E+01 0.  1.
         13    1    6    6    0    0 -0.49800041150E+02  0.14069505287E+02  0.37648083892E+02  0.63995103706E+02  0.00000000000E+00 0. -1.
        -14    1    6    6    0    0 -0.29640343833E+01 -0.46042190646E+02  0.78482117758E+02  0.91039066489E+02  0.00000000000E+00 0.  1.
</event>
<event>
12    1  0.1348628E-002  0.2637117E+03  0.7818608E-02  0.1104933E+00
         -2   -1    0    0    0  501 -0.00000000000E+00  0.00000000000E+00  0.71704607179E+02  0.71704607179E+02  0.00000000000E+00 0.  1.
          2   -1    0    0  502    0  0.00000000000E+00 -0.00000000000E+00 -0.12505884838E+04  0.12505884838E+04  0.00000000000E+00 0. -1.
          6    2    1    2  502    0  0.17778201006E+03 -0.92495926141E+02 -0.90106356651E+03  0.93860045073E+03  0.16998033938E+03 0.  0.
         24    2    3    3    0    0  0.62493962303E+02  0.76745205070E+01 -0.46006949445E+03  0.47188499789E+03  0.83947113811E+02 0.  0.
         -6    2    1    2    0  501 -0.17778201006E+03  0.92495926141E+02 -0.27782031012E+03  0.38369264025E+03  0.17284090377E+03 0.  0.
        -24    2    5    5    0    0 -0.80826555332E+02  0.51233724259E+02 -0.48975174839E+02  0.13171026895E+03  0.76099938556E+02 0.  0.
          5    1    3    3  502    0  0.11528804775E+03 -0.10017044665E+03 -0.44099407206E+03  0.46671545285E+03  0.47000000000E+01 0. -1.
        -11    1    4    4    0    0  0.54149997784E+02  0.88242428124E+01 -0.12266700250E+03  0.13437739030E+03  0.00000000000E+00 0.  1.
         12    1    4    4    0    0  0.83439645185E+01 -0.11497223054E+01 -0.33740249195E+03  0.33750760759E+03  0.00000000000E+00 0. -1.
         -5    1    5    5    0  501 -0.96955454723E+02  0.41262201882E+02 -0.22884513528E+03  0.25198237130E+03  0.47000000000E+01 0.  1.
         11    1    6    6    0    0 -0.36041999740E+01 -0.16432408811E+02 -0.17605205345E+02  0.24350720154E+02  0.00000000000E+00 0. -1.
        -12    1    6    6    0    0 -0.77222355358E+02  0.67666133070E+02 -0.31369969494E+02  0.10735954880E+03  0.00000000000E+00 0.  1.
</event>
<event>
12    1  0.1348628E-002  0.2179364E+03  0.7818608E-02  0.1135431E+00
         -1   -1    0    0    0  501 -0.00000000000E+00  0.00000000000E+00  0.97278827299E+02  0.97278827299E+02  0.00000000000E+00 0. -1.
          1   -1    0    0  502    0  0.00000000000E+00 -0.00000000000E+00 -0.48843356416E+03  0.48843356416E+03  0.00000000000E+00 0.  1.
          6    2    1    2  502    0 -0.46501608833E+02 -0.12708552521E+03 -0.19265516058E+03  0.28778259968E+03  0.16549828833E+03 0.  0.
         24    2    3    3    0    0  0.32964266396E+02 -0.46545299303E+02 -0.11631280017E+03  0.15121100927E+03  0.77993551619E+02 0.  0.
         -6    2    1    2    0  501  0.46501608833E+02  0.12708552521E+03 -0.19849957628E+03  0.29792979178E+03  0.17620144354E+03 0.  0.
        -24    2    5    5    0    0  0.30559709640E+02  0.15282210027E+03 -0.12167055554E+03  0.21521761690E+03  0.85008284036E+02 0.  0.
          5    1    3    3  502    0 -0.79465875228E+02 -0.80540225905E+02 -0.76342360407E+02  0.13657159041E+03  0.47000000000E+01 0. -1.
        -13    1    4    4    0    0  0.12110323062E+01 -0.52673073948E+02 -0.10404252599E+03  0.11662232433E+03  0.00000000000E+00 0.  1.
         14    1    4    4    0    0  0.31753234090E+02  0.61277746449E+01 -0.12270274185E+02  0.34588684939E+02  0.00000000000E+00 0. -1.
         -5    1    5    5    0  501  0.15941899192E+02 -0.25736575058E+02 -0.76829020745E+02  0.82712174885E+02  0.47000000000E+01 0.  1.
         13    1    6    6    0    0  0.55584839957E+02  0.62400319389E+02 -0.53115133913E+02  0.99018643414E+02  0.00000000000E+00 0. -1.
        -14    1    6    6    0    0 -0.25025130317E+02  0.90421780876E+02 -0.68555421623E+02  0.11619897348E+03  0.00000000000E+00 0.  1.
</event>
<event>
12    1  0.1348628E-002  0.1978476E+03  0.7818608E-02  0.1151568E+00
          1   -1    0    0  502    0  0.00000000000E+00  0.00000000000E+00  0.15478812664E+04  0.15478812664E+04  0.00000000000E+00 0. -1.
         -1   -1    0    0    0  501 -0.00000000000E+00 -0.00000000000E+00 -0.26919028028E+02  0.26919028028E+02  0.00000000000E+00 0.  1.
          6    2    1    2  502    0  0.89648581234E+02 -0.41247124652E+02  0.56423514693E+03  0.59769075431E+03  0.17068902527E+03 0.  0.
         24    2    3    3    0    0  0.11744077529E+03 -0.97962673680E+01  0.50573232113E+03  0.52553652297E+03  0.80840297993E+02 0.  0.
         -6    2    1    2    0  501 -0.89648581234E+02  0.41247124652E+02  0.95672709147E+03  0.97710954015E+03  0.17227342360E+03 0.  0.
        -24    2    5    5    0    0 -0.95135263764E+01  0.68442863203E+02  0.38305444365E+03  0.39720986600E+03  0.79183572431E+02 0.  0.
          5    1    3    3  502    0 -0.27792194055E+02 -0.31450857284E+02  0.58502825794E+02  0.72154231339E+02  0.47000000000E+01 0. -1.
        -11    1    4    4    0    0  0.24789627254E+02 -0.38580655192E+02  0.16761878515E+03  0.17377873779E+03  0.00000000000E+00 0.  1.
         12    1    4    4    0    0  0.92651148036E+02  0.28784387824E+02  0.33811353598E+03  0.35175778517E+03  0.00000000000E+00 0. -1.
         -5    1    5    5    0  501 -0.80135054858E+02 -0.27195738552E+02  0.57367264782E+03  0.57989967414E+03  0.47000000000E+01 0.  1.
         11    1    6    6    0    0  0.40498378049E+00  0.22567329982E+02  0.30706841077E+03  0.30789682897E+03  0.00000000000E+00 0. -1.
        -12    1    6    6    0    0 -0.99185101569E+01  0.45875533222E+02  0.75986032881E+02  0.89313037039E+02  0.00000000000E+00 0.  1.
</event>
<event>
12    1  0.1348628E-002  0.1832133E+03  0.7818608E-02  0.1164729E+00
          1   -1    0    0  502    0  0.00000000000E+00  0.00000000000E+00  0.29168262771E+03  0.29168262771E+03  0.00000000000E+00 0.  1.
         -1   -1    0    0    0  501 -0.00000000000E+00 -0.00000000000E+00 -0.16724435807E+03  0.16724435807E+03  0.00000000000E+00 0. -1.
          6    2    1    2  502    0 -0.51673865615E+01  0.64283520911E+02  0.19021768260E+03  0.26365859455E+03  0.17080402443E+03 0.  0.
         24    2    3    3    0    0  0.39544634520E+02  0.59898171789E+02  0.54031187527E+02  0.12017602573E+03  0.79820666690E+02 0.  0.
         -6    2    1    2    0  501  0.51673865615E+01 -0.64283520911E+02 -0.65779412954E+02  0.19526839123E+03  0.17217357666E+03 0.  0.
        -24    2    5    5    0    0 -0.51816759758E+02 -0.14481247695E+02 -0.72050085924E+02  0.11918376276E+03  0.78223214574E+02 0.  0.
          5    1    3    3  502    0 -0.44712021081E+02  0.43853491220E+01  0.13618649507E+03  0.14348256882E+03  0.47000000000E+01 0. -1.
        -13    1    4    4    0    0  0.40694542450E+02  0.22681558949E+02  0.66247277631E+02  0.80988892418E+02  0.00000000000E+00 0.  1.
         14    1    4    4    0    0 -0.11499079300E+01  0.37216612840E+02 -0.12216090104E+02  0.39187133309E+02  0.00000000000E+00 0. -1.
         -5    1    5    5    0  501  0.56984146320E+02 -0.49802273217E+02  0.62706729699E+01  0.76084628466E+02  0.47000000000E+01 0.  1.
         13    1    6    6    0    0 -0.48373392803E+02 -0.23117710037E+02 -0.86637899473E+02  0.10188493153E+03  0.00000000000E+00 0. -1.
        -14    1    6    6    0    0 -0.34433669548E+01  0.86364623425E+01  0.14587813549E+02  0.17298831230E+02  0.00000000000E+00 0.  1.
</event>
<event>
12    1  0.1348628E-002  0.2378893E+03  0.7818608E-02  0.1121207E+00
         -2   -1    0    0    0  501 -0.00000000000E+00  0.00000000000E+00  0.55125013404E+03  0.55125013404E+03  0.00000000000E+00 0.  1.
          2   -1    0    0  502    0  0.00000000000E+00 -0.00000000000E+00 -0.10805228375E+03  0.10805228375E+03  0.00000000000E+00 0. -1.
          6    2    1    2  502    0 -0.16136666662E+03 -0.29889160183E+02  0.29520095487E+03  0.37909575158E+03  0.17215522681E+03 0.  0.
         24    2    3    3    0    0 -0.12342898287E+03  0.30137677640E+02  0.25988219726E+03  0.29964769467E+03  0.78147239519E+02 0.  0.
         -6    2    1    2    0  501  0.16136666662E+03  0.29889160183E+02  0.14799689542E+03  0.28020666622E+03  0.17227922610E+03 0.  0.
        -24    2    5    5    0    0  0.12022286251E+03  0.26074601509E+02  0.21946131578E+02  0.14747291565E+03  0.78314791985E+02 0.  0.
          5    1    3    3  502    0 -0.37937683743E+02 -0.60026837823E+02  0.35318757611E+02  0.79448056905E+02  0.47000000000E+01 0. -1.
        -13    1    4    4    0    0 -0.58846053441E+02  0.17527521180E+02  0.48455321242E+02  0.78217582173E+02  0.00000000000E+00 0.  1.
         14    1    4    4    0    0 -0.64582929433E+02  0.12610156459E+02  0.21142687602E+03  0.22143011250E+03  0.00000000000E+00 0. -1.
         -5    1    5    5    0  501  0.41143804102E+02  0.38145586739E+01  0.12605076385E+03  0.13273375057E+03  0.47000000000E+01 0.  1.
         11    1    6    6    0    0  0.44215525847E+02  0.16327919958E+02 -0.29104149196E+02  0.55395534085E+02  0.00000000000E+00 0. -1.
        -12    1    6    6    0    0  0.76007336667E+02  0.97466815507E+01  0.51050280775E+02  0.92077381564E+02  0.00000000000E+00 0.  1.
</event>
<event>
12    1  0.1348628E-002  0.2859691E+03  0.7818608E-02  0.1092473E+00
         -2   -1    0    0    0  501 -0.00000000000E+00  0.00000000000E+00  0.91669165761E+02  0.91669165761E+02  0.00000000000E+00 0.  1.
          2   -1    0    0  502    0  0.00000000000E+00 -0.00000000000E+00 -0.10265553954E+04  0.10265553954E+04  0.00000000000E+00 0. -1.
          6    2    1    2  502    0  0.63861968236E+02  0.22112651314E+03 -0.66838951342E+03  0.72661224262E+03  0.16806404633E+03 0.  0.
         24    2    3    3    0    0 -0.28570447882E+02  0.90528281528E+02 -0.23990260248E+03  0.26920348396E+03  0.76848011363E+02 0.  0.
         -6    2    1    2    0  501 -0.63861968236E+02 -0.22112651314E+03 -0.26649671623E+03  0.39161231856E+03  0.17136050445E+03 0.  0.
        -24    2    5    5    0    0 -0.90140622999E+02 -0.12649401641E+03 -0.22455073055E+03  0.28471314715E+03  0.80699922347E+02 0.  0.
          5    1    3    3  502    0  0.92432416118E+02  0.13059823161E+03 -0.42848691095E+03  0.45740875866E+03  0.47000000000E+01 0. -1.
        -11    1    4    4    0    0 -0.17468574394E+02  0.11331827517E+01 -0.59197960250E+01  0.18479155270E+02  0.00000000000E+00 0.  1.
         12    1    4    4    0    0 -0.11101873488E+02  0.89395098776E+02 -0.23398280645E+03  0.25072432869E+03  0.00000000000E+00 0. -1.
         -5    1    5    5    0  501  0.26278654763E+02 -0.94632496730E+02 -0.41945985683E+02  0.10689917141E+03  0.47000000000E+01 0.  1.
         11    1    6    6    0    0 -0.19655865171E+02  0.87408854558E+01 -0.38955225659E+02  0.44500176633E+02  0.00000000000E+00 0. -1.
        -12    1    6    6    0    0 -0.70484757828E+02 -0.13523490186E+03 -0.18559550489E+03  0.24021297051E+03  0.00000000000E+00 0.  1.
</event>
<event>
12    1  0.1348628E-002  0.2578661E+03  0.7818608E-02  0.1108432E+00
         -2   -1    0    0    0  501 -0.00000000000E+00  0.00000000000E+00  0.13826960180E+03  0.13826960180E+03  0.00000000000E+00 0.  1.
          2   -1    0    0  502    0  0.00000000000E+00 -0.00000000000E+00 -0.55671992277E+03  0.55671992277E+03  0.00000000000E+00 0. -1.
          6    2    1    2  502    0  0.18581699270E+03 -0.12947702508E+02 -0.83627607059E+02  0.27456609920E+03  0.18356842973E+03 0.  0.
         24    2    3    3    0    0  0.17200547488E+03 -0.41834603563E+02 -0.10164295319E+02  0.19429057834E+03  0.79432351654E+02 0.  0.
         -6    2    1    2    0  501 -0.18581699270E+03  0.12947702508E+02 -0.33482271391E+03  0.42042342537E+03  0.17307226546E+03 0.  0.
        -24    2    5    5    0    0 -0.11997145137E+03  0.57434908056E+02 -0.28984628346E+03  0.32899194246E+03  0.80826433561E+02 0.  0.
          5    1    3    3  502    0  0.13811517814E+02  0.28886901055E+02 -0.73463311741E+02  0.80275520856E+02  0.47000000000E+01 0. -1.
        -11    1    4    4    0    0  0.70861917488E+02 -0.29330250252E+02  0.33155593626E+02  0.83552189191E+02  0.00000000000E+00 0.  1.
         12    1    4    4    0    0  0.10114355739E+03 -0.12504353312E+02 -0.43319888945E+02  0.11073838915E+03  0.00000000000E+00 0. -1.
         -5    1    5    5    0  501 -0.65845541331E+02 -0.44487205548E+02 -0.44976430455E+02  0.91431482910E+02  0.47000000000E+01 0.  1.
         13    1    6    6    0    0 -0.92235258241E+02  0.83812369595E+00 -0.16082520997E+03  0.18539901153E+03  0.00000000000E+00 0. -1.
        -14    1    6    6    0    0 -0.27736193125E+02  0.56596784360E+02 -0.12902107349E+03  0.14359293093E+03  0.00000000000E+00 0.  1.
</event>
<event>
12    1  0.1348628E-002  0.2748785E+03  0.7818608E-02  0.1098520E+00
         -2   -1    0    0    0  501 -0.00000000000E+00  0.00000000000E+00  0.23211564325E+02  0.23211564325E+02  0.00000000000E+00 0.  1.
          2   -1    0    0  502    0  0.00000000000E+00 -0.00000000000E+00 -0.33039139466E+04  0.33039139466E+04  0.00000000000E+00 0. -1.
          6    2    1    2  502    0 -0.35145343668E+02 -0.21158284711E+03 -0.14360049240E+04  0.14620016735E+04  0.17127829816E+03 0.  0.
         24    2    3    3    0    0  0.11629554139E+02 -0.16532393883E+03 -0.12688080544E+04  0.12822666996E+04  0.82865908280E+02 0.  0.
         -6    2    1    2    0  501  0.35145343668E+02  0.21158284711E+03 -0.18446974584E+04  0.18651238374E+04  0.17255642468E+03 0.  0.
        -24    2    5    5    0    0  0.38476280518E+02  0.90451185898E+02 -0.13370786598E+04  0.13432206768E+04  0.82465767032E+02 0.  0.
          5    1    3    3  502    0 -0.46774897808E+02 -0.46258908277E+02 -0.16719686954E+03  0.17973497391E+03  0.47000000000E+01 0. -1.
        -13    1    4    4    0    0 -0.78563108950E+01 -0.80637953104E+01 -0.16512683523E+02  0.19985372972E+02  0.00000000000E+00 0.  1.
         14    1    4    4    0    0  0.19485865034E+02 -0.15726014352E+03 -0.12522953709E+04  0.12622813267E+04  0.00000000000E+00 0. -1.
         -5    1    5    5    0  501 -0.33309368492E+01  0.12113166121E+03 -0.50761879852E+03  0.52190316065E+03  0.47000000000E+01 0.  1.
         11    1    6    6    0    0  0.64888460646E+01  0.18812546747E+01 -0.67054177664E+01  0.95187640911E+01  0.00000000000E+00 0. -1.
        -12    1    6    6    0    0  0.31987434453E+02  0.88569931224E+02 -0.13303732421E+04  0.13337019127E+04  0.00000000000E+00 0.  1.
</event>
<event>
12    1  0.1348628E-002  0.2904642E+03  0.7818608E-02  0.1090107E+00
          1   -1    0    0  502    0  0.00000000000E+00  0.00000000000E+00  0.15249842545E+03  0.15249842545E+03  0.00000000000E+00 0.  1.
         -1   -1    0    0    0  501 -0.00000000000E+00 -0.00000000000E+00 -0.57075420656E+03  0.57075420656E+03  0.00000000000E+00 0. -1.
          6    2    1    2  502    0  0.22889761619E+03  0.48482130587E+02 -0.27259631384E+03  0.39848602559E+03  0.17244630057E+03 0.  0.
         24    2    3    3    0    0  0.23504696502E+03  0.70749769645E+01 -0.23207380474E+03  0.34003492973E+03  0.80426186842E+02 0.  0.
         -6    2    1    2    0  501 -0.22889761619E+03 -0.48482130587E+02 -0.14565946727E+03  0.32476660642E+03  0.17179066492E+03 0.  0.
        -24    2    5    5    0    0 -0.14653916467E+03 -0.87118490453E+02 -0.13787284878E+03  0.23334229746E+03  0.79852033112E+02 0.  0.
          5    1    3    3  502    0 -0.61493488262E+01  0.41407153622E+02 -0.40522509108E+02  0.58451095854E+02  0.47000000000E+01 0. -1.
        -13    1    4    4    0    0  0.75858293056E+02 -0.27388092429E+02 -0.46399524464E+02  0.93045709749E+02  0.00000000000E+00 0.  1.
         14    1    4    4    0    0  0.15918867196E+03  0.34463069394E+02 -0.18567428027E+03  0.24698921998E+03  0.00000000000E+00 0. -1.
         -5    1    5    5    0  501 -0.82358451518E+02  0.38636359866E+02 -0.77866184843E+01  0.91424308953E+02  0.47000000000E+01 0.  1.
         13    1    6    6    0    0 -0.10826705377E+03 -0.18900498057E+02 -0.76266978665E+02  0.13377457080E+03  0.00000000000E+00 0. -1.
        -14    1    6    6    0    0 -0.38272110905E+02 -0.68217992396E+02 -0.61605870118E+02  0.99567726662E+02  0.00000000000E+00 0.  1.
</event>
<event>
12    1  0.1348628E-002  0.2027072E+03  0.7818608E-02  0.1147475E+00
         -2   -1    0    0    0  501 -0.00000000000E+00  0.00000000000E+00  0.61856475307E+02  0.61856475307E+02  0.00000000000E+00 0. -1.
          2   -1    0    0  502    0  0.00000000000E+00 -0.00000000000E+00 -0.12529025710E+04  0.12529025710E+04  0.00000000000E+00 0.  1.
          6    2    1    2  502    0 -0.16984712312E+01 -0.11132145923E+03 -0.14091051129E+03  0.24473389191E+03  0.16626350642E+03 0.  0.
         24    2    3    3    0    0 -0.99286659176E+01 -0.12315327554E+03 -0.16198578406E+03  0.21877266883E+03  0.79729409273E+02 0.  0.
         -6    2    1    2    0  501  0.16984712312E+01  0.11132145923E+03 -0.10501355844E+04  0.10700251544E+04  0.17255066886E+03 0.  0.
        -24    2    5    5    0    0  0.22073343938E+02  0.11207164784E+03 -0.10362480474E+04  0.10449123707E+04  0.70601416117E+02 0.  0.
          5    1    3    3  502    0  0.82301946864E+01  0.11831816311E+02  0.21075272770E+02  0.25961223086E+02  0.47000000000E+01 0. -1.
        -13    1    4    4    0    0  0.31451184170E+02 -0.32693213991E+02 -0.69179212178E+02  0.82727181895E+02  0.00000000000E+00 0.  1.
         14    1    4    4    0    0 -0.41379850087E+02 -0.90460061553E+02 -0.92806571883E+02  0.13604548693E+03  0.00000000000E+00 0. -1.
         -5    1    5    5    0  501 -0.20374872707E+02 -0.75018860647E+00 -0.13887537010E+02  0.25112783696E+02  0.47000000000E+01 0.  1.
         13    1    6    6    0    0  0.27766280997E+01  0.57850354119E+02 -0.25263885241E+03  0.25919252088E+03  0.00000000000E+00 0. -1.
        -14    1    6    6    0    0  0.19296715838E+02  0.54221293720E+02 -0.78360919501E+03  0.78571984985E+03  0.00000000000E+00 0.  1.
</event>
<event>
12    1  0.1348628E-002  0.1818019E+03  0.7818608E-02  0.1166070E+00
         -1   -1    0    0    0  501 -0.00000000000E+00  0.00000000000E+00  0.34498381850E+03  0.34498381850E+03  0.00000000000E+00 0.  1.
          1   -1    0    0  502    0  0.00000000000E+00 -0.00000000000E+00 -0.14573792846E+03  0.14573792846E+03  0.00000000000E+00 0. -1.
          6    2    1    2  502    0  0.10734587514E+02  0.61023007757E+02 -0.43918196961E+02  0.18723298089E+03  0.17113837169E+03 0.  0.
         24    2    3    3    0    0 -0.81586305605E+01  0.65346019916E+02 -0.88064782547E+02  0.13879071482E+03  0.84680523281E+02 0.  0.
         -6    2    1    2    0  501 -0.10734587514E+02 -0.61023007757E+02  0.24316408701E+03  0.30348876607E+03  0.17069744894E+03 0.  0.
        -24    2    5    5    0    0 -0.19997541910E+02 -0.69844711814E+02  0.67116188326E+02  0.12691419990E+03  0.79526385246E+02 0.  0.
          5    1    3    3  502    0  0.18893218075E+02 -0.43230121598E+01  0.44146585586E+02  0.48442266072E+02  0.47000000000E+01 0. -1.
        -13    1    4    4    0    0 -0.10330372080E+02 -0.18812118263E+02 -0.89148466240E+01  0.23239769172E+02  0.00000000000E+00 0.  1.
         14    1    4    4    0    0  0.21717415191E+01  0.84158138179E+02 -0.79149935922E+02  0.11555094565E+03  0.00000000000E+00 0. -1.
         -5    1    5    5    0  501  0.92629543959E+01  0.88217040574E+01  0.17604789868E+03  0.17657456616E+03  0.47000000000E+01 0.  1.
         11    1    6    6    0    0 -0.16449999700E+01 -0.67970930393E+02  0.12322674778E+02  0.69098492871E+02  0.00000000000E+00 0. -1.
        -12    1    6    6    0    0 -0.18352541940E+02 -0.18737814211E+01  0.54793513547E+02  0.57815707030E+02  0.00000000000E+00 0.  1.
</event>
<event>
12    1  0.1348628E-002  0.1767989E+03  0.7818608E-02  0.1170938E+00
         -1   -1    0    0    0  501 -0.00000000000E+00  0.00000000000E+00  0.18205406664E+03  0.18205406664E+03  0.00000000000E+00 0. -1.
          1   -1    0    0  502    0  0.00000000000E+00 -0.00000000000E+00 -0.21309124688E+03  0.21309124688E+03  0.00000000000E+00 0.  1.
          6    2    1    2  502    0 -0.21880106500E+02  0.25811007560E+02  0.71562435095E+02  0.19072910420E+03  0.17352654524E+03 0.  0.
         24    2    3    3    0    0 -0.61543322149E+02 -0.24023703393E+02  0.72773037801E+02  0.12685246802E+03  0.80192984641E+02 0.  0.
         -6    2    1    2    0  501  0.21880106500E+02 -0.25811007560E+02 -0.10259961533E+03  0.20441620932E+03  0.17353489100E+03 0.  0.
        -24    2    5    5    0    0 -0.50126644711E+02 -0.27757216245E+02 -0.32389765544E+02  0.10371728700E+03  0.80156316951E+02 0.  0.
          5    1    3    3  502    0  0.39663215649E+02  0.49834710953E+02 -0.12106027063E+01  0.63876636184E+02  0.47000000000E+01 0. -1.
        -13    1    4    4    0    0 -0.56514153070E+02 -0.36700102248E+02  0.17082725994E+02  0.69516663683E+02  0.00000000000E+00 0.  1.
         14    1    4    4    0    0 -0.50291690790E+01  0.12676398855E+02  0.55690311807E+02  0.57335804335E+02  0.00000000000E+00 0. -1.
         -5    1    5    5    0  501  0.72006751211E+02  0.19462086851E+01 -0.70209849790E+02  0.10069892232E+03  0.47000000000E+01 0.  1.
         11    1    6    6    0    0 -0.59452114933E+02  0.13818066469E+01 -0.40641527260E+02  0.72029140614E+02  0.00000000000E+00 0. -1.
        -12    1    6    6    0    0  0.93254702219E+01 -0.29139022892E+02  0.82517617167E+01  0.31688146386E+02  0.00000000000E+00 0.  1.
</event>
<event>
12    1  0.1348628E-002  0.2262910E+03  0.7818608E-02  0.1129278E+00
         -3   -1    0    0    0  501 -0.00000000000E+00  0.00000000000E+00  0.51009644567E+03  0.51009644567E+03  0.00000000000E+00 0. -1.
          3   -1    0    0  502    0  0.00000000000E+00 -0.00000000000E+00 -0.10040727328E+03  0.10040727328E+03  0.00000000000E+00 0.  1.
          6    2    1    2  502    0 -0.14614117879E+03  0.94584798522E+01  0.20032814133E+03  0.30195328752E+03  0.17203986938E+03 0.  0.
         24    2    3    3    0    0 -0.10484281320E+03 -0.59864825897E+02  0.13879525486E+03  0.20036755113E+03  0.79418007496E+02 0.  0.
         -6    2    1    2    0  501  0.14614117879E+03 -0.94584798522E+01  0.20936103106E+03  0.30855043143E+03  0.17298734182E+03 0.  0.
        -24    2    5    5    0    0  0.16115388238E+03 -0.68544191144E+00  0.22275606399E+03  0.28610350800E+03  0.79144864715E+02 0.  0.
          5    1    3    3  502    0 -0.41298365581E+02  0.69323305749E+02  0.61532886471E+02  0.10158573639E+03  0.47000000000E+01 0. -1.
        -11    1    4    4    0    0 -0.50550764130E+02 -0.57750856419E+02  0.37501707723E+02  0.85422006845E+02  0.00000000000E+00 0.  1.
         12    1    4    4    0    0 -0.54292049074E+02 -0.21139694778E+01  0.10129354714E+03  0.11494554429E+03  0.00000000000E+00 0. -1.
         -5    1    5    5    0  501 -0.15012703591E+02 -0.87730379407E+01 -0.13395032937E+02  0.22446923424E+02  0.47000000000E+01 0.  1.
         13    1    6    6    0    0  0.42328837592E+02 -0.17877339211E+02  0.11848721129E+03  0.12708481022E+03  0.00000000000E+00 0. -1.
        -14    1    6    6    0    0  0.11882504478E+03  0.17191897300E+02  0.10426885270E+03  0.15901869778E+03  0.00000000000E+00 0.  1.
</event>
<event>
12    1  0.1348628E-002  0.1951397E+03  0.7818608E-02  0.1153906E+00
          2   -1    0    0  502    0  0.00000000000E+00  0.00000000000E+00  0.45468175565E+04  0.45468175565E+04  0.00000000000E+00 0. -1.
         -2   -1    0    0    0  501 -0.00000000000E+00 -0.00000000000E+00 -0.47538208346E+02  0.47538208346E+02  0.00000000000E+00 0.  1.
          6    2    1    2  502    0 -0.44370474891E+01 -0.93087761679E+02  0.43351473304E+04  0.43395476408E+04  0.17171584483E+03 0.  0.
         24    2    3    3    0    0 -0.16330578027E+02  0.63637494746E+01  0.11641510747E+04  0.11669664515E+04  0.79093545747E+02 0.  0.
         -6    2    1    2    0  501  0.44370474891E+01  0.93087761679E+02  0.16413201769E+03  0.25480812402E+03  0.17118072927E+03 0.  0.
        -24    2    5    5    0    0 -0.39245791248E+01  0.11943871538E+03  0.17362849708E+03  0.22520132275E+03  0.79295470977E+02 0.  0.
          5    1    3    3  502    0  0.11893530538E+02 -0.99451511153E+02  0.31709962557E+04  0.31725811893E+04  0.47000000000E+01 0. -1.
        -11    1    4    4    0    0  0.49875973097E+01  0.19668053958E+01  0.41985650485E+01  0.68097282512E+01  0.00000000000E+00 0.  1.
         12    1    4    4    0    0 -0.21318175337E+02  0.43969440788E+01  0.11599525097E+04  0.11601567232E+04  0.00000000000E+00 0. -1.
         -5    1    5    5    0  501  0.83616266139E+01 -0.26350953703E+02 -0.94964793921E+01  0.29606801271E+02  0.47000000000E+01 0.  1.
         13    1    6    6    0    0 -0.30386365940E+02  0.84422039715E+02  0.15143193761E+03  0.17601716892E+03  0.00000000000E+00 0. -1.
        -14    1    6    6    0    0  0.26461786815E+02  0.35016675666E+02  0.22196559468E+02  0.49184153834E+02  0.00000000000E+00 0.  1.
</event>
<event>
12    1  0.1348628E-002  0.2180275E+03  0.7818608E-02  0.1135362E+00
          1   -1    0    0  502    0  0.00000000000E+00  0.00000000000E+00  0.88773609851E+02  0.88773609851E+02  0.00000000000E+00 0.  1.
         -1   -1    0    0    0  501 -0.00000000000E+00 -0.00000000000E+00 -0.82784113321E+03  0.82784113321E+03  0.00000000000E+00 0. -1.
          6    2    1    2  502    0 -0.11713520569E+03  0.66423869180E+02 -0.64217373152E+03  0.67825784465E+03  0.17179585435E+03 0.  0.
         24    2    3    3    0    0 -0.23788089711E+02  0.86406803178E+02 -0.40027501998E+03  0.41816155795E+03  0.81283381326E+02 0.  0.
         -6    2    1    2    0  501  0.11713520569E+03 -0.66423869180E+02 -0.96893791838E+02  0.23835689841E+03  0.17115144555E+03 0.  0.
        -24    2    5    5    0    0  0.70009431914E+02 -0.85797703898E+02 -0.98335971070E+01  0.13737298121E+03  0.80697396388E+02 0.  0.
          5    1    3    3  502    0 -0.93347115977E+02 -0.19982933999E+02 -0.24189871153E+03  0.26009628670E+03  0.47000000000E+01 0. -1.
        -11    1    4    4    0    0 -0.29334334527E+02  0.67587700522E+02 -0.14999798089E+03  0.16711670987E+03  0.00000000000E+00 0.  1.
         12    1    4    4    0    0  0.55462448154E+01  0.18819102657E+02 -0.25027703909E+03  0.25104484809E+03  0.00000000000E+00 0. -1.
         -5    1    5    5    0  501  0.47125773774E+02  0.19373834718E+02 -0.87060194731E+02  0.10098391720E+03  0.47000000000E+01 0.  1.
         13    1    6    6    0    0 -0.12308796096E+02 -0.41880831217E+02 -0.51515944669E+01  0.43955084010E+02  0.00000000000E+00 0. -1.
        -14    1    6    6    0    0  0.82318228010E+02 -0.43916872681E+02 -0.46820026401E+01  0.93417897201E+02  0.00000000000E+00 0.  1.
</event>
<event>
12    1  0.1348628E-002  0.1747822E+03  0.7818608E-02  0.1172951E+00
          1   -1    0    0  502    0  0.00000000000E+00  0.00000000000E+00  0.90745407333E+03  0.90745407333E+03  0.00000000000E+00 0.  1.
         -1   -1    0    0    0  501 -0.00000000000E+00 -0.00000000000E+00 -0.34137513288E+02  0.34137513288E+02  0.00000000000E+00 0. -1.
          6    2    1    2  502    0 -0.28944135564E+02 -0.10240952372E+02  0.49134827604E+03  0.52140963033E+03  0.17176214409E+03 0.  0.
         24    2    3    3    0    0 -0.67937297808E+01 -0.21044113277E+02  0.48830808573E+03  0.49613748125E+03  0.84962369593E+02 0.  0.
         -6    2    1    2    0  501  0.28944135564E+02  0.10240952372E+02  0.38196828401E+03  0.42018195629E+03  0.17236724259E+03 0.  0.
        -24    2    5    5    0    0 -0.19087659783E+02 -0.51577352393E+02  0.21103256174E+03  0.23211370454E+03  0.79482499255E+02 0.  0.
          5    1    3    3  502    0 -0.22150405783E+02  0.10803160905E+02  0.30401903125E+01  0.25272149079E+02  0.47000000000E+01 0. -1.
        -11    1    4    4    0    0  0.23288898169E+02  0.13520058104E+02  0.33621732220E+03  0.33729401491E+03  0.00000000000E+00 0.  1.
         12    1    4    4    0    0 -0.30082627950E+02 -0.34564171381E+02  0.15209076353E+03  0.15884346634E+03  0.00000000000E+00 0. -1.
         -5    1    5    5    0  501  0.48031795347E+02  0.61818304765E+02  0.17093572227E+03  0.18806825175E+03  0.47000000000E+01 0.  1.
         13    1    6    6    0    0  0.14230197055E+02 -0.85889346205E+01  0.27502170415E+01  0.16847314323E+02  0.00000000000E+00 0. -1.
        -14    1    6    6    0    0 -0.33317856837E+02 -0.42988417772E+02  0.20828234469E+03  0.21526639022E+03  0.00000000000E+00 0.  1.
</event>
<event>
12    1  0.1348628E-002  0.1945401E+03  0.7818608E-02  0.1154429E+00
          2   -1    0    0  502    0  0.00000000000E+00  0.00000000000E+00  0.12369136645E+04  0.12369136645E+04  0.00000000000E+00 0.  1.
         -2   -1    0    0    0  501 -0.00000000000E+00 -0.00000000000E+00 -0.32151448851E+02  0.32151448851E+02  0.00000000000E+00 0. -1.
          6    2    1    2  502    0 -0.85404947574E+02  0.31463342583E+02  0.74232892563E+03  0.76743378045E+03  0.17210004805E+03 0.  0.
         24    2    3    3    0    0 -0.70986674187E+02  0.66509978477E+02  0.32465369422E+03  0.34801651538E+03  0.79074576572E+02 0.  0.
         -6    2    1    2    0  501  0.85404947574E+02 -0.31463342583E+02  0.46243328999E+03  0.50163133288E+03  0.17177164912E+03 0.  0.
        -24    2    5    5    0    0  0.10457841110E+03 -0.61955428732E+02  0.42674983188E+03  0.45071190433E+03  0.79061257773E+02 0.  0.
          5    1    3    3  502    0 -0.14418273387E+02 -0.35046635894E+02  0.41767523141E+03  0.41941726506E+03  0.47000000000E+01 0. -1.
        -13    1    4    4    0    0 -0.46695716473E+02 -0.75093274957E+01  0.13133466089E+03  0.13959109244E+03  0.00000000000E+00 0.  1.
         14    1    4    4    0    0 -0.24290957714E+02  0.74019305973E+02  0.19331903333E+03  0.20842542295E+03  0.00000000000E+00 0. -1.
         -5    1    5    5    0  501 -0.19173463521E+02  0.30492086149E+02  0.35683458111E+02  0.50919428550E+02  0.47000000000E+01 0.  1.
         13    1    6    6    0    0  0.41780347738E+02 -0.75946325774E+01  0.53356755983E+02  0.68192516525E+02  0.00000000000E+00 0. -1.
        -14    1    6    6    0    0  0.62798063358E+02 -0.54360796155E+02  0.37339307590E+03  0.38251938781E+03  0.00000000000E+00 0.  1.
</event>
<event>
12    1  0.1348628E-002  0.2676213E+03  0.7818608E-02  0.1102649E+00
         -2   -1    0    0    0  501 -0.00000000000E+00  0.00000000000E+00  0.77802785236E+02  0.77802785236E+02  0.00000000000E+00 0.  1.
          2   -1    0    0  502    0  0.00000000000E+00 -0.00000000000E+00 -0.95920904971E+03  0.95920904971E+03  0.00000000000E+00 0. -1.
          6    2    1    2  502    0  0.48805752888E+02 -0.19881232612E+03 -0.54456639786E+03  0.60670812332E+03  0.17214483058E+03 0.  0.
         24    2    3    3    0    0  0.80298441985E+02 -0.15659112687E+03 -0.30569819707E+03  0.36205627583E+03  0.81637848921E+02 0.  0.
         -6    2    1    2    0  501 -0.48805752888E+02  0.19881232612E+03 -0.33683986662E+03  0.43030371163E+03  0.17260314587E+03 0.  0.
        -24    2    5    5    0    0 -0.99408786530E+02  0.15146561515E+03 -0.25905905729E+03  0.32602369267E+03  0.79723983884E+02 0.  0.
          5    1    3    3  502    0 -0.31492689097E+02 -0.42221199248E+02 -0.23886820079E+03  0.24465184750E+03  0.47000000000E+01 0. -1.
        -11    1    4    4    0    0  0.49382995889E+02 -0.38125352230E+02 -0.55470707329E+02  0.83481867116E+02  0.00000000000E+00 0.  1.
         12    1    4    4    0    0  0.30915446096E+02 -0.11846577464E+03 -0.25022748974E+03  0.27857440871E+03  0.00000000000E+00 0. -1.
         -5    1    5    5    0  501  0.50603033642E+02  0.47346710972E+02 -0.77780809325E+02  0.10428001895E+03  0.47000000000E+01 0.  1.
         11    1    6    6    0    0 -0.69518082505E+02  0.42774549501E+02 -0.14006327984E+03  0.16211153025E+03  0.00000000000E+00 0. -1.
        -12    1    6    6    0    0 -0.29890704026E+02  0.10869106565E+03 -0.11899577745E+03  0.16391216242E+03  0.00000000000E+00 0.  1.
</event>
<event>
12    1  0.1348628E-002  0.5070083E+03  0.7818608E-02  0.1011966E+00
         -2   -1    0    0    0  501 -0.00000000000E+00  0.00000000000E+00  0.76597367779E+03  0.76597367779E+03  0.00000000000E+00 0. -1.
          2   -1    0    0  502    0  0.00000000000E+00 -0.00000000000E+00 -0.40144230479E+03  0.40144230479E+03  0.00000000000E+00 0.  1.
          6    2    1    2  502    0 -0.15907196576E+02  0.47666318904E+03 -0.54283037941E+02  0.50941849338E+03  0.17058639599E+03 0.  0.
         24    2    3    3    0    0 -0.67696927792E+02  0.40145761974E+03 -0.51534520389E+02  0.41794336965E+03  0.79181809511E+02 0.  0.
         -6    2    1    2    0  501  0.15907196576E+02 -0.47666318904E+03  0.41881441093E+03  0.65799748921E+03  0.17347723282E+03 0.  0.
        -24    2    5    5    0    0 -0.27422930136E+02 -0.16749248760E+03  0.10518540651E+03  0.21544888744E+03  0.80922820371E+02 0.  0.
          5    1    3    3  502    0  0.51789731215E+02  0.75205569296E+02 -0.27485175523E+01  0.91475123729E+02  0.47000000000E+01 0. -1.
        -11    1    4    4    0    0 -0.12259705554E+02  0.13141789218E+03 -0.53095045400E+02  0.14226751777E+03  0.00000000000E+00 0.  1.
         12    1    4    4    0    0 -0.55437222238E+02  0.27003972756E+03  0.15605250108E+01  0.27567585188E+03  0.00000000000E+00 0. -1.
         -5    1    5    5    0  501  0.43330126712E+02 -0.30917070144E+03  0.31362900442E+03  0.44254860176E+03  0.47000000000E+01 0.  1.
         11    1    6    6    0    0 -0.34871043469E+02 -0.13112090475E+03  0.11408775007E+03  0.17727012171E+03  0.00000000000E+00 0. -1.
        -12    1    6    6    0    0  0.74481133334E+01 -0.36371582857E+02 -0.89023435670E+01  0.38178765731E+02  0.00000000000E+00 0.  1.
</event>
<event>
12    1  0.1348628E-002  0.1784279E+03  0.7818608E-02  0.1169333E+00
         -2   -1    0    0    0  501 -0.00000000000E+00  0.00000000000E+00  0.11515580846E+03  0.11515580846E+03  0.00000000000E+00 0.  1.
          2   -1    0    0  502    0  0.00000000000E+00 -0.00000000000E+00 -0.60951238644E+03  0.60951238644E+03  0.00000000000E+00 0. -1.
          6    2    1    2  502    0 -0.49238274032E+02 -0.80938616368E+01 -0.51533670026E+03  0.54552001496E+03  0.17184369020E+03 0.  0.
         24    2    3    3    0    0  0.37266363533E+02 -0.12383715577E+02 -0.20154909836E+03  0.21996479034E+03  0.78869079363E+02 0.  0.
         -6    2    1    2    0  501  0.49238274032E+02  0.80938616368E+01  0.20980122281E+02  0.17914817995E+03  0.17077466622E+03 0.  0.
        -24    2    5    5    0    0 -0.39496453768E+02  0.11243558652E+02  0.95534931785E+01  0.89502040256E+02  0.78949088068E+02 0.  0.
          5    1    3    3  502    0 -0.86504637565E+02  0.42898539405E+01 -0.31378760190E+03  0.32555522461E+03  0.47000000000E+01 0. -1.
        -13    1    4    4    0    0  0.18282808292E+02  0.29771373549E+02 -0.46453024657E+02  0.58124687198E+02  0.00000000000E+00 0.  1.
         14    1    4    4    0    0  0.18983555240E+02 -0.42155089127E+02 -0.15509607370E+03  0.16184010315E+03  0.00000000000E+00 0. -1.
         -5    1    5    5    0  501  0.88734727800E+02 -0.31496970148E+01  0.11426629103E+02  0.89646139692E+02  0.47000000000E+01 0.  1.
         11    1    6    6    0    0 -0.19348245433E+02 -0.20371182996E+02 -0.25673707924E+02  0.38058888272E+02  0.00000000000E+00 0. -1.
        -12    1    6    6    0    0 -0.20148208335E+02  0.31614741647E+02  0.35227201102E+02  0.51443151984E+02  0.00000000000E+00 0.  1.
</event>
<event>
12    1  0.1348628E-002  0.3739304E+03  0.7818608E-02  0.1053200E+00
         -2   -1    0    0    0  501 -0.00000000000E+00  0.00000000000E+00  0.10170625947E+03  0.10170625947E+03  0.00000000000E+00 0. -1.
          2   -1    0    0  502    0  0.00000000000E+00 -0.00000000000E+00 -0.13825744731E+04  0.13825744731E+04  0.00000000000E+00 0.  1.
          6    2    1    2  502    0  0.32175271148E+03 -0.78810205600E+02 -0.58443772360E+03  0.69373426954E+03  0.17310091886E+03 0.  0.
         24    2    3    3    0    0  0.14429620647E+03 -0.32556004665E+02 -0.16393850577E+03  0.23496205539E+03  0.80312173165E+02 0.  0.
         -6    2    1    2    0  501 -0.32175271148E+03  0.78810205600E+02 -0.69643049004E+03  0.79054646305E+03  0.17381722274E+03 0.  0.
        -24    2    5    5    0    0 -0.33874702722E+03  0.73357080219E+02 -0.66073531397E+03  0.75036215095E+03  0.79632862466E+02 0.  0.
          5    1    3    3  502    0  0.17745650501E+03 -0.46254200936E+02 -0.42049921783E+03  0.45877221415E+03  0.47000000000E+01 0. -1.
        -11    1    4    4    0    0  0.15726161069E+02  0.17134013123E+02 -0.53505831406E+02  0.58341756420E+02  0.00000000000E+00 0.  1.
         12    1    4    4    0    0  0.12857004540E+03 -0.49690017787E+02 -0.11043267437E+03  0.17662029897E+03  0.00000000000E+00 0. -1.
         -5    1    5    5    0  501  0.16994315736E+02  0.54531253809E+01 -0.35695176069E+02  0.40184312092E+02  0.47000000000E+01 0.  1.
         11    1    6    6    0    0 -0.62631221089E+02  0.51399808374E+01 -0.66083482592E+02  0.91192740553E+02  0.00000000000E+00 0. -1.
        -12    1    6    6    0    0 -0.27611580613E+03  0.68217099382E+02 -0.59465183138E+03  0.65916941040E+03  0.00000000000E+00 0.  1.
</event>
<event>
12    1  0.1348628E-002  0.2748586E+03  0.7818608E-02  0.1098531E+00
          2   -1    0    0  502    0  0.00000000000E+00  0.00000000000E+00  0.89168004191E+03  0.89168004191E+03  0.00000000000E+00 0. -1.
         -2   -1    0    0    0  501 -0.00000000000E+00 -0.00000000000E+00 -0.10064108306E+03  0.10064108306E+03  0.00000000000E+00 0.  1.
          6    2    1    2  502    0  0.20311798079E+03 -0.68843193705E+02  0.59251741515E+03  0.65305516481E+03  0.17148720531E+03 0.  0.
         24    2    3    3    0    0  0.13011102250E+03  0.13732843702E+02  0.24900224111E+03  0.29225940165E+03  0.79347165081E+02 0.  0.
         -6    2    1    2    0  501 -0.20311798079E+03  0.68843193705E+02  0.19852154369E+03  0.33926596016E+03  0.17232030924E+03 0.  0.
        -24    2    5    5    0    0 -0.75159725338E+02  0.54704550864E+02  0.16194928745E+03  0.20535241983E+03  0.85442802070E+02 0.  0.
          5    1    3    3  502    0  0.73006958290E+02 -0.82576037407E+02  0.34351517405E+03  0.36079576316E+03  0.47000000000E+01 0. -1.
        -13    1    4    4    0    0  0.44676775520E+02 -0.18174841795E+02  0.34874080685E+02  0.59519246036E+02  0.00000000000E+00 0.  1.
         14    1    4    4    0    0  0.85434246977E+02  0.31907685497E+02  0.21412816042E+03  0.23274015561E+03  0.00000000000E+00 0. -1.
         -5    1    5    5    0  501 -0.12795825545E+03  0.14138642840E+02  0.36572256246E+02  0.13391354034E+03  0.47000000000E+01 0.  1.
         13    1    6    6    0    0 -0.26772325598E+02  0.70410904145E+02  0.99760785028E+02  0.12500666810E+03  0.00000000000E+00 0. -1.
        -14    1    6    6    0    0 -0.48387399740E+02 -0.15706353281E+02  0.62188502419E+02  0.80345751724E+02  0.00000000000E+00 0.  1.
</event>
<event>
12    1  0.1348628E-002  0.2190989E+03  0.7818608E-02  0.1134557E+00
          1   -1    0    0  502    0  0.00000000000E+00  0.00000000000E+00  0.21452434832E+03  0.21452434832E+03  0.00000000000E+00 0.  1.
         -1   -1    0    0    0  501 -0.00000000000E+00 -0.00000000000E+00 -0.24404419830E+03  0.24404419830E+03  0.00000000000E+00 0. -1.
          6    2    1    2  502    0 -0.10846386108E+03 -0.75359380291E+02  0.51431210805E+02  0.22245660183E+03  0.17145939721E+03 0.  0.
         24    2    3    3    0    0 -0.43175949616E+02 -0.10506734639E+03  0.55446586765E+02  0.15046154729E+03  0.81615215048E+02 0.  0.
         -6    2    1    2    0  501  0.10846386108E+03  0.75359380291E+02 -0.80951060786E+02  0.23611194479E+03  0.17819183728E+03 0.  0.
        -24    2    5    5    0    0  0.98255906021E+02 -0.15149313361E+02 -0.66396089800E+02  0.14375414516E+03  0.79831627480E+02 0.  0.
          5    1    3    3  502    0 -0.65287911464E+02  0.29707966099E+02 -0.40153759601E+01  0.71995054533E+02  0.47000000000E+01 0. -1.
        -11    1    4    4    0    0 -0.20979518099E+02  0.50807700035E+01  0.26974141080E+02  0.34547918757E+02  0.00000000000E+00 0.  1.
         12    1    4    4    0    0 -0.22196431517E+02 -0.11014811639E+03  0.28472445686E+02  0.11591362854E+03  0.00000000000E+00 0. -1.
         -5    1    5    5    0  501  0.10207955060E+02  0.90508693653E+02 -0.14554970986E+02  0.92357799636E+02  0.47000000000E+01 0.  1.
         13    1    6    6    0    0  0.93181047819E+02  0.12725468694E+02 -0.66905482418E+02  0.11541658808E+03  0.00000000000E+00 0. -1.
        -14    1    6    6    0    0  0.50748582014E+01 -0.27874782055E+02  0.50939261813E+00  0.28337557079E+02  0.00000000000E+00 0.  1.
</event>
<event>
12    1  0.1348628E-002  0.1885032E+03  0.7818608E-02  0.1159818E+00
         -1   -1    0    0    0  501 -0.00000000000E+00  0.00000000000E+00  0.15968879274E+02  0.15968879274E+02  0.00000000000E+00 0. -1.
          1   -1    0    0  502    0  0.00000000000E+00 -0.00000000000E+00 -0.22996657154E+04  0.22996657154E+04  0.00000000000E+00 0.  1.
          6    2    1    2  502    0 -0.74715165918E+02 -0.19251636390E+02 -0.13508958640E+04  0.13639998584E+04  0.17211332520E+03 0.  0.
         24    2    3    3    0    0 -0.11097675635E+03 -0.43598399793E+02 -0.92442006561E+03  0.93526758241E+03  0.77177277033E+02 0.  0.
         -6    2    1    2    0  501  0.74715165918E+02  0.19251636390E+02 -0.93280097212E+03  0.95163473631E+03  0.17186633248E+03 0.  0.
        -24    2    5    5    0    0  0.16268177972E+02 -0.43297952488E+02 -0.33018212119E+03  0.34294756627E+03  0.80333266804E+02 0.  0.
          5    1    3    3  502    0  0.36261590430E+02  0.24346763402E+02 -0.42647579840E+03  0.42873227595E+03  0.47000000000E+01 0. -1.
        -13    1    4    4    0    0 -0.34046231969E+02  0.10267181957E+02 -0.46437308474E+03  0.46573267308E+03  0.00000000000E+00 0.  1.
         14    1    4    4    0    0 -0.76930524379E+02 -0.53865581749E+02 -0.46004698087E+03  0.46953490934E+03  0.00000000000E+00 0. -1.
         -5    1    5    5    0  501  0.58446987946E+02  0.62549588879E+02 -0.60261885093E+03  0.60868717004E+03  0.47000000000E+01 0.  1.
         11    1    6    6    0    0 -0.11583954765E+02 -0.19046636198E+02 -0.18175801542E+02  0.28763207751E+02  0.00000000000E+00 0. -1.
        -12    1    6    6    0    0  0.27852132737E+02 -0.24251316290E+02 -0.31200631965E+03  0.31418435852E+03  0.00000000000E+00 0.  1.
</event>
<event>
12    1  0.1348628E-002  0.2754750E+03  0.7818608E-02  0.1098186E+00
         -2   -1    0    0    0  501 -0.00000000000E+00  0.00000000000E+00  0.69714716080E+02  0.69714716080E+02  0.00000000000E+00 0.  1.
          2   -1    0    0  502    0  0.00000000000E+00 -0.00000000000E+00 -0.22377378523E+04  0.22377378523E+04  0.00000000000E+00 0. -1.
          6    2    1    2  502    0  0.13097318504E+03  0.17023117259E+03 -0.19114108727E+04  0.19312049073E+04  0.17299781029E+03 0.  0.
         24    2    3    3    0    0  0.15178807472E+03  0.94418519081E+02 -0.13865180196E+04  0.14004362050E+04  0.82673268498E+02 0.  0.
         -6    2    1    2    0  501 -0.13097318504E+03 -0.17023117259E+03 -0.25661226352E+03  0.37624766108E+03  0.17198785237E+03 0.  0.
        -24    2    5    5    0    0 -0.41758547742E+02 -0.11969382099E+03 -0.22285380298E+03  0.26819675145E+03  0.78710182896E+02 0.  0.
          5    1    3    3  502    0 -0.20814889675E+02  0.75812653507E+02 -0.52489285314E+03  0.53076870230E+03  0.47000000000E+01 0. -1.
        -11    1    4    4    0    0  0.19020583109E+02 -0.31391741038E+01 -0.46646452629E+02  0.50473047646E+02  0.00000000000E+00 0.  1.
         12    1    4    4    0    0  0.13276749161E+03  0.97557693185E+02 -0.13398715670E+04  0.13499631574E+04  0.00000000000E+00 0. -1.
         -5    1    5    5    0  501 -0.89214637301E+02 -0.50537351595E+02 -0.33758460536E+02  0.10805090963E+03  0.47000000000E+01 0.  1.
         11    1    6    6    0    0 -0.12391539924E+02 -0.11350539012E+03 -0.20065621393E+03  0.23086779775E+03  0.00000000000E+00 0. -1.
        -12    1    6    6    0    0 -0.29367007817E+02 -0.61884308715E+01 -0.22197589053E+02  0.37328953703E+02  0.00000000000E+00 0.  1.
</event>
<event>
12    1  0.1348628E-002  0.3279462E+03  0.7818608E-02  0.1072049E+00
          2   -1    0    0  502    0  0.00000000000E+00  0.00000000000E+00  0.27911337763E+04  0.27911337763E+04  0.00000000000E+00 0. -1.
         -2   -1    0    0    0  501 -0.00000000000E+00 -0.00000000000E+00 -0.78032618403E+02  0.78032618403E+02  0.00000000000E+00 0.  1.
          6    2    1    2  502    0  0.52352675412E+02  0.27358161538E+03  0.33022051474E+03  0.46344044638E+03  0.16776100887E+03 0.  0.
         24    2    3    3    0    0 -0.66951531408E+01  0.21262832282E+03  0.17599097405E+03  0.28734163562E+03  0.79603793099E+02 0.  0.
         -6    2    1    2    0  501 -0.52352675412E+02 -0.27358161538E+03  0.23828806431E+04  0.24057259483E+04  0.17835211230E+03 0.  0.
        -24    2    5    5    0    0 -0.15626414863E+02 -0.77925576260E+02  0.77676763421E+03  0.78731586698E+03  0.10090459139E+03 0.  0.
          5    1    3    3  502    0  0.59047828553E+02  0.60953292562E+02  0.15422954069E+03  0.17609881076E+03  0.47000000000E+01 0. -1.
        -13    1    4    4    0    0 -0.44991604685E+01  0.45223984773E+02  0.85998845182E+02  0.97268970470E+02  0.00000000000E+00 0.  1.
         14    1    4    4    0    0 -0.21959926723E+01  0.16740433804E+03  0.89992128864E+02  0.19007266515E+03  0.00000000000E+00 0. -1.
         -5    1    5    5    0  501 -0.36726260550E+02 -0.19565603912E+03  0.16061130089E+04  0.16184100813E+04  0.47000000000E+01 0.  1.
         11    1    6    6    0    0 -0.10096619734E+02  0.10914970688E+02  0.39612940805E+03  0.39640835793E+03  0.00000000000E+00 0. -1.
        -12    1    6    6    0    0 -0.55297951292E+01 -0.88840546947E+02  0.38063822616E+03  0.39090750905E+03  0.00000000000E+00 0.  1.
</event>
<event>
12    1  0.1348628E-002  0.2595559E+03  0.7818608E-02  0.1107410E+00
          1   -1    0    0  502    0  0.00000000000E+00  0.00000000000E+00  0.77842508144E+03  0.77842508144E+03  0.00000000000E+00 0.  1.
         -1   -1    0    0    0  501 -0.00000000000E+00 -0.00000000000E+00 -0.91060697409E+02  0.91060697409E+02  0.00000000000E+00 0. -1.
          6    2    1    2  502    0 -0.14148367116E+03  0.13228935037E+03  0.24627493806E+03  0.35745158983E+03  0.17205287714E+03 0.  0.
         24    2    3    3    0    0 -0.10414817123E+01  0.39383520872E+02  0.11606796580E+03  0.14453975983E+03  0.76601717250E+02 0.  0.
         -6    2    1    2    0  501  0.14148367116E+03 -0.13228935037E+03  0.44108944598E+03  0.51203418902E+03  0.17349642634E+03 0.  0.
        -24    2    5    5    0    0  0.53292426616E+02  0.52100446600E+01  0.18784603619E+03  0.21064060275E+03  0.78842266043E+02 0.  0.
          5    1    3    3  502    0 -0.14044218944E+03  0.92905829494E+02  0.13020697225E+03  0.21291183000E+03  0.47000000000E+01 0. -1.
        -13    1    4    4    0    0  0.93513320005E+01  0.57439816370E+02  0.10703333805E+03  0.12183150400E+03  0.00000000000E+00 0.  1.
         14    1    4    4    0    0 -0.10392813713E+02 -0.18056295498E+02  0.90346277583E+01  0.22708255827E+02  0.00000000000E+00 0. -1.
         -5    1    5    5    0  501  0.88191244539E+02 -0.13749939503E+03  0.25324340979E+03  0.30139358628E+03  0.47000000000E+01 0.  1.
         13    1    6    6    0    0  0.11630617793E+02  0.22089358426E+02  0.94898809220E+01  0.26707093923E+02  0.00000000000E+00 0. -1.
        -14    1    6    6    0    0  0.41661808823E+02 -0.16879313766E+02  0.17835615526E+03  0.18393350882E+03  0.00000000000E+00 0.  1.
</event>
<event>
12    1  0.1348628E-002  0.2219290E+03  0.7818608E-02  0.1132453E+00
         -2   -1    0    0    0  501 -0.00000000000E+00  0.00000000000E+00  0.19874866921E+03  0.19874866921E+03  0.00000000000E+00 0.  1.
          2   -1    0    0  502    0  0.00000000000E+00 -0.00000000000E+00 -0.27114990786E+03  0.27114990786E+03  0.00000000000E+00 0. -1.
          6    2    1    2  502    0 -0.41953945691E+02 -0.13602895295E+03 -0.10532967757E+03  0.24698800876E+03  0.17217643826E+03 0.  0.
         24    2    3    3    0    0 -0.79794951877E+02 -0.71558602046E+02 -0.11727700959E+02  0.12710561672E+03  0.67308476139E+02 0.  0.
         -6    2    1    2    0  501  0.41953945691E+02  0.13602895295E+03  0.32928438920E+02  0.22291056831E+03  0.16834734859E+03 0.  0.
        -24    2    5    5    0    0 -0.30212234236E+02  0.20015373065E+02  0.13765863043E+02  0.84865638827E+02  0.75493598482E+02 0.  0.
          5    1    3    3  502    0  0.37841006186E+02 -0.64470350900E+02 -0.93601976613E+02  0.11988239204E+03  0.47000000000E+01 0. -1.
        -13    1    4    4    0    0 -0.44546746155E+02 -0.50029949035E+02  0.25328032558E+02  0.71616461982E+02  0.00000000000E+00 0.  1.
         14    1    4    4    0    0 -0.35248205722E+02 -0.21528653011E+02 -0.37055733517E+02  0.55489154739E+02  0.00000000000E+00 0. -1.
         -5    1    5    5    0  501  0.72166179927E+02  0.11601357988E+03  0.19162575877E+02  0.13804492948E+03  0.47000000000E+01 0.  1.
         11    1    6    6    0    0 -0.23503638343E+02  0.35043940623E+02 -0.20455288506E+02  0.46892617944E+02  0.00000000000E+00 0. -1.
        -12    1    6    6    0    0 -0.67085958930E+01 -0.15028567558E+02  0.34221151549E+02  0.37973020884E+02  0.00000000000E+00 0.  1.
</event>
<event>
12    1  0.1348628E-002  0.2564676E+03  0.7818608E-02  0.1109284E+00
         -2   -1    0    0    0  501 -0.00000000000E+00  0.00000000000E+00  0.30221405282E+03  0.30221405282E+03  0.00000000000E+00 0.  1.
          2   -1    0    0  502    0  0.00000000000E+00 -0.00000000000E+00 -0.22947425784E+03  0.22947425784E+03  0.00000000000E+00 0. -1.
          6    2    1    2  502    0  0.18433265080E+03  0.47813487871E+02 -0.23977696530E+02  0.25765135935E+03  0.17188553537E+03 0.  0.
         24    2    3    3    0    0  0.62043777996E+02 -0.32881054330E+02  0.85678954897E+01  0.10749316573E+03  0.80936874925E+02 0.  0.
         -6    2    1    2    0  501 -0.18433265080E+03 -0.47813487871E+02  0.96717491512E+02  0.27403695131E+03  0.17168960873E+03 0.  0.
        -24    2    5    5    0    0 -0.45305297828E+02 -0.68390713956E+02  0.27266651050E+02  0.11720093392E+03  0.79137405103E+02 0.  0.
          5    1    3    3  502    0  0.12228887281E+03  0.80694542200E+02 -0.32545592019E+02  0.15015819363E+03  0.47000000000E+01 0. -1.
        -13    1    4    4    0    0 -0.19801862289E+02 -0.61192365585E+01  0.49428831685E+01  0.21307062214E+02  0.00000000000E+00 0.  1.
         14    1    4    4    0    0  0.81845640285E+02 -0.26761817771E+02  0.36250123212E+01  0.86186103511E+02  0.00000000000E+00 0. -1.
         -5    1    5    5    0  501 -0.13902735298E+03  0.20577226086E+02  0.69450840462E+02  0.15683601739E+03  0.47000000000E+01 0.  1.
         11    1    6    6    0    0 -0.51396037026E+00 -0.39072543936E+02  0.46116842559E+02  0.60445769186E+02  0.00000000000E+00 0. -1.
        -12    1    6    6    0    0 -0.44791337458E+02 -0.29318170021E+02 -0.18850191508E+02  0.56755164739E+02  0.00000000000E+00 0.  1.
</event>
<event>
12    1  0.1348628E-002  0.1852819E+03  0.7818608E-02  0.1162787E+00
         -2   -1    0    0    0  501 -0.00000000000E+00  0.00000000000E+00  0.76755506856E+03  0.76755506856E+03  0.00000000000E+00 0.  1.
          2   -1    0    0  502    0  0.00000000000E+00 -0.00000000000E+00 -0.53448038594E+02  0.53448038594E+02  0.00000000000E+00 0. -1.
          6    2    1    2  502    0  0.14370564431E+02  0.69661099742E+02  0.19184866058E+03  0.26698150288E+03  0.17150519634E+03 0.  0.
         24    2    3    3    0    0 -0.47437186819E+01  0.73140011003E+02  0.21119210265E+03  0.23916572690E+03  0.85006921047E+02 0.  0.
         -6    2    1    2    0  501 -0.14370564431E+02 -0.69661099742E+02  0.52225836938E+03  0.55402160427E+03  0.17066619956E+03 0.  0.
        -24    2    5    5    0    0 -0.73536743910E+01  0.52063851653E+01  0.11557274547E+03  0.14041591797E+03  0.79236276741E+02 0.  0.
          5    1    3    3  502    0  0.19114283112E+02 -0.34789112608E+01 -0.19343442065E+02  0.27815775980E+02  0.47000000000E+01 0. -1.
        -13    1    4    4    0    0  0.31943429942E+02  0.67901320248E+02  0.13561703053E+03  0.15499339011E+03  0.00000000000E+00 0.  1.
         14    1    4    4    0    0 -0.36687148624E+02  0.52386907552E+01  0.75575072121E+02  0.84172336793E+02  0.00000000000E+00 0. -1.
         -5    1    5    5    0  501 -0.70168900396E+01 -0.74867484908E+02  0.40668562391E+03  0.41360568630E+03  0.47000000000E+01 0.  1.
         11    1    6    6    0    0 -0.14258782174E+01 -0.35047795338E+02  0.32069842956E+02  0.47527422758E+02  0.00000000000E+00 0. -1.
        -12    1    6    6    0    0 -0.59277961735E+01  0.40254180504E+02  0.83502902512E+02  0.92888495216E+02  0.00000000000E+00 0.  1.
</event>
<event>
12    1  0.1348628E-002  0.3846362E+03  0.7818608E-02  0.1049233E+00
         -2   -1    0    0    0  501 -0.00000000000E+00  0.00000000000E+00  0.37317568715E+03  0.37317568715E+03  0.00000000000E+00 0. -1.
          2   -1    0    0  502    0  0.00000000000E+00 -0.00000000000E+00 -0.75074428321E+03  0.75074428321E+03  0.00000000000E+00 0.  1.
          6    2    1    2  502    0 -0.18395285354E+03  0.28762542801E+03  0.19657207765E+03  0.43429368643E+03  0.18276593009E+03 0.  0.
         24    2    3    3    0    0 -0.12532742948E+03  0.18354557530E+03  0.44210094764E+02  0.24062949275E+03  0.80944904171E+02 0.  0.
         -6    2    1    2    0  501  0.18395285354E+03 -0.28762542801E+03 -0.57414067371E+03  0.68962628393E+03  0.17140553991E+03 0.  0.
        -24    2    5    5    0    0  0.17733545818E+03 -0.18152337445E+03 -0.47403343457E+03  0.54352705388E+03  0.79469245723E+02 0.  0.
          5    1    3    3  502    0 -0.58625424053E+02  0.10407985271E+03  0.15236198288E+03  0.19366419368E+03  0.47000000000E+01 0. -1.
        -11    1    4    4    0    0 -0.72924233464E+02  0.16562035394E+03  0.29800828787E+02  0.18340156723E+03  0.00000000000E+00 0.  1.
         12    1    4    4    0    0 -0.52403196019E+02  0.17925221356E+02  0.14409265977E+02  0.57227925523E+02  0.00000000000E+00 0. -1.
         -5    1    5    5    0  501  0.66173953597E+01 -0.10610205356E+03 -0.10010723914E+03  0.14609923004E+03  0.47000000000E+01 0.  1.
         11    1    6    6    0    0  0.69178040856E+02 -0.10384234087E+03 -0.29582067157E+03  0.32105872177E+03  0.00000000000E+00 0. -1.
        -12    1    6    6    0    0  0.10815741732E+03 -0.77681033578E+02 -0.17821276300E+03  0.22246833212E+03  0.00000000000E+00 0.  1.
</event>
<event>
12    1  0.1348628E-002  0.1972651E+03  0.7818608E-02  0.1152067E+00
          2   -1    0    0  502    0  0.00000000000E+00  0.00000000000E+00  0.12448571082E+04  0.12448571082E+04  0.00000000000E+00 0.  1.
         -2   -1    0    0    0  501 -0.00000000000E+00 -0.00000000000E+00 -0.60681736408E+02  0.60681736408E+02  0.00000000000E+00 0. -1.
          6    2    1    2  502    0  0.51487983233E+02 -0.82778631956E+02  0.10465154232E+04  0.10649320394E+04  0.17141296124E+03 0.  0.
         24    2    3    3    0    0  0.20395511166E+02 -0.11911898507E+03  0.87161239947E+03  0.88354703235E+03  0.79635883764E+02 0.  0.
         -6    2    1    2    0  501 -0.51487983233E+02  0.82778631956E+02  0.13765994854E+03  0.24060680513E+03  0.17157522816E+03 0.  0.
        -24    2    5    5    0    0 -0.22030866026E+02  0.30430936097E+02  0.15486807327E+03  0.17794730807E+03  0.79181584974E+02 0.  0.
          5    1    3    3  502    0  0.31092472067E+02  0.36340353115E+02  0.17490302374E+03  0.18138500709E+03  0.47000000000E+01 0. -1.
        -13    1    4    4    0    0  0.75116872412E+01 -0.11061489666E+03  0.52441903786E+03  0.53601064176E+03  0.00000000000E+00 0.  1.
         14    1    4    4    0    0  0.12883823925E+02 -0.85040884110E+01  0.34719336161E+03  0.34753639059E+03  0.00000000000E+00 0. -1.
         -5    1    5    5    0  501 -0.29457117207E+02  0.52347695858E+02 -0.17208124729E+02  0.62659497065E+02  0.47000000000E+01 0.  1.
         13    1    6    6    0    0  0.13245219596E+02 -0.40053033053E+01 -0.15692780875E+01  0.13926267642E+02  0.00000000000E+00 0. -1.
        -14    1    6    6    0    0 -0.35276085622E+02  0.34436239403E+02  0.15643735136E+03  0.16402104042E+03  0.00000000000E+00 0.  1.
</event>
<event>
12    1  0.1348628E-002  0.1933600E+03  0.7818608E-02  0.1155465E+00
         -2   -1    0    0    0  501 -0.00000000000E+00  0.00000000000E+00  0.29120515137E+02  0.29120515137E+02  0.00000000000E+00 0. -1.
          2   -1    0    0  502    0  0.00000000000E+00 -0.00000000000E+00 -0.17613486799E+04  0.17613486799E+04  0.00000000000E+00 0.  1.
          6    2    1    2  502    0  0.20407474983E+02 -0.84442983875E+02 -0.13316251942E+04  0.13455649030E+04  0.17254613273E+03 0.  0.
         24    2    3    3    0    0  0.40991977822E+02 -0.57013188357E+02 -0.12711528181E+04  0.12758862570E+04  0.84412131928E+02 0.  0.
         -6    2    1    2    0  501 -0.20407474983E+02  0.84442983875E+02 -0.40060297054E+03  0.44490429197E+03  0.17294509662E+03 0.  0.
        -24    2    5    5    0    0 -0.52207509573E+02  0.11468605121E+03 -0.29429945603E+03  0.32980254342E+03  0.79240352274E+02 0.  0.
          5    1    3    3  502    0 -0.20584502839E+02 -0.27429795518E+02 -0.60472376077E+02  0.69678645995E+02  0.47000000000E+01 0. -1.
        -11    1    4    4    0    0  0.28917612253E+02 -0.58444014184E+02 -0.45558357804E+03  0.46022638741E+03  0.00000000000E+00 0.  1.
         12    1    4    4    0    0  0.12074365569E+02  0.14308258271E+01 -0.81556924007E+03  0.81565986962E+03  0.00000000000E+00 0. -1.
         -5    1    5    5    0  501  0.31800034591E+02 -0.30243067335E+02 -0.10630351452E+03  0.11510174856E+03  0.47000000000E+01 0.  1.
         13    1    6    6    0    0 -0.61155630378E+02  0.57560767678E+02 -0.12242518765E+03  0.14846272150E+03  0.00000000000E+00 0. -1.
        -14    1    6    6    0    0  0.89481208044E+01  0.57125283532E+02 -0.17187426838E+03  0.18133982192E+03  0.00000000000E+00 0.  1.
</event>
<event>
12    1  0.1348628E-002  0.1818524E+03  0.7818608E-02  0.1166022E+00
         -2   -1    0    0    0  501 -0.00000000000E+00  0.00000000000E+00  0.19774947610E+02  0.19774947610E+02  0.00000000000E+00 0.  1.
          2   -1    0    0  502    0  0.00000000000E+00 -0.00000000000E+00 -0.17623400995E+04  0.17623400995E+04  0.00000000000E+00 0. -1.
          6    2    1    2  502    0 -0.17227851682E+02  0.47572865134E+02 -0.66833405313E+03  0.69254191631E+03  0.17430984739E+03 0.  0.
         24    2    3    3    0    0  0.29261623091E+02  0.85731406799E+02 -0.45100229371E+03  0.46699252212E+03  0.80453900367E+02 0.  0.
         -6    2    1    2    0  501  0.17227851682E+02 -0.47572865134E+02 -0.10742310987E+04  0.10895731308E+04  0.17503478926E+03 0.  0.
        -24    2    5    5    0    0  0.19247338085E+02 -0.40588347025E+02 -0.10765720904E+04  0.10806047385E+04  0.81738981082E+02 0.  0.
          5    1    3    3  502    0 -0.46489474773E+02 -0.38158541665E+02 -0.21733175942E+03  0.22554939419E+03  0.47000000000E+01 0. -1.
        -13    1    4    4    0    0 -0.17706108147E+02  0.59972730332E+02 -0.30806429088E+03  0.31434669072E+03  0.00000000000E+00 0.  1.
         14    1    4    4    0    0  0.46967731238E+02  0.25758676468E+02 -0.14293800283E+03  0.15264583140E+03  0.00000000000E+00 0. -1.
         -5    1    5    5    0  501 -0.20194864033E+01 -0.69845181094E+01  0.23409916707E+01  0.89683923061E+01  0.47000000000E+01 0.  1.
         13    1    6    6    0    0 -0.23433766448E+02 -0.44229647232E+02 -0.62828620227E+03  0.63027688762E+03  0.00000000000E+00 0. -1.
        -14    1    6    6    0    0  0.42681104533E+02  0.36413002068E+01 -0.44828588815E+03  0.45032785086E+03  0.00000000000E+00 0.  1.
</event>
<event>
12    1  0.1348628E-002  0.1887276E+03  0.7818608E-02  0.1159614E+00
          1   -1    0    0  502    0  0.00000000000E+00  0.00000000000E+00  0.85738627971E+03  0.85738627971E+03  0.00000000000E+00 0. -1.
         -1   -1    0    0    0  501 -0.00000000000E+00 -0.00000000000E+00 -0.83363026310E+02  0.83363026310E+02  0.00000000000E+00 0.  1.
          6    2    1    2  502    0 -0.62759598269E+02 -0.49389947397E+02  0.72070126439E+03  0.74513471922E+03  0.17157302590E+03 0.  0.
         24    2    3    3    0    0 -0.40587900345E+02  0.10726813344E+02  0.17945530607E+03  0.20008895370E+03  0.77903403894E+02 0.  0.
         -6    2    1    2    0  501  0.62759598269E+02  0.49389947397E+02  0.53321989011E+02  0.19561458680E+03  0.17042211705E+03 0.  0.
        -24    2    5    5    0    0  0.77433125330E+02  0.75961994684E+02  0.78161606136E+02  0.15611164169E+03  0.80594630485E+02 0.  0.
          5    1    3    3  502    0 -0.22171697923E+02 -0.60116760740E+02  0.54124595833E+03  0.54504576552E+03  0.47000000000E+01 0. -1.
        -11    1    4    4    0    0 -0.47287182569E+02 -0.23967926802E+02  0.11323217229E+03  0.12502825278E+03  0.00000000000E+00 0.  1.
         12    1    4    4    0    0  0.66992822236E+01  0.34694740146E+02  0.66223133772E+02  0.75060700920E+02  0.00000000000E+00 0. -1.
         -5    1    5    5    0  501 -0.14673527062E+02 -0.26572047287E+02 -0.24839617125E+02  0.39502945110E+02  0.47000000000E+01 0.  1.
         11    1    6    6    0    0  0.93130534894E+02  0.69213230327E+02  0.76416382566E+02  0.13893606913E+03  0.00000000000E+00 0. -1.
        -12    1    6    6    0    0 -0.15697409564E+02  0.67487643565E+01  0.17452235697E+01  0.17175572557E+02  0.00000000000E+00 0.  1.
</event>
<event>
12    1  0.1348628E-002  0.2494449E+03  0.7818608E-02  0.1113656E+00
         -2   -1    0    0    0  501 -0.00000000000E+00  0.00000000000E+00  0.46353054435E+02  0.46353054435E+02  0.00000000000E+00 0.  1.
          2   -1    0    0  502    0  0.00000000000E+00 -0.00000000000E+00 -0.16964010874E+04  0.16964010874E+04  0.00000000000E+00 0. -1.
          6    2    1    2  502    0  0.13298294347E+03  0.11609218886E+03 -0.43656153548E+03  0.50460954941E+03  0.18133660284E+03 0.  0.
         24    2    3    3    0    0  0.11365525145E+03  0.71702426964E+02 -0.16990100862E+03  0.23354878644E+03  0.87292202980E+02 0.  0.
         -6    2    1    2    0  501 -0.13298294347E+03 -0.11609218886E+03 -0.12134864975E+04  0.12381445924E+04  0.17114523831E+03 0.  0.
        -24    2    5    5    0    0 -0.15506725839E+03 -0.12705538362E+03 -0.11493038823E+04  0.11692286531E+04  0.77506800674E+02 0.  0.
          5    1    3    3  502    0  0.19327692017E+02  0.44389761899E+02 -0.26666052686E+03  0.27106076297E+03  0.47000000000E+01 0. -1.
        -13    1    4    4    0    0  0.70059929447E+02  0.88936792457E+02 -0.11548528337E+03  0.16172506745E+03  0.00000000000E+00 0.  1.
         14    1    4    4    0    0  0.43595322004E+02 -0.17234365493E+02 -0.54415725255E+02  0.71823718990E+02  0.00000000000E+00 0. -1.
         -5    1    5    5    0  501  0.22084314921E+02  0.10963194755E+02 -0.64182615132E+02  0.68915939303E+02  0.47000000000E+01 0.  1.
         13    1    6    6    0    0 -0.93062981260E+02 -0.34071105669E+02 -0.65445629102E+03  0.66191736310E+03  0.00000000000E+00 0. -1.
        -14    1    6    6    0    0 -0.62004277129E+02 -0.92984277950E+02 -0.49484759131E+03  0.50731128999E+03  0.00000000000E+00 0.  1.
</event>
<event>
12    1  0.1348628E-002  0.1787891E+03  0.7818608E-02  0.1168980E+00
         -2   -1    0    0    0  501 -0.00000000000E+00  0.00000000000E+00  0.17588551046E+02  0.17588551046E+02  0.00000000000E+00 0. -1.
          2   -1    0    0  502    0  0.00000000000E+00 -0.00000000000E+00 -0.22568545482E+04  0.22568545482E+04  0.00000000000E+00 0.  1.
          6    2    1    2  502    0 -0.16386020256E+02 -0.39446391881E+02 -0.16182873799E+04  0.16280654355E+04  0.17296964783E+03 0.  0.
         24    2    3    3    0    0 -0.50446320528E+02 -0.46314581557E+02 -0.15216532742E+04  0.15252670092E+04  0.79504029389E+02 0.  0.
         -6    2    1    2    0  501  0.16386020256E+02  0.39446391881E+02 -0.62097861730E+03  0.64637766372E+03  0.17425590813E+03 0.  0.
        -24    2    5    5    0    0  0.77062728726E+02  0.23148491560E+02 -0.44521490113E+03  0.45966328712E+03  0.81237383761E+02 0.  0.
          5    1    3    3  502    0  0.34060300273E+02  0.68681896761E+01 -0.96634105671E+02  0.10279842636E+03  0.47000000000E+01 0. -1.
        -11    1    4    4    0    0 -0.34460537697E+02 -0.60189025260E+02 -0.71962538328E+03  0.72295984652E+03  0.00000000000E+00 0.  1.
         12    1    4    4    0    0 -0.15985782832E+02  0.13874443703E+02 -0.80202789091E+03  0.80230716265E+03  0.00000000000E+00 0. -1.
         -5    1    5    5    0  501 -0.60676708470E+02  0.16297900321E+02 -0.17576371617E+03  0.18671437660E+03  0.47000000000E+01 0.  1.
         13    1    6    6    0    0  0.22574133619E+01  0.29807630540E+02 -0.58190327708E+02  0.65419454233E+02  0.00000000000E+00 0. -1.
        -14    1    6    6    0    0  0.74805315364E+02 -0.66591389797E+01 -0.38702457342E+03  0.39424383289E+03  0.00000000000E+00 0.  1.
</event>
<event>
12    1  0.1348628E-002  0.1748740E+03  0.7818608E-02  0.1172858E+00
          2   -1    0    0  502    0  0.00000000000E+00  0.00000000000E+00  0.99696714465E+02  0.99696714465E+02  0.00000000000E+00 0. -1.
         -2   -1    0    0    0  501 -0.00000000000E+00 -0.00000000000E+00 -0.47929027216E+03  0.47929027216E+03  0.00000000000E+00 0.  1.
          6    2    1    2  502    0  0.27780782162E+02  0.81177429115E+01 -0.36183953895E+03  0.40087938044E+03  0.17011395037E+03 0.  0.
         24    2    3    3    0    0  0.29981867004E+02 -0.16734072977E+02 -0.36457645100E+03  0.37534434147E+03  0.82392017219E+02 0.  0.
         -6    2    1    2    0  501 -0.27780782162E+02 -0.81177429115E+01 -0.17754018752E+02  0.17810760619E+03  0.17484119821E+03 0.  0.
        -24    2    5    5    0    0 -0.22508402264E+02 -0.32499188561E+01  0.58164254625E+02  0.10170624538E+03  0.80273841866E+02 0.  0.
          5    1    3    3  502    0 -0.22010848421E+01  0.24851815888E+02  0.27369120583E+01  0.25535038967E+02  0.47000000000E+01 0. -1.
        -11    1    4    4    0    0  0.41553567652E+02 -0.12128830386E+02 -0.84054976330E+02  0.94546531174E+02  0.00000000000E+00 0.  1.
         12    1    4    4    0    0 -0.11571700649E+02 -0.46052425903E+01 -0.28052147467E+03  0.28079781030E+03  0.00000000000E+00 0. -1.
         -5    1    5    5    0  501 -0.52723798982E+01 -0.48678240554E+01 -0.75918273377E+02  0.76401360808E+02  0.47000000000E+01 0.  1.
         13    1    6    6    0    0 -0.24124115445E+02  0.32240697196E+02  0.51805397716E+02  0.65614287577E+02  0.00000000000E+00 0. -1.
        -14    1    6    6    0    0  0.16157131814E+01 -0.35490616052E+02  0.63588569091E+01  0.36091957802E+02  0.00000000000E+00 0.  1.
</event>
<event>
12    1  0.1348628E-002  0.2450832E+03  0.7818608E-02  0.1116452E+00
          1   -1    0    0  502    0  0.00000000000E+00  0.00000000000E+00  0.10607010533E+04  0.10607010533E+04  0.00000000000E+00 0.  1.
         -1   -1    0    0    0  501 -0.00000000000E+00 -0.00000000000E+00 -0.72607630634E+02  0.72607630634E+02  0.00000000000E+00 0. -1.
          6    2    1    2  502    0  0.96030044601E+02 -0.14513360622E+03  0.75899677977E+03  0.79741387228E+03  0.17177671225E+03 0.  0.
         24    2    3    3    0    0  0.35289983530E+02 -0.12964839721E+03  0.34751769585E+03  0.38116121676E+03  0.80381803887E+02 0.  0.
         -6    2    1    2    0  501 -0.96030044601E+02  0.14513360622E+03  0.22909664291E+03  0.33589481167E+03  0.17336239384E+03 0.  0.
        -24    2    5    5    0    0 -0.67610345101E+01  0.95646615226E+02  0.18753057814E+03  0.22558730431E+03  0.80795591077E+02 0.  0.
          5    1    3    3  502    0  0.60740061071E+02 -0.15485209007E+02  0.41147908392E+03  0.41625265551E+03  0.47000000000E+01 0. -1.
        -13    1    4    4    0    0  0.31033101835E+02 -0.29429382417E+02  0.18739482451E+03  0.19221332476E+03  0.00000000000E+00 0.  1.
         14    1    4    4    0    0  0.42568816944E+01 -0.10021901479E+03  0.16012287134E+03  0.18894789201E+03  0.00000000000E+00 0. -1.
         -5    1    5    5    0  501 -0.89269010091E+02  0.49486990993E+02  0.41566064770E+02  0.11030750736E+03  0.47000000000E+01 0.  1.
         11    1    6    6    0    0 -0.18762538599E+02  0.58086686777E+02  0.40244399577E+02  0.73114346969E+02  0.00000000000E+00 0. -1.
        -12    1    6    6    0    0  0.12001504089E+02  0.37559928449E+02  0.14728617856E+03  0.15247295734E+03  0.00000000000E+00 0.  1.
</event>
<event>
12    1  0.1348628E-002  0.1951923E+03  0.7818608E-02  0.1153860E+00
         -1   -1    0    0    0  501 -0.00000000000E+00  0.00000000000E+00  0.78713435631E+03  0.78713435631E+03  0.00000000000E+00 0. -1.
          1   -1    0    0  502    0  0.00000000000E+00 -0.00000000000E+00 -0.93913253934E+02  0.93913253934E+02  0.00000000000E+00 0.  1.
          6    2    1    2  502    0 -0.29451019521E+01 -0.90937003338E+02  0.65312330116E+03  0.68162087526E+03  0.17250727195E+03 0.  0.
         24    2    3    3    0    0 -0.57982165575E+02 -0.25242523035E+02  0.22508168786E+03  0.24505867370E+03  0.73436168563E+02 0.  0.
         -6    2    1    2    0  501  0.29451019521E+01  0.90937003338E+02  0.40097801217E+02  0.19942673498E+03  0.17287271838E+03 0.  0.
        -24    2    5    5    0    0  0.63895279341E+02  0.34435234162E+02  0.35697020814E+02  0.11606708700E+03  0.83240010305E+02 0.  0.
          5    1    3    3  502    0  0.55037063623E+02 -0.65694480303E+02  0.42804161330E+03  0.43656220156E+03  0.47000000000E+01 0. -1.
        -11    1    4    4    0    0 -0.14550343257E+02  0.25562714895E+02  0.82536221504E+02  0.87620732374E+02  0.00000000000E+00 0.  1.
         12    1    4    4    0    0 -0.43431822318E+02 -0.50805237930E+02  0.14254546635E+03  0.15743794132E+03  0.00000000000E+00 0. -1.
         -5    1    5    5    0  501 -0.60950177388E+02  0.56501769177E+02  0.44007804033E+01  0.83359647984E+02  0.47000000000E+01 0.  1.
         13    1    6    6    0    0 -0.32290000780E+01  0.29767011230E+02  0.38439629479E+02  0.48724803884E+02  0.00000000000E+00 0. -1.
        -14    1    6    6    0    0  0.67124279419E+02  0.46682229314E+01 -0.27426086648E+01  0.67342283115E+02  0.00000000000E+00 0.  1.
</event>
<event>
12    1  0.1348628E-002  0.2145107E+03  0.7818608E-02  0.1138043E+00
         -2   -1    0    0    0  501 -0.00000000000E+00  0.00000000000E+00  0.16886183742E+03  0.16886183742E+03  0.00000000000E+00 0. -1.
          2   -1    0    0  502    0  0.00000000000E+00 -0.00000000000E+00 -0.28165712297E+03  0.28165712297E+03  0.00000000000E+00 0.  1.
          6    2    1    2  502    0 -0.32677268690E+02 -0.12374988535E+03 -0.15848769686E+02  0.21535659035E+03  0.17246866235E+03 0.  0.
         24    2    3    3    0    0 -0.73350226604E+02 -0.74524717329E+02  0.30748274583E+02  0.13616832603E+03  0.81622101097E+02 0.  0.
         -6    2    1    2    0  501  0.32677268690E+02  0.12374988535E+03 -0.96946515864E+02  0.23516237004E+03  0.17181640006E+03 0.  0.
        -24    2    5    5    0    0 -0.32052193329E+02  0.56032195795E+02 -0.55265271997E+01  0.10418415406E+03  0.81589493146E+02 0.  0.
          5    1    3    3  502    0  0.40672957913E+02 -0.49225168024E+02 -0.46597044269E+02  0.79188264327E+02  0.47000000000E+01 0. -1.
        -11    1    4    4    0    0 -0.12264191123E+02 -0.48192816053E+02 -0.18862264865E+02  0.53185928015E+02  0.00000000000E+00 0.  1.
         12    1    4    4    0    0 -0.61086035481E+02 -0.26331901276E+02  0.49610539447E+02  0.82982398012E+02  0.00000000000E+00 0. -1.
         -5    1    5    5    0  501  0.64729462020E+02  0.67717689559E+02 -0.91419988664E+02  0.13097821597E+03  0.47000000000E+01 0.  1.
         13    1    6    6    0    0 -0.89689238699E+01  0.73914087006E+02 -0.79762395166E+01  0.74882269264E+02  0.00000000000E+00 0. -1.
        -14    1    6    6    0    0 -0.23083269459E+02 -0.17881891212E+02  0.24497123169E+01  0.29301884797E+02  0.00000000000E+00 0.  1.
</event>
<event>
12    1  0.1348628E-002  0.2493849E+03  0.7818608E-02  0.1113694E+00
         -2   -1    0    0    0  501 -0.00000000000E+00  0.00000000000E+00  0.16822893524E+03  0.16822893524E+03  0.00000000000E+00 0.  1.
          2   -1    0    0  502    0  0.00000000000E+00 -0.00000000000E+00 -0.59203534740E+03  0.59203534740E+03  0.00000000000E+00 0. -1.
          6    2    1    2  502    0  0.16889714182E+03 -0.65150648542E+02 -0.44503857478E+03  0.51031535740E+03  0.17202203184E+03 0.  0.
         24    2    3    3    0    0  0.68542056851E+02  0.12385523768E+02 -0.11625839950E+03  0.15789303298E+03  0.81010984767E+02 0.  0.
         -6    2    1    2    0  501 -0.16889714182E+03  0.65150648542E+02  0.21232162612E+02  0.24994892524E+03  0.17103452569E+03 0.  0.
        -24    2    5    5    0    0 -0.42154214504E+02  0.72484404296E+02 -0.16164371958E+02  0.11751726590E+03  0.80734467217E+02 0.  0.
          5    1    3    3  502    0  0.10035508497E+03 -0.77536172309E+02 -0.32878017528E+03  0.35242232442E+03  0.47000000000E+01 0. -1.
        -13    1    4    4    0    0  0.69816455889E+02  0.42867478475E+01 -0.38773486688E+02  0.79975602467E+02  0.00000000000E+00 0.  1.
         14    1    4    4    0    0 -0.12743990378E+01  0.80987759201E+01 -0.77484912811E+02  0.77917430512E+02  0.00000000000E+00 0. -1.
         -5    1    5    5    0  501 -0.12674292732E+03 -0.73337557541E+01  0.37396534570E+02  0.13243165934E+03  0.47000000000E+01 0.  1.
         13    1    6    6    0    0 -0.64415360327E+02  0.65966360556E+02 -0.19034428627E+02  0.94144616651E+02  0.00000000000E+00 0. -1.
        -14    1    6    6    0    0  0.22261145824E+02  0.65180437395E+01  0.28700566688E+01  0.23372649248E+02  0.00000000000E+00 0.  1.
</event>
<event>
12    1  0.1348628E-002  0.1740028E+03  0.7818608E-02  0.1173737E+00
          2   -1    0    0  502    0  0.00000000000E+00  0.00000000000E+00  0.17181777437E+03  0.17181777437E+03  0.00000000000E+00 0. -1.
         -2   -1    0    0    0  501 -0.00000000000E+00 -0.00000000000E+00 -0.17621629968E+03  0.17621629968E+03  0.00000000000E+00 0.  1.
          6    2    1    2  502    0 -0.87285656338E+01 -0.27864566047E+02 -0.23262689877E+01  0.17435215975E+03  0.17187391362E+03 0.  0.
         24    2    3    3    0    0  0.24949837938E+02 -0.62851516503E+02 -0.41928853281E+02  0.11151287067E+03  0.78129917754E+02 0.  0.
         -6    2    1    2    0  501  0.87285656338E+01  0.27864566047E+02 -0.20722563277E+01  0.17368191430E+03  0.17119722898E+03 0.  0.
        -24    2    5    5    0    0 -0.62705217726E+02  0.14700297459E+02  0.64370725563E+01  0.10039765917E+03  0.76747709981E+02 0.  0.
          5    1    3    3  502    0 -0.33678403572E+02  0.34986950456E+02  0.39602584293E+02  0.62839289080E+02  0.47000000000E+01 0. -1.
        -11    1    4    4    0    0  0.45539871793E+01 -0.76780090023E+02 -0.40116870676E+02  0.86748396734E+02  0.00000000000E+00 0.  1.
         12    1    4    4    0    0  0.20395850759E+02  0.13928573520E+02 -0.18119826051E+01  0.24764473938E+02  0.00000000000E+00 0. -1.
         -5    1    5    5    0  501  0.71433783360E+02  0.13164268588E+02 -0.85093288839E+01  0.73284255135E+02  0.47000000000E+01 0.  1.
         11    1    6    6    0    0  0.20045671456E+01 -0.20932927958E+02 -0.12064778086E+02  0.24243857626E+02  0.00000000000E+00 0. -1.
        -12    1    6    6    0    0 -0.64709784872E+02  0.35633225417E+02  0.18501850642E+02  0.76153801540E+02  0.00000000000E+00 0.  1.
</event>
<event>
12    1  0.1348628E-002  0.1757793E+03  0.7818608E-02  0.1171951E+00
         -2   -1    0    0    0  501 -0.00000000000E+00  0.00000000000E+00  0.26222655832E+03  0.26222655832E+03  0.00000000000E+00 0.  1.
          2   -1    0    0  502    0  0.00000000000E+00 -0.00000000000E+00 -0.15379738968E+03  0.15379738968E+03  0.00000000000E+00 0. -1.
          6    2    1    2  502    0 -0.25705036053E+02  0.21670519921E+02 -0.46315791353E+02  0.18202915147E+03  0.17279785630E+03 0.  0.
         24    2    3    3    0    0  0.17113820991E+02  0.11591529558E+02 -0.87204120478E+02  0.12178808554E+03  0.82465342569E+02 0.  0.
         -6    2    1    2    0  501  0.25705036053E+02 -0.21670519921E+02  0.15474496000E+03  0.23399479653E+03  0.17227072255E+03 0.  0.
        -24    2    5    5    0    0 -0.35631253716E+01 -0.41329838756E+02 -0.68642771560E+01  0.68517457831E+02  0.54098727276E+02 0.  0.
          5    1    3    3  502    0 -0.42818857044E+02  0.10078990363E+02  0.40888329126E+02  0.60241065927E+02  0.47000000000E+01 0. -1.
        -13    1    4    4    0    0  0.41623146071E+02 -0.35583020060E+00 -0.14399137256E+02  0.44044841442E+02  0.00000000000E+00 0.  1.
         14    1    4    4    0    0 -0.24509325080E+02  0.11947359759E+02 -0.72804983222E+02  0.77743244099E+02  0.00000000000E+00 0. -1.
         -5    1    5    5    0  501  0.29268161425E+02  0.19659318834E+02  0.16160923715E+03  0.16547733870E+03  0.47000000000E+01 0.  1.
         11    1    6    6    0    0  0.23622861902E+02 -0.23087517592E+02 -0.12460184722E+02  0.35303389020E+02  0.00000000000E+00 0. -1.
        -12    1    6    6    0    0 -0.27185987274E+02 -0.18242321164E+02  0.55959075658E+01  0.33214068811E+02  0.00000000000E+00 0.  1.
</event>
<event>
12    1  0.1348628E-002  0.1714252E+03  0.7818608E-02  0.1176370E+00
          2   -1    0    0  502    0  0.00000000000E+00  0.00000000000E+00  0.26844801132E+04  0.26844801132E+04  0.00000000000E+00 0.  1.
         -2   -1    0    0    0  501 -0.00000000000E+00 -0.00000000000E+00 -0.21428195378E+02  0.21428195378E+02  0.00000000000E+00 0. -1.
          6    2    1    2  502    0  0.59961084415E+01  0.21018625780E+01  0.22789384231E+04  0.22853991140E+04  0.17160536984E+03 0.  0.
         24    2    3    3    0    0  0.51638209763E+02  0.46171976699E+02  0.13064926729E+04  0.13108745102E+04  0.81673257661E+02 0.  0.
         -6    2    1    2    0  501 -0.59961084415E+01 -0.21018625780E+01  0.38411349478E+03  0.42050919461E+03  0.17101004280E+03 0.  0.
        -24    2    5    5    0    0 -0.39847480930E+02 -0.49408568237E+02  0.16763501237E+03  0.19630200658E+03  0.80024696578E+02 0.  0.
          5    1    3    3  502    0 -0.45642101321E+02 -0.44070114121E+02  0.97244575017E+03  0.97452460379E+03  0.47000000000E+01 0. -1.
        -11    1    4    4    0    0  0.34738383268E+02 -0.13013645798E+02  0.76422044772E+03  0.76512025392E+03  0.00000000000E+00 0.  1.
         12    1    4    4    0    0  0.16899826495E+02  0.59185622496E+02  0.54227222517E+03  0.54575425627E+03  0.00000000000E+00 0. -1.
         -5    1    5    5    0  501  0.33851372489E+02  0.47306705659E+02  0.21647848241E+03  0.22420718803E+03  0.47000000000E+01 0.  1.
         11    1    6    6    0    0  0.10371752427E+02  0.15720161030E+02  0.21236319782E+02  0.28384467391E+02  0.00000000000E+00 0. -1.
        -12    1    6    6    0    0 -0.50219233357E+02 -0.65128729267E+02  0.14639869259E+03  0.16791753919E+03  0.00000000000E+00 0.  1.
</event>
<event>
12    1  0.1348628E-002  0.1869960E+03  0.7818608E-02  0.1161199E+00
          1   -1    0    0  502    0  0.00000000000E+00  0.00000000000E+00  0.17672864599E+04  0.17672864599E+04  0.00000000000E+00 0. -1.
         -1   -1    0    0    0  501 -0.00000000000E+00 -0.00000000000E+00 -0.19953357303E+02  0.19953357303E+02  0.00000000000E+00 0.  1.
          6    2    1    2  502    0  0.43719854039E+02  0.60295025753E+02  0.95550933535E+03  0.97363529766E+03  0.17152459628E+03 0.  0.
         24    2    3    3    0    0 -0.25885411105E+02  0.37147416591E+02  0.30832486334E+03  0.32229012375E+03  0.82199254566E+02 0.  0.
         -6    2    1    2    0  501 -0.43719854039E+02 -0.60295025753E+02  0.79182376720E+03  0.81360451950E+03  0.17152410934E+03 0.  0.
        -24    2    5    5    0    0  0.31622436931E+02 -0.30784948477E+02  0.56837701403E+03  0.57591176199E+03  0.81695997183E+02 0.  0.
          5    1    3    3  502    0  0.69605265144E+02  0.23147609162E+02  0.64718447202E+03  0.65134517390E+03  0.47000000000E+01 0. -1.
        -11    1    4    4    0    0 -0.14291712745E+02  0.23454626048E+02  0.21435805304E+02  0.34840583882E+02  0.00000000000E+00 0.  1.
         12    1    4    4    0    0 -0.11593698361E+02  0.13692790544E+02  0.28688905803E+03  0.28744953987E+03  0.00000000000E+00 0. -1.
         -5    1    5    5    0  501 -0.75342290970E+02 -0.29510077276E+02  0.22344675317E+03  0.23769275751E+03  0.47000000000E+01 0.  1.
         13    1    6    6    0    0  0.39919304389E+02 -0.54115581832E+02  0.37854162116E+03  0.38446821196E+03  0.00000000000E+00 0. -1.
        -14    1    6    6    0    0 -0.82968674581E+01  0.23330633355E+02  0.18983539287E+03  0.19144355004E+03  0.00000000000E+00 0.  1.
</event>
<event>
12    1  0.1348628E-002  0.2170721E+03  0.7818608E-02  0.1136085E+00
          4   -1    0    0  502    0  0.00000000000E+00  0.00000000000E+00  0.29440494975E+03  0.29440494975E+03  0.00000000000E+00 0.  1.
         -4   -1    0    0    0  501 -0.00000000000E+00 -0.00000000000E+00 -0.19682559204E+03  0.19682559204E+03  0.00000000000E+00 0. -1.
          6    2    1    2  502    0  0.38960025684E+02  0.12617180348E+03  0.15494380048E+03  0.26665269602E+03  0.17221751188E+03 0.  0.
         24    2    3    3    0    0 -0.12462407515E+02  0.13787605783E+03  0.92196585855E+02  0.18455178769E+03  0.79962697399E+02 0.  0.
         -6    2    1    2    0  501 -0.38960025684E+02 -0.12617180348E+03 -0.57364442768E+02  0.22457784577E+03  0.17235812114E+03 0.  0.
        -24    2    5    5    0    0 -0.81492474174E+02 -0.11697450577E+03 -0.16208472142E+02  0.16449870315E+03  0.80455269700E+02 0.  0.
          5    1    3    3  502    0  0.51422433200E+02 -0.11704254346E+02  0.62747214620E+02  0.82100908330E+02  0.47000000000E+01 0. -1.
        -13    1    4    4    0    0  0.30698279382E+02  0.79937390436E+02  0.35426391095E+02  0.92668225044E+02  0.00000000000E+00 0.  1.
         14    1    4    4    0    0 -0.43160686897E+02  0.57938667390E+02  0.56770194760E+02  0.91883562651E+02  0.00000000000E+00 0. -1.
         -5    1    5    5    0  501  0.42532448489E+02 -0.91972977118E+01 -0.41155970627E+02  0.60079142619E+02  0.47000000000E+01 0.  1.
         13    1    6    6    0    0 -0.58565574691E+02 -0.43686746861E+02 -0.41029499326E+02  0.83796647935E+02  0.00000000000E+00 0. -1.
        -14    1    6    6    0    0 -0.22926899482E+02 -0.73287758907E+02  0.24821027185E+02  0.80702055215E+02  0.00000000000E+00 0.  1.
</event>
<event>
12    1  0.1348628E-002  0.2323771E+03  0.7818608E-02  0.1124978E+00
         -2   -1    0    0    0  501 -0.00000000000E+00  0.00000000000E+00  0.23261658788E+03  0.23261658788E+03  0.00000000000E+00 0.  1.
          2   -1    0    0  502    0  0.00000000000E+00 -0.00000000000E+00 -0.23313176727E+03  0.23313176727E+03  0.00000000000E+00 0. -1.
          6    2    1    2  502    0  0.15023063489E+03 -0.40668089923E+02 -0.15458605592E+02  0.23254442761E+03  0.17208952650E+03 0.  0.
         24    2    3    3    0    0  0.50675126709E+02  0.49077051627E+01  0.47563470239E+02  0.10612320966E+03  0.80048721981E+02 0.  0.
         -6    2    1    2    0  501 -0.15023063489E+03  0.40668089923E+02  0.14943426199E+02  0.23320392753E+03  0.17302493645E+03 0.  0.
        -24    2    5    5    0    0 -0.13879374429E+03  0.82651272304E+01 -0.43199166811E+02  0.16550307392E+03  0.78696147822E+02 0.  0.
          5    1    3    3  502    0  0.99555508177E+02 -0.45575795085E+02 -0.63022075830E+02  0.12642121795E+03  0.47000000000E+01 0. -1.
        -11    1    4    4    0    0  0.46770642196E+02 -0.27099817753E+02  0.50201771824E+02  0.73770664820E+02  0.00000000000E+00 0.  1.
         12    1    4    4    0    0  0.39044845135E+01  0.32007522915E+02 -0.26383015856E+01  0.32352544842E+02  0.00000000000E+00 0. -1.
         -5    1    5    5    0  501 -0.11436890594E+02  0.32402962692E+02  0.58142593010E+02  0.67700853611E+02  0.47000000000E+01 0.  1.
         13    1    6    6    0    0 -0.10125353069E+03  0.27933002959E+02 -0.69255665266E-01  0.10503587448E+03  0.00000000000E+00 0. -1.
        -14    1    6    6    0    0 -0.37540213603E+02 -0.19667875729E+02 -0.43129911146E+02  0.60467199443E+02  0.00000000000E+00 0.  1.
</event>
<event>
12    1  0.1348628E-002  0.1792260E+03  0.7818608E-02  0.1168554E+00
          2   -1    0    0  502    0  0.00000000000E+00  0.00000000000E+00  0.10240542044E+04  0.10240542044E+04  0.00000000000E+00 0. -1.
         -2   -1    0    0    0  501 -0.00000000000E+00 -0.00000000000E+00 -0.31699491788E+02  0.31699491788E+02  0.00000000000E+00 0.  1.
          6    2    1    2  502    0 -0.41418130554E+02  0.31814604465E+02  0.43917325532E+03  0.47391436806E+03  0.17027639141E+03 0.  0.
         24    2    3    3    0    0 -0.33301566401E+02  0.78222931943E+02  0.21474312462E+03  0.24454439392E+03  0.80371198936E+02 0.  0.
         -6    2    1    2    0  501  0.41418130554E+02 -0.31814604465E+02  0.55318145734E+03  0.58183932817E+03  0.17262574683E+03 0.  0.
        -24    2    5    5    0    0  0.61784123288E+02  0.36919132537E+02  0.29067738168E+03  0.30968205746E+03  0.78926144321E+02 0.  0.
          5    1    3    3  502    0 -0.81165641526E+01 -0.46408327479E+02  0.22443013069E+03  0.22936997414E+03  0.47000000000E+01 0. -1.
        -11    1    4    4    0    0  0.67970247465E+01  0.19391919322E+02  0.25267005614E+01  0.20703388518E+02  0.00000000000E+00 0.  1.
         12    1    4    4    0    0 -0.40098591148E+02  0.58831012621E+02  0.21221642406E+03  0.22384100540E+03  0.00000000000E+00 0. -1.
         -5    1    5    5    0  501 -0.20365992734E+02 -0.68733737002E+02  0.26250407566E+03  0.27215727071E+03  0.47000000000E+01 0.  1.
         11    1    6    6    0    0  0.35232213465E+01 -0.16059831323E+02  0.12685488625E+03  0.12791596240E+03  0.00000000000E+00 0. -1.
        -12    1    6    6    0    0  0.58260901941E+02  0.52978963860E+02  0.16382249543E+03  0.18176609507E+03  0.00000000000E+00 0.  1.
</event>
<event>
12    1  0.1348628E-002  0.2406771E+03  0.7818608E-02  0.1119343E+00
          1   -1    0    0  502    0  0.00000000000E+00  0.00000000000E+00  0.19078436791E+04  0.19078436791E+04  0.00000000000E+00 0. -1.
         -1   -1    0    0    0  501 -0.00000000000E+00 -0.00000000000E+00 -0.51347319042E+02  0.51347319042E+02  0.00000000000E+00 0.  1.
          6    2    1    2  502    0  0.12527254601E+03 -0.11222686064E+03  0.30123085714E+03  0.38536175138E+03  0.17168451038E+03 0.  0.
         24    2    3    3    0    0  0.13653856618E+03 -0.10914994011E+03  0.17823742361E+03  0.26172573178E+03  0.78583013577E+02 0.  0.
         -6    2    1    2    0  501 -0.12527254601E+03  0.11222686064E+03  0.15552655030E+04  0.15738292468E+04  0.17262570596E+03 0.  0.
        -24    2    5    5    0    0 -0.13236805660E+03  0.13780211225E+03  0.12141904928E+04  0.12316908358E+04  0.79328667582E+02 0.  0.
          5    1    3    3  502    0 -0.11266020173E+02 -0.30769205307E+01  0.12299343353E+03  0.12363601960E+03  0.47000000000E+01 0. -1.
        -13    1    4    4    0    0  0.71783750186E+02 -0.29943754713E+02  0.12281158297E+03  0.14536925448E+03  0.00000000000E+00 0.  1.
         14    1    4    4    0    0  0.64754815994E+02 -0.79206185397E+02  0.55425840638E+02  0.11635647730E+03  0.00000000000E+00 0. -1.
         -5    1    5    5    0  501  0.70955105968E+01 -0.25575251608E+02  0.34107501013E+03  0.34213841103E+03  0.47000000000E+01 0.  1.
         13    1    6    6    0    0 -0.10692938189E+03  0.13177842546E+03  0.86291917848E+03  0.87944809666E+03  0.00000000000E+00 0. -1.
        -14    1    6    6    0    0 -0.25438674718E+02  0.60236867857E+01  0.35127131435E+03  0.35224273912E+03  0.00000000000E+00 0.  1.
</event>
<event>
12    1  0.1348628E-002  0.1842338E+03  0.7818608E-02  0.1163767E+00
         -2   -1    0    0    0  501 -0.00000000000E+00  0.00000000000E+00  0.58921648331E+02  0.58921648331E+02  0.00000000000E+00 0. -1.
          2   -1    0    0  502    0  0.00000000000E+00 -0.00000000000E+00 -0.90246288596E+03  0.90246288596E+03  0.00000000000E+00 0.  1.
          6    2    1    2  502    0  0.28886620410E+02  0.58601025287E+02 -0.71131998989E+03  0.73487042705E+03  0.17259750733E+03 0.  0.
         24    2    3    3    0    0  0.76981081305E+02  0.55201267232E+02 -0.60875900351E+03  0.62144432137E+03  0.81438648224E+02 0.  0.
         -6    2    1    2    0  501 -0.28886620410E+02 -0.58601025287E+02 -0.13222124774E+03  0.22651410724E+03  0.17192342895E+03 0.  0.
        -24    2    5    5    0    0  0.27394932335E+02 -0.68730039457E+02 -0.13048742081E+03  0.16910934904E+03  0.78081395362E+02 0.  0.
          5    1    3    3  502    0 -0.48094460894E+02  0.33997580548E+01 -0.10256098638E+03  0.11342610568E+03  0.47000000000E+01 0. -1.
        -11    1    4    4    0    0 -0.23182006757E+01  0.15334776396E+02 -0.29405507108E+03  0.29446377409E+03  0.00000000000E+00 0.  1.
         12    1    4    4    0    0  0.79299281981E+02  0.39866490836E+02 -0.31470393243E+03  0.32698054728E+03  0.00000000000E+00 0. -1.
         -5    1    5    5    0  501 -0.56281552745E+02  0.10129014170E+02 -0.17338269236E+01  0.57404758194E+02  0.47000000000E+01 0.  1.
         13    1    6    6    0    0 -0.12033513311E+02 -0.49866192106E+02 -0.29754488767E+02  0.59302379038E+02  0.00000000000E+00 0. -1.
        -14    1    6    6    0    0  0.39428445646E+02 -0.18863847351E+02 -0.10073293205E+03  0.10980697001E+03  0.00000000000E+00 0.  1.
</event>
<event>
12    1  0.1348628E-002  0.2420621E+03  0.7818608E-02  0.1118427E+00
         -2   -1    0    0    0  501 -0.00000000000E+00  0.00000000000E+00  0.39274040421E+02  0.39274040421E+02  0.00000000000E+00 0.  1.
          2   -1    0    0  502    0  0.00000000000E+00 -0.00000000000E+00 -0.15967575601E+04  0.15967575601E+04  0.00000000000E+00 0. -1.
          6    2    1    2  502    0  0.13027765579E+03  0.10911433691E+03 -0.98871426745E+03  0.10179443145E+04  0.17255873945E+03 0.  0.
         24    2    3    3    0    0  0.97086783695E+02 -0.28598705907E+01 -0.56287951467E+03  0.57635945986E+03  0.76960096834E+02 0.  0.
         -6    2    1    2    0  501 -0.13027765579E+03 -0.10911433691E+03 -0.56876925218E+03  0.61808728602E+03  0.17220692434E+03 0.  0.
        -24    2    5    5    0    0 -0.27489239805E+02 -0.24104162328E+02 -0.34381208120E+03  0.35651510283E+03  0.86945974135E+02 0.  0.
          5    1    3    3  502    0  0.33190872090E+02  0.11197420750E+03 -0.42583475278E+03  0.44158485460E+03  0.47000000000E+01 0. -1.
        -11    1    4    4    0    0 -0.12434930005E+02 -0.49564804231E+01 -0.41827747937E+02  0.43917589642E+02  0.00000000000E+00 0.  1.
         12    1    4    4    0    0  0.10952171370E+03  0.20966098323E+01 -0.52105176673E+03  0.53244187021E+03  0.00000000000E+00 0. -1.
         -5    1    5    5    0  501 -0.10278841598E+03 -0.85010174583E+02 -0.22495717098E+03  0.26157218319E+03  0.47000000000E+01 0.  1.
         13    1    6    6    0    0 -0.11112441904E+02 -0.54938596738E+02 -0.25498409347E+03  0.26107206611E+03  0.00000000000E+00 0. -1.
        -14    1    6    6    0    0 -0.16376797901E+02  0.30834434411E+02 -0.88827987728E+02  0.95443036722E+02  0.00000000000E+00 0.  1.
</event>
<event>
12    1  0.1348628E-002  0.1751977E+03  0.7818608E-02  0.1172533E+00
         -1   -1    0    0    0  501 -0.00000000000E+00  0.00000000000E+00  0.20966390062E+02  0.20966390062E+02  0.00000000000E+00 0.  1.
          1   -1    0    0  502    0  0.00000000000E+00 -0.00000000000E+00 -0.14905913328E+04  0.14905913328E+04  0.00000000000E+00 0. -1.
          6    2    1    2  502    0 -0.27773214056E+02 -0.76829097089E+01 -0.63516501829E+03  0.65897113064E+03  0.17314147981E+03 0.  0.
         24    2    3    3    0    0  0.11879235190E+02 -0.25330790130E+02 -0.17106954893E+03  0.19282688355E+03  0.84466865038E+02 0.  0.
         -6    2    1    2    0  501  0.27773214056E+02  0.76829097089E+01 -0.83445992446E+03  0.85258659224E+03  0.17248232725E+03 0.  0.
        -24    2    5    5    0    0 -0.40279208279E+01  0.37444646731E+02 -0.76673928113E+03  0.77193147025E+03  0.81060124695E+02 0.  0.
          5    1    3    3  502    0 -0.39652449245E+02  0.17647880421E+02 -0.46409546936E+03  0.46614424709E+03  0.47000000000E+01 0. -1.
        -13    1    4    4    0    0 -0.56283278219E+01  0.25467612910E+02 -0.10220719363E+03  0.10548264223E+03  0.00000000000E+00 0.  1.
         14    1    4    4    0    0  0.17507563012E+02 -0.50798403040E+02 -0.68862355298E+02  0.87344241316E+02  0.00000000000E+00 0. -1.
         -5    1    5    5    0  501  0.31801134884E+02 -0.29761737022E+02 -0.67720643331E+02  0.80655121992E+02  0.47000000000E+01 0.  1.
         11    1    6    6    0    0  0.19161845684E+02 -0.17759089836E+02 -0.14674144370E+03  0.14904902852E+03  0.00000000000E+00 0. -1.
        -12    1    6    6    0    0 -0.23189766512E+02  0.55203736567E+02 -0.61999783743E+03  0.62288244173E+03  0.00000000000E+00 0.  1.
</event>
<event>
12    1  0.1348628E-002  0.1802420E+03  0.7818608E-02  0.1167569E+00
          1   -1    0    0  502    0  0.00000000000E+00  0.00000000000E+00  0.19624816218E+04  0.19624816218E+04  0.00000000000E+00 0. -1.
         -1   -1    0    0    0  501 -0.00000000000E+00 -0.00000000000E+00 -0.17228361144E+02  0.17228361144E+02  0.00000000000E+00 0.  1.
          6    2    1    2  502    0 -0.32411312269E+01 -0.53640331492E+02  0.78466292578E+03  0.80543267777E+03  0.17360328693E+03 0.  0.
         24    2    3    3    0    0 -0.56381796055E+02 -0.35723265911E+02  0.29965118919E+03  0.31716694466E+03  0.79680467810E+02 0.  0.
         -6    2    1    2    0  501  0.32411312269E+01  0.53640331492E+02  0.11605903349E+04  0.11742773052E+04  0.17049772415E+03 0.  0.
        -24    2    5    5    0    0 -0.22923990418E+02  0.97085069885E+01  0.27298801355E+03  0.28519092601E+03  0.78687002037E+02 0.  0.
          5    1    3    3  502    0  0.53140664828E+02 -0.17917065581E+02  0.48501173659E+03  0.48826573311E+03  0.47000000000E+01 0. -1.
        -13    1    4    4    0    0 -0.13590834636E+02 -0.40030142375E+02  0.23961754235E+03  0.24331808335E+03  0.00000000000E+00 0.  1.
         14    1    4    4    0    0 -0.42790961419E+02  0.43068764636E+01  0.60033646843E+02  0.73848861314E+02  0.00000000000E+00 0. -1.
         -5    1    5    5    0  501  0.26165121645E+02  0.43931824504E+02  0.88760232137E+03  0.88908637921E+03  0.47000000000E+01 0.  1.
         13    1    6    6    0    0 -0.24793926095E+02  0.34005332783E+02  0.24267619898E+03  0.24629827239E+03  0.00000000000E+00 0. -1.
        -14    1    6    6    0    0  0.18699356764E+01 -0.24296825794E+02  0.30311814571E+02  0.38892653621E+02  0.00000000000E+00 0.  1.
</event>
<event>
12    1  0.1348628E-002  0.2054503E+03  0.7818608E-02  0.1145220E+00
          2   -1    0    0  502    0  0.00000000000E+00  0.00000000000E+00  0.74727743168E+03  0.74727743168E+03  0.00000000000E+00 0. -1.
         -2   -1    0    0    0  501 -0.00000000000E+00 -0.00000000000E+00 -0.59222885732E+02  0.59222885732E+02  0.00000000000E+00 0.  1.
          6    2    1    2  502    0 -0.65326693614E+02  0.89512940705E+02  0.25767268161E+03  0.32969002930E+03  0.17326327111E+03 0.  0.
         24    2    3    3    0    0 -0.16223664305E+02  0.12195505984E+03  0.17696478098E+03  0.22969276031E+03  0.79410241952E+02 0.  0.
         -6    2    1    2    0  501  0.65326693614E+02 -0.89512940705E+02  0.43038186434E+03  0.47681028812E+03  0.17274072551E+03 0.  0.
        -24    2    5    5    0    0  0.99921636736E+02 -0.29561150561E+02  0.32775738502E+03  0.35293575084E+03  0.79249893831E+02 0.  0.
          5    1    3    3  502    0 -0.49103029308E+02 -0.32442119133E+02  0.80707900632E+02  0.99997268990E+02  0.47000000000E+01 0. -1.
        -11    1    4    4    0    0 -0.28655183898E+02  0.26798672800E+02  0.16163837548E+02  0.42432983307E+02  0.00000000000E+00 0.  1.
         12    1    4    4    0    0  0.12431519593E+02  0.95156387038E+02  0.16080094343E+03  0.18725977700E+03  0.00000000000E+00 0. -1.
         -5    1    5    5    0  501 -0.34594943123E+02 -0.59951790144E+02  0.10262447932E+03  0.12387453728E+03  0.47000000000E+01 0.  1.
         13    1    6    6    0    0  0.80341654905E+02 -0.53098474119E+02  0.20617006351E+03  0.22755290496E+03  0.00000000000E+00 0. -1.
        -14    1    6    6    0    0  0.19579981832E+02  0.23537323558E+02  0.12158732151E+03  0.12538284588E+03  0.00000000000E+00 0.  1.
</event>
<event>
12    1  0.1348628E-002  0.2466275E+03  0.7818608E-02  0.1115455E+00
         -1   -1    0    0    0  501 -0.00000000000E+00  0.00000000000E+00  0.19415775117E+03  0.19415775117E+03  0.00000000000E+00 0. -1.
          1   -1    0    0  502    0  0.00000000000E+00 -0.00000000000E+00 -0.77114376999E+03  0.77114376999E+03  0.00000000000E+00 0.  1.
          6    2    1    2  502    0  0.94298285814E+02 -0.15055263659E+03  0.83603512462E+02  0.26003508824E+03  0.17050054760E+03 0.  0.
         24    2    3    3    0    0  0.38174948873E+02 -0.58594307013E+02  0.10597751199E+03  0.14990403367E+03  0.79682913645E+02 0.  0.
         -6    2    1    2    0  501 -0.94298285814E+02  0.15055263659E+03 -0.66058953129E+03  0.70526643292E+03  0.17165066114E+03 0.  0.
        -24    2    5    5    0    0 -0.91634303627E+02  0.66078791677E+02 -0.25008058648E+03  0.28612133747E+03  0.81005356063E+02 0.  0.
          5    1    3    3  502    0  0.56123336941E+02 -0.91958329575E+02 -0.22373999523E+02  0.11013105458E+03  0.47000000000E+01 0. -1.
        -11    1    4    4    0    0 -0.17290199124E+02  0.79455738912E+01  0.24107327502E+02  0.30712316251E+02  0.00000000000E+00 0.  1.
         12    1    4    4    0    0  0.55465147997E+02 -0.66539880904E+02  0.81870184483E+02  0.11919171742E+03  0.00000000000E+00 0. -1.
         -5    1    5    5    0  501 -0.26639821872E+01  0.84473844911E+02 -0.41050894480E+03  0.41914509545E+03  0.47000000000E+01 0.  1.
         13    1    6    6    0    0 -0.73214962611E+02  0.57969305689E+02 -0.24903509035E+03  0.26596869624E+03  0.00000000000E+00 0. -1.
        -14    1    6    6    0    0 -0.18419341016E+02  0.81094859878E+01 -0.10454961282E+01  0.20152641232E+02  0.00000000000E+00 0.  1.
</event>
<event>
12    1  0.1348628E-002  0.2687956E+03  0.7818608E-02  0.1101971E+00
         -1   -1    0    0    0  501 -0.00000000000E+00  0.00000000000E+00  0.83195344480E+02  0.83195344480E+02  0.00000000000E+00 0.  1.
          1   -1    0    0  502    0  0.00000000000E+00 -0.00000000000E+00 -0.11749121258E+04  0.11749121258E+04  0.00000000000E+00 0. -1.
          6    2    1    2  502    0  0.14049995283E+03  0.15134418853E+03 -0.86729870995E+03  0.90802999856E+03  0.17223857250E+03 0.  0.
         24    2    3    3    0    0  0.49474165051E+01  0.94960777566E+02 -0.33685937075E+03  0.35762872521E+03  0.73362410171E+02 0.  0.
         -6    2    1    2    0  501 -0.14049995283E+03 -0.15134418853E+03 -0.22441807133E+03  0.35007747168E+03  0.17188794399E+03 0.  0.
        -24    2    5    5    0    0 -0.71236822789E+02 -0.17530649223E+02 -0.14041209451E+03  0.17750128958E+03  0.80057122949E+02 0.  0.
          5    1    3    3  502    0  0.13555253633E+03  0.56383410963E+02 -0.53043933920E+03  0.55040127335E+03  0.47000000000E+01 0. -1.
        -13    1    4    4    0    0 -0.19939032248E+02 -0.15367819594E+01 -0.68670675561E+02  0.71523341559E+02  0.00000000000E+00 0.  1.
         14    1    4    4    0    0  0.24886448753E+02  0.96497559525E+02 -0.26818869519E+03  0.28610538365E+03  0.00000000000E+00 0. -1.
         -5    1    5    5    0  501 -0.69263130046E+02 -0.13381353931E+03 -0.84005976814E+02  0.17257618209E+03  0.47000000000E+01 0.  1.
         13    1    6    6    0    0  0.80530334567E+01  0.19481832515E+02 -0.26718166007E+02  0.34033124170E+02  0.00000000000E+00 0. -1.
        -14    1    6    6    0    0 -0.79289856245E+02 -0.37012481738E+02 -0.11369392851E+03  0.14346816541E+03  0.00000000000E+00 0.  1.
</event>
<event>
12    1  0.1348628E-002  0.1760315E+03  0.7818608E-02  0.1171700E+00
          2   -1    0    0  502    0  0.00000000000E+00  0.00000000000E+00  0.14498067040E+03  0.14498067040E+03  0.00000000000E+00 0.  1.
         -2   -1    0    0    0  501 -0.00000000000E+00 -0.00000000000E+00 -0.23254412355E+03  0.23254412355E+03  0.00000000000E+00 0. -1.
          6    2    1    2  502    0 -0.23242400557E+02 -0.28042707914E+02 -0.97552719308E+02  0.20157900857E+03  0.17260058227E+03 0.  0.
         24    2    3    3    0    0 -0.48790057544E+01 -0.47240811594E+02  0.75449304725E+01  0.93073767024E+02  0.79688776844E+02 0.  0.
         -6    2    1    2    0  501  0.23242400557E+02  0.28042707914E+02  0.99892661617E+01  0.17594578538E+03  0.17184449745E+03 0.  0.
        -24    2    5    5    0    0 -0.30074174409E+01  0.79379273136E+02  0.26516820537E+02  0.11578146101E+03  0.79950555842E+02 0.  0.
          5    1    3    3  502    0 -0.18363394802E+02  0.19198103679E+02 -0.10509764978E+03  0.10850524155E+03  0.47000000000E+01 0. -1.
        -11    1    4    4    0    0  0.12315239445E+02  0.14692975595E+02  0.19887112668E+02  0.27623285552E+02  0.00000000000E+00 0.  1.
         12    1    4    4    0    0 -0.17194245200E+02 -0.61933787188E+02 -0.12342182196E+02  0.65450481471E+02  0.00000000000E+00 0. -1.
         -5    1    5    5    0  501  0.26249817998E+02 -0.51336565222E+02 -0.16527554375E+02  0.60164324373E+02  0.47000000000E+01 0.  1.
         11    1    6    6    0    0 -0.31435059359E+02  0.35488131723E+01  0.94835109690E+01  0.33025656876E+02  0.00000000000E+00 0. -1.
        -12    1    6    6    0    0  0.28427641918E+02  0.75830459963E+02  0.17033309568E+02  0.82755804135E+02  0.00000000000E+00 0.  1.
</event>
<event>
12    1  0.1348628E-002  0.3479756E+03  0.7818608E-02  0.1063449E+00
          2   -1    0    0  502    0  0.00000000000E+00  0.00000000000E+00  0.18993008959E+04  0.18993008959E+04  0.00000000000E+00 0.  1.
         -2   -1    0    0    0  501 -0.00000000000E+00 -0.00000000000E+00 -0.12899338241E+03  0.12899338241E+03  0.00000000000E+00 0. -1.
          6    2    1    2  502    0  0.14309943231E+03  0.26638619859E+03  0.16380144513E+03  0.38451314971E+03  0.17198951871E+03 0.  0.
         24    2    3    3    0    0  0.82212138746E+02  0.12800626896E+03  0.15886908460E+03  0.23317681692E+03  0.77379592010E+02 0.  0.
         -6    2    1    2    0  501 -0.14309943231E+03 -0.26638619859E+03  0.16065060683E+04  0.16437811286E+04  0.17238212422E+03 0.  0.
        -24    2    5    5    0    0 -0.92560200784E+02 -0.17779507934E+03  0.72884278972E+03  0.76019891907E+03  0.80697604804E+02 0.  0.
          5    1    3    3  502    0  0.60887293564E+02  0.13837992962E+03  0.49323605313E+01  0.15133633278E+03  0.47000000000E+01 0. -1.
        -11    1    4    4    0    0  0.96650016642E+00  0.38947755684E+02  0.80387622493E+02  0.89331022862E+02  0.00000000000E+00 0.  1.
         12    1    4    4    0    0  0.81245638580E+02  0.89058513279E+02  0.78481462102E+02  0.14384579406E+03  0.00000000000E+00 0. -1.
         -5    1    5    5    0  501 -0.50539231526E+02 -0.88591119244E+02  0.87766327861E+03  0.88358220951E+03  0.47000000000E+01 0.  1.
         11    1    6    6    0    0  0.52246364392E+00 -0.64381258483E+01  0.81959649902E+00  0.65110806414E+01  0.00000000000E+00 0. -1.
        -12    1    6    6    0    0 -0.93082664428E+02 -0.17135695349E+03  0.72802319322E+03  0.75368783842E+03  0.00000000000E+00 0.  1.
</event>
<event>
12    1  0.1348628E-002  0.2934344E+03  0.7818608E-02  0.1088570E+00
         -1   -1    0    0    0  501 -0.00000000000E+00  0.00000000000E+00  0.51347192635E+02  0.51347192635E+02  0.00000000000E+00 0.  1.
          1   -1    0    0  502    0  0.00000000000E+00 -0.00000000000E+00 -0.16946369885E+04  0.16946369885E+04  0.00000000000E+00 0. -1.
          6    2    1    2  502    0  0.19685434552E+03  0.13390719046E+03 -0.73175500447E+03  0.78832129476E+03  0.17117916989E+03 0.  0.
         24    2    3    3    0    0  0.60939337521E+02  0.58674637769E+02 -0.17449785146E+03  0.20979692106E+03  0.80055805215E+02 0.  0.
         -6    2    1    2    0  501 -0.19685434552E+03 -0.13390719046E+03 -0.91153479135E+03  0.95766288633E+03  0.17187134432E+03 0.  0.
        -24    2    5    5    0    0 -0.19174949257E+02 -0.41130182418E+02 -0.35266554900E+03  0.36391676119E+03  0.77479345853E+02 0.  0.
          5    1    3    3  502    0  0.13591500800E+03  0.75232552689E+02 -0.55725715301E+03  0.57852437370E+03  0.47000000000E+01 0. -1.
        -13    1    4    4    0    0  0.58941951529E+02  0.13056183680E+02 -0.54224996091E+02  0.81147814409E+02  0.00000000000E+00 0.  1.
         14    1    4    4    0    0  0.19973859916E+01  0.45618454089E+02 -0.12027285536E+03  0.12864910665E+03  0.00000000000E+00 0. -1.
         -5    1    5    5    0  501 -0.17767939626E+03 -0.92777008041E+02 -0.55886924235E+03  0.59374612514E+03  0.47000000000E+01 0.  1.
         13    1    6    6    0    0 -0.42874046819E+02 -0.46200169311E+02 -0.28902769576E+03  0.29582029757E+03  0.00000000000E+00 0. -1.
        -14    1    6    6    0    0  0.23699097562E+02  0.50699868933E+01 -0.63637853243E+02  0.68096463621E+02  0.00000000000E+00 0.  1.
</event>
<event>
12    1  0.1348628E-002  0.2392429E+03  0.7818608E-02  0.1120298E+00
         -1   -1    0    0    0  501 -0.00000000000E+00  0.00000000000E+00  0.10154779984E+03  0.10154779984E+03  0.00000000000E+00 0.  1.
          1   -1    0    0  502    0  0.00000000000E+00 -0.00000000000E+00 -0.56366749832E+03  0.56366749832E+03  0.00000000000E+00 0. -1.
          6    2    1    2  502    0 -0.13715682287E+03 -0.94002557592E+02 -0.22869542936E+03  0.33054346479E+03  0.17119844571E+03 0.  0.
         24    2    3    3    0    0 -0.12752269423E+03 -0.13008901258E+03 -0.17367847670E+03  0.26388010343E+03  0.79267313428E+02 0.  0.
         -6    2    1    2    0  501  0.13715682287E+03  0.94002557592E+02 -0.23342426912E+03  0.33467183337E+03  0.17282902460E+03 0.  0.
        -24    2    5    5    0    0  0.65769503155E+01  0.46427391979E+02 -0.14060373917E+03  0.16748259843E+03  0.77988783216E+02 0.  0.
          5    1    3    3  502    0 -0.96341286417E+01  0.36086454990E+02 -0.55016952655E+02  0.66663361360E+02  0.47000000000E+01 0. -1.
        -11    1    4    4    0    0 -0.26731419215E+02 -0.22587320198E+02  0.14187683081E+01  0.35025258179E+02  0.00000000000E+00 0.  1.
         12    1    4    4    0    0 -0.10079127502E+03 -0.10750169238E+03 -0.17509724501E+03  0.22885484525E+03  0.00000000000E+00 0. -1.
         -5    1    5    5    0  501  0.13057987256E+03  0.47575165613E+02 -0.92820529948E+02  0.16718923494E+03  0.47000000000E+01 0.  1.
         11    1    6    6    0    0 -0.36949506574E+01  0.60558361132E+02 -0.61188138267E+02  0.86168184546E+02  0.00000000000E+00 0. -1.
        -12    1    6    6    0    0  0.10271900973E+02 -0.14130969153E+02 -0.79415600906E+02  0.81314413888E+02  0.00000000000E+00 0.  1.
</event>
<event>
12    1  0.1348628E-002  0.1891151E+03  0.7818608E-02  0.1159262E+00
          1   -1    0    0  502    0  0.00000000000E+00  0.00000000000E+00  0.11515826393E+04  0.11515826393E+04  0.00000000000E+00 0. -1.
         -1   -1    0    0    0  501 -0.00000000000E+00 -0.00000000000E+00 -0.45677992746E+02  0.45677992746E+02  0.00000000000E+00 0.  1.
          6    2    1    2  502    0  0.79698191342E+02 -0.14519068367E+02  0.88765336796E+03  0.90716742816E+03  0.16870576753E+03 0.  0.
         24    2    3    3    0    0  0.95302369912E+02  0.38334895624E+02  0.58046444147E+03  0.59503899552E+03  0.81119248303E+02 0.  0.
         -6    2    1    2    0  501 -0.79698191342E+02  0.14519068367E+02  0.21825127857E+03  0.29009320387E+03  0.17308333624E+03 0.  0.
        -24    2    5    5    0    0 -0.27685762819E+02  0.60917384081E+02  0.18424827076E+03  0.21239898940E+03  0.81783105070E+02 0.  0.
          5    1    3    3  502    0 -0.15604178569E+02 -0.52853963992E+02  0.30718892649E+03  0.31212843263E+03  0.47000000000E+01 0. -1.
        -11    1    4    4    0    0  0.10600138787E+02  0.44505516189E+02  0.21972474299E+03  0.22443722195E+03  0.00000000000E+00 0.  1.
         12    1    4    4    0    0  0.84702231124E+02 -0.61706205650E+01  0.36073969848E+03  0.37060177358E+03  0.00000000000E+00 0. -1.
         -5    1    5    5    0  501 -0.52012428523E+02 -0.46398315713E+02  0.34003007811E+02  0.77694214470E+02  0.47000000000E+01 0.  1.
         11    1    6    6    0    0  0.92672520220E+01 -0.80380385536E+01  0.41316610698E-01  0.12267588634E+02  0.00000000000E+00 0. -1.
        -12    1    6    6    0    0 -0.36953014841E+02  0.68955422634E+02  0.18420695415E+03  0.20013140077E+03  0.00000000000E+00 0.  1.
</event>
<event>
12    1  0.1348628E-002  0.2648687E+03  0.7818608E-02  0.1104253E+00
          2   -1    0    0  502    0  0.00000000000E+00  0.00000000000E+00  0.20110166535E+03  0.20110166535E+03  0.00000000000E+00 0.  1.
         -2   -1    0    0    0  501 -0.00000000000E+00 -0.00000000000E+00 -0.35669103045E+03  0.35669103045E+03  0.00000000000E+00 0. -1.
          6    2    1    2  502    0 -0.19597744163E+03  0.46331572065E+02 -0.36330994666E+02  0.26689950981E+03  0.17135237076E+03 0.  0.
         24    2    3    3    0    0 -0.20245278288E+03  0.48559380327E+01 -0.11428989931E+02  0.21786525543E+03  0.79523193365E+02 0.  0.
         -6    2    1    2    0  501  0.19597744163E+03 -0.46331572065E+02 -0.11925837044E+03  0.29089318599E+03  0.17274986117E+03 0.  0.
        -24    2    5    5    0    0  0.32395521964E+02 -0.19741446838E+02 -0.22960116907E+02  0.99160239325E+02  0.88692680239E+02 0.  0.
          5    1    3    3  502    0  0.64753412480E+01  0.41475634033E+02 -0.24902004736E+02  0.49034254380E+02  0.47000000000E+01 0. -1.
        -11    1    4    4    0    0 -0.16338623428E+03 -0.10227636465E+02 -0.38276071587E+02  0.16812115796E+03  0.00000000000E+00 0.  1.
         12    1    4    4    0    0 -0.39066548606E+02  0.15083574498E+02  0.26847081656E+02  0.49744097469E+02  0.00000000000E+00 0. -1.
         -5    1    5    5    0  501  0.16358191967E+03 -0.26590125228E+02 -0.96298253532E+02  0.19173294666E+03  0.47000000000E+01 0.  1.
         13    1    6    6    0    0  0.47882771263E+02 -0.12180865197E+02 -0.47919549723E+02  0.68828892963E+02  0.00000000000E+00 0. -1.
        -14    1    6    6    0    0 -0.15487249299E+02 -0.75605816414E+01  0.24959432816E+02  0.30331346362E+02  0.00000000000E+00 0.  1.
</event>
<event>
12    1  0.1348628E-002  0.1792679E+03  0.7818608E-02  0.1168513E+00
          2   -1    0    0  502    0  0.00000000000E+00  0.00000000000E+00  0.55706944323E+03  0.55706944323E+03  0.00000000000E+00 0.  1.
         -2   -1    0    0    0  501 -0.00000000000E+00 -0.00000000000E+00 -0.59756022568E+02  0.59756022568E+02  0.00000000000E+00 0. -1.
          6    2    1    2  502    0 -0.47786032522E+02  0.83731942208E+01  0.19052318780E+03  0.26120118213E+03  0.17196905876E+03 0.  0.
         24    2    3    3    0    0  0.20897779585E+02  0.48926920388E+02  0.78360446606E+02  0.12348901395E+03  0.79237719833E+02 0.  0.
         -6    2    1    2    0  501  0.47786032522E+02 -0.83731942208E+01  0.30679023286E+03  0.35562428367E+03  0.17318997913E+03 0.  0.
        -24    2    5    5    0    0  0.79945226624E+02  0.41798453249E+02  0.18889618112E+03  0.22344067874E+03  0.78138465059E+02 0.  0.
          5    1    3    3  502    0 -0.68683812107E+02 -0.40553726167E+02  0.11216274119E+03  0.13771216817E+03  0.47000000000E+01 0. -1.
        -11    1    4    4    0    0  0.16287979859E+02 -0.20305079950E+02  0.20102079423E+02  0.32889027909E+02  0.00000000000E+00 0.  1.
         12    1    4    4    0    0  0.46097997253E+01  0.69232000337E+02  0.58258367183E+02  0.90599986043E+02  0.00000000000E+00 0. -1.
         -5    1    5    5    0  501 -0.32159194102E+02 -0.50171647470E+02  0.11789405175E+03  0.13218360493E+03  0.47000000000E+01 0.  1.
         13    1    6    6    0    0  0.48101611343E+01  0.18667826255E+01 -0.76728583261E+01  0.92463659024E+01  0.00000000000E+00 0. -1.
        -14    1    6    6    0    0  0.75135065490E+02  0.39931670624E+02  0.19656903944E+03  0.21419431284E+03  0.00000000000E+00 0.  1.
</event>
<event>
12    1  0.1348628E-002  0.2301394E+03  0.7818608E-02  0.1126542E+00
         -2   -1    0    0    0  501 -0.00000000000E+00  0.00000000000E+00  0.47427008022E+02  0.47427008022E+02  0.00000000000E+00 0.  1.
          2   -1    0    0  502    0  0.00000000000E+00 -0.00000000000E+00 -0.13300449480E+04  0.13300449480E+04  0.00000000000E+00 0. -1.
          6    2    1    2  502    0 -0.56141125785E+02 -0.14267581611E+03 -0.36458837202E+03  0.43094017031E+03  0.17110387158E+03 0.  0.
         24    2    3    3    0    0  0.29888345889E+02 -0.33799919861E+02 -0.15201823624E+03  0.17704416127E+03  0.78735907243E+02 0.  0.
         -6    2    1    2    0  501  0.56141125785E+02  0.14267581611E+03 -0.91802956797E+03  0.94653178572E+03  0.17215086177E+03 0.  0.
        -24    2    5    5    0    0  0.34494116908E+02  0.56572071622E+02 -0.71920944835E+03  0.72873835659E+03  0.96990300429E+02 0.  0.
          5    1    3    3  502    0 -0.86029471674E+02 -0.10887589625E+03 -0.21257013578E+03  0.25389600904E+03  0.47000000000E+01 0. -1.
        -13    1    4    4    0    0  0.11833206317E+02  0.14908963764E+02 -0.30484514087E+01  0.19276800260E+02  0.00000000000E+00 0.  1.
         14    1    4    4    0    0  0.18055139572E+02 -0.48708883625E+02 -0.14896978483E+03  0.15776736101E+03  0.00000000000E+00 0. -1.
         -5    1    5    5    0  501  0.21647008877E+02  0.86103744486E+02 -0.19882011962E+03  0.21779342913E+03  0.47000000000E+01 0.  1.
         11    1    6    6    0    0 -0.31572747688E+02  0.84732190611E+01 -0.28837454085E+03  0.29022148379E+03  0.00000000000E+00 0. -1.
        -12    1    6    6    0    0  0.66066864596E+02  0.48098852561E+02 -0.43083490749E+03  0.43851687280E+03  0.00000000000E+00 0.  1.
</event>
<event>
12    1  0.1348628E-002  0.1950556E+03  0.7818608E-02  0.1153979E+00
          2   -1    0    0  502    0  0.00000000000E+00  0.00000000000E+00  0.13585532820E+04  0.13585532820E+04  0.00000000000E+00 0.  1.
         -2   -1    0    0    0  501 -0.00000000000E+00 -0.00000000000E+00 -0.28571772129E+02  0.28571772129E+02  0.00000000000E+00 0. -1.
          6    2    1    2  502    0  0.41665292033E+02 -0.81876722055E+02  0.76462671362E+03  0.78926241425E+03  0.17274649981E+03 0.  0.
         24    2    3    3    0    0  0.74665313013E+02 -0.78731204520E+02  0.37126586197E+03  0.39447925191E+03  0.77472758979E+02 0.  0.
         -6    2    1    2    0  501 -0.41665292033E+02  0.81876722055E+02  0.56535479621E+03  0.59786263984E+03  0.17138814527E+03 0.  0.
        -24    2    5    5    0    0  0.19196576408E+02  0.95744261999E+02  0.29706674037E+03  0.32236845368E+03  0.78340918097E+02 0.  0.
          5    1    3    3  502    0 -0.33000020980E+02 -0.31455175357E+01  0.39336085164E+03  0.39478316234E+03  0.47000000000E+01 0. -1.
        -13    1    4    4    0    0 -0.44412674137E+01 -0.42092573143E+02  0.80831224848E+02  0.91242514655E+02  0.00000000000E+00 0.  1.
         14    1    4    4    0    0  0.79106580427E+02 -0.36638631377E+02  0.29043463713E+03  0.30323673725E+03  0.00000000000E+00 0. -1.
         -5    1    5    5    0  501 -0.60861868442E+02 -0.13867539944E+02  0.26828805585E+03  0.27549418615E+03  0.47000000000E+01 0.  1.
         11    1    6    6    0    0 -0.29192994256E+02  0.25671348746E+02  0.73799115823E+02  0.83411980891E+02  0.00000000000E+00 0. -1.
        -12    1    6    6    0    0  0.48389570664E+02  0.70072913253E+02  0.22326762454E+03  0.23895647279E+03  0.00000000000E+00 0.  1.
</event>
<event>
12    1  0.1348628E-002  0.1762434E+03  0.7818608E-02  0.1171489E+00
         -1   -1    0    0    0  501 -0.00000000000E+00  0.00000000000E+00  0.77677015542E+02  0.77677015542E+02  0.00000000000E+00 0. -1.
          1   -1    0    0  502    0  0.00000000000E+00 -0.00000000000E+00 -0.40060591858E+03  0.40060591858E+03  0.00000000000E+00 0.  1.
          6    2    1    2  502    0 -0.13712698503E+02  0.35785407198E+02 -0.17125846183E+03  0.24547237705E+03  0.17163505958E+03 0.  0.
         24    2    3    3    0    0  0.28391180385E+01  0.48796520490E+02 -0.27237837012E+02  0.99845174665E+02  0.82692189085E+02 0.  0.
         -6    2    1    2    0  501  0.13712698503E+02 -0.35785407198E+02 -0.15167044121E+03  0.23281055708E+03  0.17241867440E+03 0.  0.
        -24    2    5    5    0    0 -0.52381918976E+02  0.10615571416E+02 -0.10029535563E+03  0.13698238432E+03  0.76475221221E+02 0.  0.
          5    1    3    3  502    0 -0.16551816542E+02 -0.13011113292E+02 -0.14402062482E+03  0.14562720238E+03  0.47000000000E+01 0. -1.
        -11    1    4    4    0    0  0.30183980243E+02 -0.95142575691E+01 -0.84490550321E+01  0.32756377872E+02  0.00000000000E+00 0.  1.
         12    1    4    4    0    0 -0.27344862204E+02  0.58310778059E+02 -0.18788781979E+02  0.67088796793E+02  0.00000000000E+00 0. -1.
         -5    1    5    5    0  501  0.66094617479E+02 -0.46400978614E+02 -0.51375085579E+02  0.95828172758E+02  0.47000000000E+01 0.  1.
         11    1    6    6    0    0 -0.30812803176E+02 -0.10467949718E+02 -0.30700938768E+00  0.32543832989E+02  0.00000000000E+00 0. -1.
        -12    1    6    6    0    0 -0.21569115800E+02  0.21083521134E+02 -0.99988346241E+02  0.10443855133E+03  0.00000000000E+00 0.  1.
</event>
<event>
12    1  0.1348628E-002  0.1892719E+03  0.7818608E-02  0.1159120E+00
          2   -1    0    0  502    0  0.00000000000E+00  0.00000000000E+00  0.30901346321E+04  0.30901346321E+04  0.00000000000E+00 0. -1.
         -2   -1    0    0    0  501 -0.00000000000E+00 -0.00000000000E+00 -0.11606935964E+02  0.11606935964E+02  0.00000000000E+00 0.  1.
          6    2    1    2  502    0  0.11426455246E+02 -0.76020716079E+02  0.15988145012E+04  0.16100675487E+04  0.17378143981E+03 0.  0.
         24    2    3    3    0    0 -0.10829541554E+02 -0.44287822786E+01  0.12771299018E+04  0.12797286229E+04  0.80670125258E+02 0.  0.
         -6    2    1    2    0  501 -0.11426455246E+02  0.76020716079E+02  0.14797131949E+04  0.14916740194E+04  0.17213520201E+03 0.  0.
        -24    2    5    5    0    0 -0.60020133828E+02  0.27405624915E+02  0.11588231254E+04  0.11634708820E+04  0.80249439478E+02 0.  0.
          5    1    3    3  502    0  0.22255996799E+02 -0.71591933800E+02  0.32168459948E+03  0.33033892583E+03  0.47000000000E+01 0. -1.
        -11    1    4    4    0    0 -0.23376704454E+02 -0.93985493574E+01  0.12470796283E+03  0.12722766615E+03  0.00000000000E+00 0.  1.
         12    1    4    4    0    0  0.12547162900E+02  0.49697670787E+01  0.11524219389E+04  0.11525009567E+04  0.00000000000E+00 0. -1.
         -5    1    5    5    0  501  0.48593678583E+02  0.48615091164E+02  0.32089006956E+03  0.32820313744E+03  0.47000000000E+01 0.  1.
         11    1    6    6    0    0 -0.23699066252E+02 -0.23063210111E+02  0.65356058849E+03  0.65439666887E+03  0.00000000000E+00 0. -1.
        -12    1    6    6    0    0 -0.36321067576E+02  0.50468835026E+02  0.50526253688E+03  0.50907421309E+03  0.00000000000E+00 0.  1.
</event>
<event>
12    1  0.1348628E-002  0.2659416E+03  0.7818608E-02  0.1103625E+00
         -1   -1    0    0    0  501 -0.00000000000E+00  0.00000000000E+00  0.28360667751E+03  0.28360667751E+03  0.00000000000E+00 0. -1.
          1   -1    0    0  502    0  0.00000000000E+00 -0.00000000000E+00 -0.25468462578E+03  0.25468462578E+03  0.00000000000E+00 0.  1.
          6    2    1    2  502    0  0.19337372602E+03  0.61264601380E+02  0.53296492076E+02  0.27089821161E+03  0.17146012857E+03 0.  0.
         24    2    3    3    0    0  0.17965056195E+03  0.92436697591E+02  0.75853439251E+02  0.22977728409E+03  0.78898596737E+02 0.  0.
         -6    2    1    2    0  501 -0.19337372602E+03 -0.61264601380E+02 -0.24374440346E+02  0.26739309168E+03  0.17250566031E+03 0.  0.
        -24    2    5    5    0    0 -0.13848785028E+03 -0.95324591178E+02  0.25435689359E+02  0.18568824922E+03  0.74615609937E+02 0.  0.
          5    1    3    3  502    0  0.13723164074E+02 -0.31172096210E+02 -0.22556947175E+02  0.41120927521E+02  0.47000000000E+01 0. -1.
        -11    1    4    4    0    0  0.12911686639E+03  0.37064864637E+02  0.18949259309E+02  0.13566150451E+03  0.00000000000E+00 0.  1.
         12    1    4    4    0    0  0.50533695561E+02  0.55371832954E+02  0.56904179942E+02  0.94115779583E+02  0.00000000000E+00 0. -1.
         -5    1    5    5    0  501 -0.54885875742E+02  0.34059989798E+02 -0.49810129705E+02  0.81704842465E+02  0.47000000000E+01 0.  1.
         11    1    6    6    0    0 -0.30978507705E+02 -0.14084635155E+01  0.29606309303E+02  0.42874062785E+02  0.00000000000E+00 0. -1.
        -12    1    6    6    0    0 -0.10750934258E+03 -0.93916127662E+02 -0.41706199448E+01  0.14281418643E+03  0.00000000000E+00 0.  1.
</event>
<event>
12    1  0.1348628E-002  0.1765690E+03  0.7818608E-02  0.1171165E+00
          2   -1    0    0  502    0  0.00000000000E+00  0.00000000000E+00  0.16949479767E+03  0.16949479767E+03  0.00000000000E+00 0.  1.
         -2   -1    0    0    0  501 -0.00000000000E+00 -0.00000000000E+00 -0.19280249090E+03  0.19280249090E+03  0.00000000000E+00 0. -1.
          6    2    1    2  502    0 -0.20993804905E+02  0.19082742013E+02 -0.50098253508E+02  0.18014587453E+03  0.17069800883E+03 0.  0.
         24    2    3    3    0    0 -0.11441802290E+02  0.76163526555E+02 -0.50096210433E+02  0.12208085303E+03  0.80388474045E+02 0.  0.
         -6    2    1    2    0  501  0.20993804905E+02 -0.19082742013E+02  0.26790560283E+02  0.18215141404E+03  0.17792277153E+03 0.  0.
        -24    2    5    5    0    0  0.22391995069E+02 -0.38073260471E+02 -0.49713237595E+02  0.10317346891E+03  0.78882089781E+02 0.  0.
          5    1    3    3  502    0 -0.95520026153E+01 -0.57080784541E+02 -0.20430750201E-02  0.58065021502E+02  0.47000000000E+01 0. -1.
        -13    1    4    4    0    0 -0.12994179145E+02  0.75594454195E+02 -0.49054230690E+01  0.76859829379E+02  0.00000000000E+00 0.  1.
         14    1    4    4    0    0  0.15523768558E+01  0.56907235983E+00 -0.45190787364E+02  0.45221023649E+02  0.00000000000E+00 0. -1.
         -5    1    5    5    0  501 -0.13981901644E+01  0.18990518458E+02  0.76503797879E+02  0.78977945130E+02  0.47000000000E+01 0.  1.
         13    1    6    6    0    0 -0.54008374264E+01  0.16170110247E+02 -0.37246212994E+02  0.40962444906E+02  0.00000000000E+00 0. -1.
        -14    1    6    6    0    0  0.27792832496E+02 -0.54243370718E+02 -0.12467024602E+02  0.62211024002E+02  0.00000000000E+00 0.  1.
</event>
<event>
12    1  0.1348628E-002  0.1889840E+03  0.7818608E-02  0.1159381E+00
         -2   -1    0    0    0  501 -0.00000000000E+00  0.00000000000E+00  0.18691429035E+02  0.18691429035E+02  0.00000000000E+00 0. -1.
          2   -1    0    0  502    0  0.00000000000E+00 -0.00000000000E+00 -0.19291980548E+04  0.19291980548E+04  0.00000000000E+00 0.  1.
          6    2    1    2  502    0 -0.10889069899E+02  0.78586923591E+02 -0.10517674100E+04  0.10686578637E+04  0.17181521615E+03 0.  0.
         24    2    3    3    0    0 -0.14711503700E+02  0.11720901710E+03 -0.93378205878E+03  0.94436421861E+03  0.76944538840E+02 0.  0.
         -6    2    1    2    0  501  0.10889069899E+02 -0.78586923591E+02 -0.85873921578E+03  0.87923162015E+03  0.17123295464E+03 0.  0.
        -24    2    5    5    0    0  0.49230802759E+02  0.21564555374E+01 -0.33002892906E+03  0.34299823902E+03  0.79374906091E+02 0.  0.
          5    1    3    3  502    0  0.38224338007E+01 -0.38622093506E+02 -0.11798535119E+03  0.12429364506E+03  0.47000000000E+01 0. -1.
        -11    1    4    4    0    0 -0.43410403972E+02  0.90752308292E+02 -0.72737234362E+03  0.73429624192E+03  0.00000000000E+00 0.  1.
         12    1    4    4    0    0  0.28698900272E+02  0.26456708805E+02 -0.20640971517E+03  0.21006797669E+03  0.00000000000E+00 0. -1.
         -5    1    5    5    0  501 -0.38341732859E+02 -0.80743379128E+02 -0.52871028672E+03  0.53623338113E+03  0.47000000000E+01 0.  1.
         13    1    6    6    0    0  0.34142910880E+02  0.12854345444E+02 -0.47641302695E+02  0.60005552098E+02  0.00000000000E+00 0. -1.
        -14    1    6    6    0    0  0.15087891878E+02 -0.10697889906E+02 -0.28238762636E+03  0.28299268693E+03  0.00000000000E+00 0.  1.
</event>
<event>
12    1  0.1348628E-002  0.1759517E+03  0.7818608E-02  0.1171780E+00
         -2   -1    0    0    0  501 -0.00000000000E+00  0.00000000000E+00  0.67309727892E+02  0.67309727892E+02  0.00000000000E+00 0.  1.
          2   -1    0    0  502    0  0.00000000000E+00 -0.00000000000E+00 -0.79347455848E+03  0.79347455848E+03  0.00000000000E+00 0. -1.
          6    2    1    2  502    0 -0.15439336922E+02 -0.33989712592E+02 -0.83995588805E+02  0.19493536912E+03  0.17190365182E+03 0.  0.
         24    2    3    3    0    0 -0.44918585273E+01  0.39275315300E+02 -0.10531207451E+02  0.90500140763E+02  0.80725720578E+02 0.  0.
         -6    2    1    2    0  501  0.15439336922E+02  0.33989712592E+02 -0.64216924178E+03  0.66584891725E+03  0.17198770835E+03 0.  0.
        -24    2    5    5    0    0 -0.47767639540E+02  0.22004859073E+02 -0.23763964710E+03  0.25620878059E+03  0.80027346373E+02 0.  0.
          5    1    3    3  502    0 -0.10947478395E+02 -0.73265027892E+02 -0.73464381354E+02  0.10443522836E+03  0.47000000000E+01 0. -1.
        -13    1    4    4    0    0  0.19845365594E+02  0.14732852013E+02 -0.38694936462E+02  0.45915069115E+02  0.00000000000E+00 0.  1.
         14    1    4    4    0    0 -0.24337224121E+02  0.24542463287E+02  0.28163729010E+02  0.44585071648E+02  0.00000000000E+00 0. -1.
         -5    1    5    5    0  501  0.63206976462E+02  0.11984853518E+02 -0.40452959468E+03  0.40964013666E+03  0.47000000000E+01 0.  1.
         13    1    6    6    0    0 -0.53308120686E+02  0.20966515386E+02 -0.24224753554E+03  0.24892814018E+03  0.00000000000E+00 0. -1.
        -14    1    6    6    0    0  0.55404811454E+01  0.10383436874E+01  0.46078884384E+01  0.72806404112E+01  0.00000000000E+00 0.  1.
</event>
<event>
12    1  0.1348628E-002  0.2016711E+03  0.7818608E-02  0.1148337E+00
          1   -1    0    0  502    0  0.00000000000E+00  0.00000000000E+00  0.11308099893E+04  0.11308099893E+04  0.00000000000E+00 0. -1.
         -1   -1    0    0    0  501 -0.00000000000E+00 -0.00000000000E+00 -0.36503487289E+02  0.36503487289E+02  0.00000000000E+00 0.  1.
          6    2    1    2  502    0  0.52084494628E+02  0.88993408157E+02  0.61545978910E+03  0.64737625357E+03  0.17225748290E+03 0.  0.
         24    2    3    3    0    0  0.57259599393E+02  0.12739429821E+03  0.51181724758E+03  0.53662754487E+03  0.80648980521E+02 0.  0.
         -6    2    1    2    0  501 -0.52084494628E+02 -0.88993408157E+02  0.47884671294E+03  0.51993722304E+03  0.17437866882E+03 0.  0.
        -24    2    5    5    0    0 -0.10037504180E+03 -0.84742224068E+02  0.36580167184E+03  0.39684652141E+03  0.80124308882E+02 0.  0.
          5    1    3    3  502    0 -0.51751047653E+01 -0.38400890048E+02  0.10364254152E+03  0.11074870870E+03  0.47000000000E+01 0. -1.
        -11    1    4    4    0    0  0.32572318882E+02  0.95904787927E+02  0.22141432542E+03  0.24348098038E+03  0.00000000000E+00 0.  1.
         12    1    4    4    0    0  0.24687280511E+02  0.31489510278E+02  0.29040292216E+03  0.29314656450E+03  0.00000000000E+00 0. -1.
         -5    1    5    5    0  501  0.48290547176E+02 -0.42511840893E+01  0.11304504109E+03  0.12309070163E+03  0.47000000000E+01 0.  1.
         11    1    6    6    0    0 -0.96823954175E+01 -0.48680289941E+01  0.14273936392E+03  0.14315017465E+03  0.00000000000E+00 0. -1.
        -12    1    6    6    0    0 -0.90692646386E+02 -0.79874195074E+02  0.22306230792E+03  0.25369634676E+03  0.00000000000E+00 0.  1.
</event>
<event>
12    1  0.1348628E-002  0.1953453E+03  0.7818608E-02  0.1153727E+00
          2   -1    0    0  502    0  0.00000000000E+00  0.00000000000E+00  0.39089114254E+03  0.39089114254E+03  0.00000000000E+00 0.  1.
         -2   -1    0    0    0  501 -0.00000000000E+00 -0.00000000000E+00 -0.13231475467E+03  0.13231475467E+03  0.00000000000E+00 0. -1.
          6    2    1    2  502    0 -0.33152440896E+02 -0.83995388613E+02  0.26229215678E+03  0.32591766434E+03  0.17108722563E+03 0.  0.
         24    2    3    3    0    0 -0.81281798006E+02 -0.27047597018E+02  0.17901449252E+03  0.21403940306E+03  0.80177143483E+02 0.  0.
         -6    2    1    2    0  501  0.33152440896E+02  0.83995388613E+02 -0.37157689100E+01  0.19728823288E+03  0.17536969592E+03 0.  0.
        -24    2    5    5    0    0 -0.15570912925E+02  0.11173286009E+03  0.12700668219E+02  0.13868002578E+03  0.79650217984E+02 0.  0.
          5    1    3    3  502    0  0.48129357110E+02 -0.56947791595E+02  0.83277664261E+02  0.11187826128E+03  0.47000000000E+01 0. -1.
        -13    1    4    4    0    0 -0.46824809573E+02 -0.32646292894E+02  0.37535589101E+02  0.68317374660E+02  0.00000000000E+00 0.  1.
         14    1    4    4    0    0 -0.34456988432E+02  0.55986958761E+01  0.14147890342E+03  0.14572202840E+03  0.00000000000E+00 0. -1.
         -5    1    5    5    0  501  0.48723353821E+02 -0.27737471473E+02 -0.16416437129E+02  0.58608207098E+02  0.47000000000E+01 0.  1.
         11    1    6    6    0    0  0.79114567471E+01  0.11786034290E+02 -0.25459382217E+02  0.29149303508E+02  0.00000000000E+00 0. -1.
        -12    1    6    6    0    0 -0.23482369672E+02  0.99946825795E+02  0.38160050436E+02  0.10953072227E+03  0.00000000000E+00 0.  1.
</event>
<event>
12    1  0.1348628E-002  0.1899678E+03  0.7818608E-02  0.1158490E+00
         -2   -1    0    0    0  501 -0.00000000000E+00  0.00000000000E+00  0.63471812518E+02  0.63471812518E+02  0.00000000000E+00 0. -1.
          2   -1    0    0  502    0  0.00000000000E+00 -0.00000000000E+00 -0.77286653208E+03  0.77286653208E+03  0.00000000000E+00 0.  1.
          6    2    1    2  502    0 -0.66929985914E+02  0.44081805842E+02 -0.14016490049E+03  0.23635356967E+03  0.17260933331E+03 0.  0.
         24    2    3    3    0    0 -0.48718032415E+02  0.92998414829E+02 -0.70210821703E+02  0.14894548638E+03  0.78949645885E+02 0.  0.
         -6    2    1    2    0  501  0.66929985914E+02 -0.44081805842E+02 -0.56922981907E+03  0.59998477493E+03  0.17186132377E+03 0.  0.
        -24    2    5    5    0    0 -0.14171637885E+02 -0.44878788756E+02 -0.41914873263E+03  0.42932566714E+03  0.80124449447E+02 0.  0.
          5    1    3    3  502    0 -0.18211953499E+02 -0.48916608987E+02 -0.69954078788E+02  0.87408083288E+02  0.47000000000E+01 0. -1.
        -13    1    4    4    0    0 -0.68081157193E+02  0.51363936821E+02 -0.42123858837E+02  0.95119490399E+02  0.00000000000E+00 0.  1.
         14    1    4    4    0    0  0.19363124778E+02  0.41634478008E+02 -0.28086962866E+02  0.53825995980E+02  0.00000000000E+00 0. -1.
         -5    1    5    5    0  501  0.81101623799E+02  0.79698291326E+00 -0.15008108644E+03  0.17065910779E+03  0.47000000000E+01 0.  1.
         11    1    6    6    0    0 -0.71537983477E+01  0.23254948446E+02 -0.11880887664E+03  0.12127455886E+03  0.00000000000E+00 0. -1.
        -12    1    6    6    0    0 -0.70178395375E+01 -0.68133737202E+02 -0.30033985599E+03  0.30805110828E+03  0.00000000000E+00 0.  1.
</event>
<event>
12    1  0.1348628E-002  0.1891575E+03  0.7818608E-02  0.1159223E+00
          2   -1    0    0  502    0  0.00000000000E+00  0.00000000000E+00  0.29772681375E+03  0.29772681375E+03  0.00000000000E+00 0.  1.
         -2   -1    0    0    0  501 -0.00000000000E+00 -0.00000000000E+00 -0.12051514982E+03  0.12051514982E+03  0.00000000000E+00 0. -1.
          6    2    1    2  502    0 -0.67877010000E+02  0.44165332550E+02  0.10007737555E+03  0.21493344212E+03  0.17211344619E+03 0.  0.
         24    2    3    3    0    0 -0.59811271408E+02  0.72161028376E+02  0.12578699044E+03  0.17579408313E+03  0.79351058573E+02 0.  0.
         -6    2    1    2    0  501  0.67877010000E+02 -0.44165332550E+02  0.77134288385E+02  0.20330852145E+03  0.16978454394E+03 0.  0.
        -24    2    5    5    0    0 -0.25290954966E+02 -0.39343156176E+02  0.21407378432E+02  0.94537654143E+02  0.79319454477E+02 0.  0.
          5    1    3    3  502    0 -0.80657385921E+01 -0.27995695826E+02 -0.25709614895E+02  0.39139358986E+02  0.47000000000E+01 0. -1.
        -11    1    4    4    0    0  0.13098552116E+02  0.20039102445E+01 -0.13371038680E+01  0.13318242022E+02  0.00000000000E+00 0.  1.
         12    1    4    4    0    0 -0.72909823524E+02  0.70157118132E+02  0.12712409431E+03  0.16247584111E+03  0.00000000000E+00 0. -1.
         -5    1    5    5    0  501  0.93167964966E+02 -0.48221763740E+01  0.55726909953E+02  0.10877086730E+03  0.47000000000E+01 0.  1.
         11    1    6    6    0    0 -0.26011514369E+02 -0.21909111719E+02 -0.26780792840E+02  0.43287630118E+02  0.00000000000E+00 0. -1.
        -12    1    6    6    0    0  0.72055940350E+00 -0.17434044457E+02  0.48188171272E+02  0.51250024025E+02  0.00000000000E+00 0.  1.
</event>
<event>
12    1  0.1348628E-002  0.3199754E+03  0.7818608E-02  0.1075661E+00
         -2   -1    0    0    0  501 -0.00000000000E+00  0.00000000000E+00  0.15998840916E+03  0.15998840916E+03  0.00000000000E+00 0. -1.
          2   -1    0    0  502    0  0.00000000000E+00 -0.00000000000E+00 -0.65379771341E+03  0.65379771341E+03  0.00000000000E+00 0.  1.
          6    2    1    2  502    0  0.83509959941E+02  0.25728270769E+03 -0.30656790291E+03  0.44356206297E+03  0.17203232119E+03 0.  0.
         24    2    3    3    0    0  0.58447907250E+01  0.21858228141E+03 -0.20348142642E+03  0.30873434647E+03  0.78101411423E+02 0.  0.
         -6    2    1    2    0  501 -0.83509959941E+02 -0.25728270769E+03 -0.18724140135E+03  0.37022405959E+03  0.16981815815E+03 0.  0.
        -24    2    5    5    0    0 -0.82797932128E+02 -0.26402934993E+03 -0.13176176679E+03  0.31413391772E+03  0.68934460773E+02 0.  0.
          5    1    3    3  502    0  0.77665169216E+02  0.38700426272E+02 -0.10308647649E+03  0.13482771651E+03  0.47000000000E+01 0. -1.
        -13    1    4    4    0    0  0.19278985057E+02  0.77018317439E+02 -0.11985755308E+03  0.14376833280E+03  0.00000000000E+00 0.  1.
         14    1    4    4    0    0 -0.13434194332E+02  0.14156396397E+03 -0.83623873335E+02  0.16496601367E+03  0.00000000000E+00 0. -1.
         -5    1    5    5    0  501 -0.71202781342E+00  0.67466422461E+01 -0.55479634553E+02  0.56090141873E+02  0.47000000000E+01 0.  1.
         11    1    6    6    0    0  0.57325823494E+01 -0.39856635614E+02 -0.17997258576E+01  0.40306983464E+02  0.00000000000E+00 0. -1.
        -12    1    6    6    0    0 -0.88530514477E+02 -0.22417271432E+03 -0.12996204094E+03  0.27382693425E+03  0.00000000000E+00 0.  1.
</event>
<event>
12    1  0.1348628E-002  0.2476818E+03  0.7818608E-02  0.1114779E+00
          1   -1    0    0  502    0  0.00000000000E+00  0.00000000000E+00  0.32251394614E+03  0.32251394614E+03  0.00000000000E+00 0. -1.
         -1   -1    0    0    0  501 -0.00000000000E+00 -0.00000000000E+00 -0.19109139137E+03  0.19109139137E+03  0.00000000000E+00 0.  1.
          6    2    1    2  502    0 -0.81049481914E+02  0.15417395432E+03  0.47776284285E+02  0.24918671597E+03  0.17167649626E+03 0.  0.
         24    2    3    3    0    0 -0.49371707855E+01  0.13227216059E+03  0.78103554118E+01  0.16034901033E+03  0.90169303742E+02 0.  0.
         -6    2    1    2    0  501  0.81049481914E+02 -0.15417395432E+03  0.83646270485E+02  0.26441862153E+03  0.18050452110E+03 0.  0.
        -24    2    5    5    0    0  0.98460477045E+02 -0.92587617265E+02  0.11354754499E+03  0.19362175804E+03  0.79557575375E+02 0.  0.
          5    1    3    3  502    0 -0.76112311129E+02  0.21901793729E+02  0.39965928873E+02  0.88837705647E+02  0.47000000000E+01 0. -1.
        -11    1    4    4    0    0  0.18045458888E+02 -0.65794344329E+01 -0.17300560139E+01  0.19285244042E+02  0.00000000000E+00 0.  1.
         12    1    4    4    0    0 -0.22982629674E+02  0.13885159503E+03  0.95404114257E+01  0.14106376628E+03  0.00000000000E+00 0. -1.
         -5    1    5    5    0  501 -0.17410995130E+02 -0.61586337057E+02 -0.29901274510E+02  0.70796863496E+02  0.47000000000E+01 0.  1.
         13    1    6    6    0    0 -0.28460219354E+01  0.93985617416E+01  0.19518739590E+02  0.21849805465E+02  0.00000000000E+00 0. -1.
        -14    1    6    6    0    0  0.10130649898E+03 -0.10198617901E+03  0.94028805405E+02  0.17177195257E+03  0.00000000000E+00 0.  1.
</event>
<event>
12    1  0.1348628E-002  0.4099301E+03  0.7818608E-02  0.1040394E+00
         -2   -1    0    0    0  501 -0.00000000000E+00  0.00000000000E+00  0.16244181423E+03  0.16244181423E+03  0.00000000000E+00 0.  1.
          2   -1    0    0  502    0  0.00000000000E+00 -0.00000000000E+00 -0.11391004702E+04  0.11391004702E+04  0.00000000000E+00 0. -1.
          6    2    1    2  502    0 -0.31343350911E+03  0.20123965000E+03 -0.29066895935E+03  0.50219428530E+03  0.17021367425E+03 0.  0.
         24    2    3    3    0    0 -0.12994553513E+03  0.95229497551E+02 -0.60756167095E+02  0.18948360263E+03  0.79108940851E+02 0.  0.
         -6    2    1    2    0  501  0.31343350911E+03 -0.20123965000E+03 -0.68598969668E+03  0.79934799917E+03  0.17215515812E+03 0.  0.
        -24    2    5    5    0    0  0.27426977524E+03 -0.10278530454E+03 -0.53419203172E+03  0.61416787800E+03  0.77796704144E+02 0.  0.
          5    1    3    3  502    0 -0.18348797398E+03  0.10601015244E+03 -0.22991279225E+03  0.31271068267E+03  0.47000000000E+01 0. -1.
        -13    1    4    4    0    0 -0.58483526173E+02  0.53666159656E+02 -0.70599915828E+02  0.10622959870E+03  0.00000000000E+00 0.  1.
         14    1    4    4    0    0 -0.71462008954E+02  0.41563337894E+02  0.98437487327E+01  0.83254003927E+02  0.00000000000E+00 0. -1.
         -5    1    5    5    0  501  0.39163733869E+02 -0.98454345457E+02 -0.15179766496E+03  0.18518012117E+03  0.47000000000E+01 0.  1.
         11    1    6    6    0    0  0.72060275033E+02 -0.20758288770E+02 -0.76536524667E+02  0.10715143209E+03  0.00000000000E+00 0. -1.
        -12    1    6    6    0    0  0.20220950021E+03 -0.82027015769E+02 -0.45765550705E+03  0.50701644591E+03  0.00000000000E+00 0.  1.
</event>
<event>
12    1  0.1348628E-002  0.2293551E+03  0.7818608E-02  0.1127095E+00
          3   -1    0    0  502    0  0.00000000000E+00  0.00000000000E+00  0.22225638794E+03  0.22225638794E+03  0.00000000000E+00 0. -1.
         -3   -1    0    0    0  501 -0.00000000000E+00 -0.00000000000E+00 -0.24187087349E+03  0.24187087349E+03  0.00000000000E+00 0.  1.
          6    2    1    2  502    0 -0.13899062303E+03 -0.67700515554E+02  0.24215871433E+02  0.22951102166E+03  0.16789028423E+03 0.  0.
         24    2    3    3    0    0 -0.13906374741E+03 -0.65497909204E+02 -0.29303701492E+02  0.17574029070E+03  0.79982753778E+02 0.  0.
         -6    2    1    2    0  501  0.13899062303E+03  0.67700515554E+02 -0.43830356990E+02  0.23461623976E+03  0.17094422093E+03 0.  0.
        -24    2    5    5    0    0  0.12293704112E+03  0.91387414468E+02  0.10386747773E+02  0.17313151710E+03  0.80009137481E+02 0.  0.
          5    1    3    3  502    0  0.73124378398E-01 -0.22026063499E+01  0.53519572925E+02  0.53770730960E+02  0.47000000000E+01 0. -1.
        -11    1    4    4    0    0 -0.75209602997E+02 -0.70881914082E+01  0.17230604145E+02  0.77483034011E+02  0.00000000000E+00 0.  1.
         12    1    4    4    0    0 -0.63854144413E+02 -0.58409717796E+02 -0.46534305637E+02  0.98257256693E+02  0.00000000000E+00 0. -1.
         -5    1    5    5    0  501  0.16053581909E+02 -0.23686898914E+02 -0.54217104764E+02  0.61484722665E+02  0.47000000000E+01 0.  1.
         11    1    6    6    0    0  0.10423774318E+03  0.81292482185E+02 -0.22386990317E+02  0.13407144401E+03  0.00000000000E+00 0. -1.
        -12    1    6    6    0    0  0.18699297942E+02  0.10094932283E+02  0.32773738091E+02  0.39060073090E+02  0.00000000000E+00 0.  1.
</event>
<event>
12    1  0.1348628E-002  0.3871441E+03  0.7818608E-02  0.1048324E+00
          2   -1    0    0  502    0  0.00000000000E+00  0.00000000000E+00  0.17879292046E+04  0.17879292046E+04  0.00000000000E+00 0.  1.
         -2   -1    0    0    0  501 -0.00000000000E+00 -0.00000000000E+00 -0.84908396456E+02  0.84908396456E+02  0.00000000000E+00 0. -1.
          6    2    1    2  502    0 -0.27290592087E+03  0.21382814598E+03  0.95665874073E+03  0.10319522095E+04  0.17184091159E+03 0.  0.
         24    2    3    3    0    0 -0.57555887844E+02  0.10010827855E+03  0.41192433124E+03  0.43523995740E+03  0.80111286270E+02 0.  0.
         -6    2    1    2    0  501  0.27290592087E+03 -0.21382814598E+03  0.74636206740E+03  0.84088539150E+03  0.17271881291E+03 0.  0.
        -24    2    5    5    0    0  0.96335858675E+02 -0.16930503642E+03  0.38969992968E+03  0.44039910631E+03  0.64347063782E+02 0.  0.
          5    1    3    3  502    0 -0.21535003303E+03  0.11371986743E+03  0.54473440949E+03  0.59671225214E+03  0.47000000000E+01 0. -1.
        -13    1    4    4    0    0 -0.42961788394E+02  0.62620311057E+02  0.36768257417E+03  0.37544306355E+03  0.00000000000E+00 0.  1.
         14    1    4    4    0    0 -0.14594099450E+02  0.37487967488E+02  0.44241757071E+02  0.59796893848E+02  0.00000000000E+00 0. -1.
         -5    1    5    5    0  501  0.17657006220E+03 -0.44523109554E+02  0.35666213771E+03  0.40048628519E+03  0.47000000000E+01 0.  1.
         11    1    6    6    0    0  0.98204479108E+02 -0.17388546257E+03  0.38420464282E+03  0.43300517476E+03  0.00000000000E+00 0. -1.
        -12    1    6    6    0    0 -0.18686204325E+01  0.45804261429E+01  0.54952868659E+01  0.73939315462E+01  0.00000000000E+00 0.  1.
</event>
<event>
12    1  0.1348628E-002  0.1731815E+03  0.7818608E-02  0.1174570E+00
         -2   -1    0    0    0  501 -0.00000000000E+00  0.00000000000E+00  0.92349346173E+02  0.92349346173E+02  0.00000000000E+00 0. -1.
          2   -1    0    0  502    0  0.00000000000E+00 -0.00000000000E+00 -0.32484860495E+03  0.32484860495E+03  0.00000000000E+00 0.  1.
          6    2    1    2  502    0 -0.19693739155E+02 -0.37978051369E+02 -0.11616303302E+03  0.20650896450E+03  0.16529345550E+03 0.  0.
         24    2    3    3    0    0 -0.40489727691E+02  0.24332045702E+02 -0.28501567586E+02  0.96865707261E+02  0.79618838172E+02 0.  0.
         -6    2    1    2    0  501  0.19693739155E+02  0.37978051369E+02 -0.11633622576E+03  0.21068898662E+03  0.17036888188E+03 0.  0.
        -24    2    5    5    0    0 -0.27604761672E+02  0.70342474417E+02 -0.10575367677E+03  0.15221946976E+03  0.79226512288E+02 0.  0.
          5    1    3    3  502    0  0.20795988536E+02 -0.62310097071E+02 -0.87661465429E+02  0.10964325724E+03  0.47000000000E+01 0. -1.
        -13    1    4    4    0    0 -0.70308731384E+01 -0.10044625622E+02 -0.44608278503E+02  0.46262578743E+02  0.00000000000E+00 0.  1.
         14    1    4    4    0    0 -0.33458854552E+02  0.34376671324E+02  0.16106710917E+02  0.50603128518E+02  0.00000000000E+00 0. -1.
         -5    1    5    5    0  501  0.47298500826E+02 -0.32364423048E+02 -0.10582548994E+02  0.58469516868E+02  0.47000000000E+01 0.  1.
         13    1    6    6    0    0  0.12532400582E+02  0.53905343386E+02 -0.25369672430E+02  0.60880763704E+02  0.00000000000E+00 0. -1.
        -14    1    6    6    0    0 -0.40137162254E+02  0.16437131031E+02 -0.80384004336E+02  0.91338706053E+02  0.00000000000E+00 0.  1.
</event>
<event>
12    1  0.1348628E-002  0.1837405E+03  0.7818608E-02  0.1164231E+00
          1   -1    0    0  502    0  0.00000000000E+00  0.00000000000E+00  0.27384458444E+03  0.27384458444E+03  0.00000000000E+00 0. -1.
         -1   -1    0    0    0  501 -0.00000000000E+00 -0.00000000000E+00 -0.12352702232E+03  0.12352702232E+03  0.00000000000E+00 0.  1.
          6    2    1    2  502    0 -0.14057948342E+02  0.62242758506E+02  0.66168269126E+02  0.19486456893E+03  0.17182017776E+03 0.  0.
         24    2    3    3    0    0 -0.53247328648E+02  0.92365120092E+02  0.40239854647E+02  0.13885084852E+03  0.79332961718E+02 0.  0.
         -6    2    1    2    0  501  0.14057948342E+02 -0.62242758506E+02  0.84149292990E+02  0.20250703784E+03  0.17278949610E+03 0.  0.
        -24    2    5    5    0    0 -0.62351209665E+01 -0.10300608811E+03  0.33111825716E+02  0.13394778778E+03  0.78717761207E+02 0.  0.
          5    1    3    3  502    0  0.39189380306E+02 -0.30122361586E+02  0.25928414479E+02  0.56013720406E+02  0.47000000000E+01 0. -1.
        -13    1    4    4    0    0 -0.54040649264E+02  0.15831588760E+02  0.15322345576E+02  0.58359277321E+02  0.00000000000E+00 0.  1.
         14    1    4    4    0    0  0.79332061559E+00  0.76533531332E+02  0.24917509071E+02  0.80491571199E+02  0.00000000000E+00 0. -1.
         -5    1    5    5    0  501  0.20293069309E+02  0.40763329599E+02  0.51037467275E+02  0.68559250053E+02  0.47000000000E+01 0.  1.
         11    1    6    6    0    0 -0.25058044617E+02 -0.57250595615E+02  0.51687643568E+02  0.81099622662E+02  0.00000000000E+00 0. -1.
        -12    1    6    6    0    0  0.18822923650E+02 -0.45755492490E+02 -0.18575817853E+02  0.52848165121E+02  0.00000000000E+00 0.  1.
</event>
<event>
12    1  0.1348628E-002  0.2014973E+03  0.7818608E-02  0.1148482E+00
          4   -1    0    0  502    0  0.00000000000E+00  0.00000000000E+00  0.45994132366E+02  0.45994132366E+02  0.00000000000E+00 0.  1.
         -4   -1    0    0    0  501 -0.00000000000E+00 -0.00000000000E+00 -0.10510806497E+04  0.10510806497E+04  0.00000000000E+00 0. -1.
          6    2    1    2  502    0 -0.56385808325E+02 -0.79916979161E+02 -0.73051944399E+03  0.75893125704E+03  0.18097489309E+03 0.  0.
         24    2    3    3    0    0 -0.92992721246E+02 -0.10148736468E+03 -0.51311629578E+03  0.53736508982E+03  0.80781033487E+02 0.  0.
         -6    2    1    2    0  501  0.56385808325E+02  0.79916979161E+02 -0.27456707331E+03  0.33814352499E+03  0.17142894390E+03 0.  0.
        -24    2    5    5    0    0  0.43605627657E+02  0.22197262813E+01 -0.22996326406E+03  0.24752462010E+03  0.80491967257E+02 0.  0.
          5    1    3    3  502    0  0.36606912921E+02  0.21570385516E+02 -0.21740314821E+03  0.22156616722E+03  0.47000000000E+01 0. -1.
        -11    1    4    4    0    0  0.12585803748E+02 -0.39080332818E+01 -0.22062541463E+02  0.25698850479E+02  0.00000000000E+00 0.  1.
         12    1    4    4    0    0 -0.10557852499E+03 -0.97579331395E+02 -0.49105375431E+03  0.51166623934E+03  0.00000000000E+00 0. -1.
         -5    1    5    5    0  501  0.12780180668E+02  0.77697252879E+02 -0.44603809253E+02  0.90618904887E+02  0.47000000000E+01 0.  1.
         13    1    6    6    0    0  0.18564956128E+02  0.41137663179E+02 -0.10621433707E+03  0.11540559054E+03  0.00000000000E+00 0. -1.
        -14    1    6    6    0    0  0.25040671528E+02 -0.38917936898E+02 -0.12374892698E+03  0.13211902956E+03  0.00000000000E+00 0.  1.
</event>
<event>
12    1  0.1348628E-002  0.1718328E+03  0.7818608E-02  0.1175950E+00
          1   -1    0    0  502    0  0.00000000000E+00  0.00000000000E+00  0.17505875286E+04  0.17505875286E+04  0.00000000000E+00 0.  1.
         -1   -1    0    0    0  501 -0.00000000000E+00 -0.00000000000E+00 -0.16920082951E+02  0.16920082951E+02  0.00000000000E+00 0. -1.
          6    2    1    2  502    0 -0.18180880103E+01 -0.14603909277E+02  0.92438113403E+03  0.94053490053E+03  0.17294172013E+03 0.  0.
         24    2    3    3    0    0  0.20880672731E+01 -0.54759538689E+02  0.35521297239E+03  0.36991925156E+03  0.87527309007E+02 0.  0.
         -6    2    1    2    0  501  0.18180880103E+01  0.14603909277E+02  0.80928631160E+03  0.82697271100E+03  0.16947846760E+03 0.  0.
        -24    2    5    5    0    0  0.39911343678E+02 -0.18751692939E+02  0.70648096297E+03  0.71227867439E+03  0.79252871293E+02 0.  0.
          5    1    3    3  502    0 -0.39061552833E+01  0.40155629412E+02  0.56916816164E+03  0.57061564897E+03  0.47000000000E+01 0. -1.
        -13    1    4    4    0    0 -0.48898270624E+00 -0.60137529142E+02  0.35822508347E+03  0.36323817522E+03  0.00000000000E+00 0.  1.
         14    1    4    4    0    0  0.25770499793E+01  0.53779904524E+01 -0.30121110787E+01  0.66810763393E+01  0.00000000000E+00 0. -1.
         -5    1    5    5    0  501 -0.38093255668E+02  0.33355602216E+02  0.10280534863E+03  0.11469403661E+03  0.47000000000E+01 0.  1.
         11    1    6    6    0    0  0.12513702536E+02 -0.35343803539E+02  0.14126875411E+03  0.14615963221E+03  0.00000000000E+00 0. -1.
        -12    1    6    6    0    0  0.27397641142E+02  0.16592110600E+02  0.56521220886E+03  0.56611904218E+03  0.00000000000E+00 0.  1.
</event>
<event>
12    1  0.1348628E-002  0.1830633E+03  0.7818608E-02  0.1164871E+00
         -2   -1    0    0    0  501 -0.00000000000E+00  0.00000000000E+00  0.41630646485E+02  0.41630646485E+02  0.00000000000E+00 0.  1.
          2   -1    0    0  502    0  0.00000000000E+00 -0.00000000000E+00 -0.15659653995E+04  0.15659653995E+04  0.00000000000E+00 0. -1.
          6    2    1    2  502    0  0.24285093204E+02 -0.57288502543E+02 -0.20215501195E+03  0.27282353461E+03  0.17232032354E+03 0.  0.
         24    2    3    3    0    0  0.62383368939E+02 -0.16647324958E+01 -0.64931844343E+02  0.11986023791E+03  0.79094096924E+02 0.  0.
         -6    2    1    2    0  501 -0.24285093204E+02  0.57288502543E+02 -0.13221797411E+04  0.13347725114E+04  0.17200770671E+03 0.  0.
        -24    2    5    5    0    0 -0.29290365310E+02  0.10153244585E+03 -0.11246241045E+04  0.11322067225E+04  0.77109811830E+02 0.  0.
          5    1    3    3  502    0 -0.38098275736E+02 -0.55623770047E+02 -0.13722316761E+03  0.15296329670E+03  0.47000000000E+01 0. -1.
        -13    1    4    4    0    0  0.63551291606E+02 -0.26936536946E+02 -0.64631170557E+02  0.94559673725E+02  0.00000000000E+00 0.  1.
         14    1    4    4    0    0 -0.11679226662E+01  0.25271804450E+02 -0.30067378672E+00  0.25300564188E+02  0.00000000000E+00 0. -1.
         -5    1    5    5    0  501  0.50052721065E+01 -0.44243943311E+02 -0.19755563661E+03  0.20256578888E+03  0.47000000000E+01 0.  1.
         13    1    6    6    0    0 -0.43497700787E+02  0.67437730464E+02 -0.49168302149E+03  0.49818881068E+03  0.00000000000E+00 0. -1.
        -14    1    6    6    0    0  0.14207335476E+02  0.34094715391E+02 -0.63294108299E+03  0.63401791184E+03  0.00000000000E+00 0.  1.
</event>
<event>
12    1  0.1348628E-002  0.1718121E+03  0.7818608E-02  0.1175971E+00
          3   -1    0    0  502    0  0.00000000000E+00  0.00000000000E+00  0.51779278739E+02  0.51779278739E+02  0.00000000000E+00 0.  1.
         -3   -1    0    0    0  501 -0.00000000000E+00 -0.00000000000E+00 -0.58222214008E+03  0.58222214008E+03  0.00000000000E+00 0. -1.
          6    2    1    2  502    0 -0.66319825075E+01 -0.29576519805E+01 -0.21926188049E+03  0.27846939643E+03  0.17151297799E+03 0.  0.
         24    2    3    3    0    0  0.12391148664E+02 -0.64224642234E+02 -0.16533816651E+03  0.19453263129E+03  0.78916982297E+02 0.  0.
         -6    2    1    2    0  501  0.66319825075E+01  0.29576519805E+01 -0.31118098085E+03  0.35553202239E+03  0.17180420600E+03 0.  0.
        -24    2    5    5    0    0  0.28881976494E+02  0.30263563645E+02 -0.30497899676E+03  0.31945946147E+03  0.85393835877E+02 0.  0.
          5    1    3    3  502    0 -0.19023131172E+02  0.61266990254E+02 -0.53923713978E+02  0.83936765148E+02  0.47000000000E+01 0. -1.
        -11    1    4    4    0    0 -0.27715718911E+02 -0.32782579717E+02 -0.37834790938E+02  0.57221761709E+02  0.00000000000E+00 0.  1.
         12    1    4    4    0    0  0.40106867575E+02 -0.31442062517E+02 -0.12750337557E+03  0.13731086958E+03  0.00000000000E+00 0. -1.
         -5    1    5    5    0  501 -0.22249993987E+02 -0.27305911664E+02 -0.62019840899E+01  0.36072560914E+02  0.47000000000E+01 0.  1.
         11    1    6    6    0    0  0.59105672958E+02  0.15720862399E+02 -0.18278707055E+03  0.19274786445E+03  0.00000000000E+00 0. -1.
        -12    1    6    6    0    0 -0.30223696464E+02  0.14542701246E+02 -0.12219192621E+03  0.12671159702E+03  0.00000000000E+00 0.  1.
</event>
<event>
12    1  0.1348628E-002  0.1740881E+03  0.7818608E-02  0.1173650E+00
         -1   -1    0    0    0  501 -0.00000000000E+00  0.00000000000E+00  0.17143572535E+03  0.17143572535E+03  0.00000000000E+00 0.  1.
          1   -1    0    0  502    0  0.00000000000E+00 -0.00000000000E+00 -0.19037264777E+03  0.19037264777E+03  0.00000000000E+00 0. -1.
          6    2    1    2  502    0  0.23647990521E+02  0.75793503292E+01 -0.57781678264E+02  0.18303150069E+03  0.17188698000E+03 0.  0.
         24    2    3    3    0    0 -0.51202263012E+02 -0.17554825586E+01 -0.25217456509E+02  0.10073801311E+03  0.82990805014E+02 0.  0.
         -6    2    1    2    0  501 -0.23647990521E+02 -0.75793503292E+01  0.38844755839E+02  0.17877687243E+03  0.17272979202E+03 0.  0.
        -24    2    5    5    0    0 -0.32762552514E+02  0.58948292286E+02  0.39776924632E+02  0.11145702832E+03  0.79323259001E+02 0.  0.
          5    1    3    3  502    0  0.74850253532E+02  0.93348328877E+01 -0.32564221755E+02  0.82293487576E+02  0.47000000000E+01 0. -1.
        -13    1    4    4    0    0 -0.45629842098E+02 -0.20655217131E+02 -0.48852825791E+02  0.69966556814E+02  0.00000000000E+00 0.  1.
         14    1    4    4    0    0 -0.55724209133E+01  0.18899734572E+02  0.23635369282E+02  0.30771456300E+02  0.00000000000E+00 0. -1.
         -5    1    5    5    0  501  0.91145619929E+01 -0.66527642615E+02 -0.93216879212E+00  0.67319844109E+02  0.47000000000E+01 0.  1.
         13    1    6    6    0    0  0.10116501823E+02 -0.45673462293E+01  0.32657792418E+02  0.34492545083E+02  0.00000000000E+00 0. -1.
        -14    1    6    6    0    0 -0.42879054336E+02  0.63515638515E+02  0.71191322136E+01  0.76964483239E+02  0.00000000000E+00 0.  1.
</event>
<event>
12    1  0.1348628E-002  0.1911034E+03  0.7818608E-02  0.1157470E+00
         -1   -1    0    0    0  501 -0.00000000000E+00  0.00000000000E+00  0.11039758649E+03  0.11039758649E+03  0.00000000000E+00 0. -1.
          1   -1    0    0  502    0  0.00000000000E+00 -0.00000000000E+00 -0.41580985731E+03  0.41580985731E+03  0.00000000000E+00 0.  1.
          6    2    1    2  502    0 -0.26097730540E+02 -0.80208218523E+02 -0.34574935905E+02  0.19546960802E+03  0.17291180298E+03 0.  0.
         24    2    3    3    0    0 -0.13664232297E+02 -0.11793630933E+03 -0.49051723869E+02  0.15292941404E+03  0.82979815374E+02 0.  0.
         -6    2    1    2    0  501  0.26097730540E+02  0.80208218523E+02 -0.27083733491E+03  0.33073783578E+03  0.17005941366E+03 0.  0.
        -24    2    5    5    0    0 -0.17835519478E+02  0.10866282488E+03 -0.17751655968E+03  0.22363670520E+03  0.79846926601E+02 0.  0.
          5    1    3    3  502    0 -0.12433498244E+02  0.37728090810E+02  0.14476787964E+02  0.42540193987E+02  0.47000000000E+01 0. -1.
        -11    1    4    4    0    0 -0.40599606262E+01 -0.31389752426E+02 -0.57301245345E+02  0.65461687694E+02  0.00000000000E+00 0.  1.
         12    1    4    4    0    0 -0.96042716707E+01 -0.86546556906E+02  0.82495214765E+01  0.87467726341E+02  0.00000000000E+00 0. -1.
         -5    1    5    5    0  501  0.43933250018E+02 -0.28454606359E+02 -0.93320775232E+02  0.10710113057E+03  0.47000000000E+01 0.  1.
         11    1    6    6    0    0  0.89844525282E+01  0.10613014104E+03 -0.15724686438E+03  0.18992341504E+03  0.00000000000E+00 0. -1.
        -12    1    6    6    0    0 -0.26819972006E+02  0.25326838390E+01 -0.20269695301E+02  0.33713290160E+02  0.00000000000E+00 0.  1.
</event>
<event>
12    1  0.1348628E-002  0.1933851E+03  0.7818608E-02  0.1155443E+00
         -2   -1    0    0    0  501 -0.00000000000E+00  0.00000000000E+00  0.16403996468E+02  0.16403996468E+02  0.00000000000E+00 0. -1.
          2   -1    0    0  502    0  0.00000000000E+00 -0.00000000000E+00 -0.23531662731E+04  0.23531662731E+04  0.00000000000E+00 0.  1.
          6    2    1    2  502    0 -0.78756341372E+02  0.36357875770E+02 -0.13818101844E+04  0.13953783396E+04  0.17365733065E+03 0.  0.
         24    2    3    3    0    0 -0.11415360843E+03  0.57691700566E+01 -0.82688166857E+03  0.83846148485E+03  0.78867218246E+02 0.  0.
         -6    2    1    2    0  501  0.78756341372E+02 -0.36357875770E+02 -0.95495209229E+03  0.97419193002E+03  0.17202314237E+03 0.  0.
        -24    2    5    5    0    0  0.93962745677E+02  0.28070784033E+02 -0.56153988567E+03  0.57522132803E+03  0.77042628000E+02 0.  0.
          5    1    3    3  502    0  0.35397267057E+02  0.30588705714E+02 -0.55492851579E+03  0.55691685471E+03  0.47000000000E+01 0. -1.
        -13    1    4    4    0    0 -0.45455403560E+02  0.30222532677E+02 -0.52794807925E+03  0.53076244175E+03  0.00000000000E+00 0.  1.
         14    1    4    4    0    0 -0.68698204870E+02 -0.24453362621E+02 -0.29893358932E+03  0.30769904309E+03  0.00000000000E+00 0. -1.
         -5    1    5    5    0  501 -0.15206404305E+02 -0.64428659803E+02 -0.39341220662E+03  0.39897060199E+03  0.47000000000E+01 0.  1.
         11    1    6    6    0    0 -0.11614545226E+02  0.51318072763E+01 -0.26537845420E+02  0.29419217295E+02  0.00000000000E+00 0. -1.
        -12    1    6    6    0    0  0.10557729090E+03  0.22938976757E+02 -0.53500204025E+03  0.54580211074E+03  0.00000000000E+00 0.  1.
</event>
<event>
12    1  0.1348628E-002  0.2789528E+03  0.7818608E-02  0.1096262E+00
          2   -1    0    0  502    0  0.00000000000E+00  0.00000000000E+00  0.45495275326E+04  0.45495275326E+04  0.00000000000E+00 0. -1.
         -2   -1    0    0    0  501 -0.00000000000E+00 -0.00000000000E+00 -0.18437556507E+02  0.18437556507E+02  0.00000000000E+00 0.  1.
          6    2    1    2  502    0 -0.36852910415E+02  0.21636490475E+03  0.16465377332E+04  0.16698952167E+04  0.17114794503E+03 0.  0.
         24    2    3    3    0    0  0.39185559145E+02  0.13107967180E+03  0.76527432820E+03  0.78124303575E+03  0.77320728830E+02 0.  0.
         -6    2    1    2    0  501  0.36852910415E+02 -0.21636490475E+03  0.28845522429E+04  0.28980698724E+04  0.17319189941E+03 0.  0.
        -24    2    5    5    0    0 -0.41535141357E+02 -0.13301690424E+03  0.19450131638E+04  0.19515777451E+04  0.78490909867E+02 0.  0.
          5    1    3    3  502    0 -0.76038469560E+02  0.85285232954E+02  0.88126340498E+03  0.88865218098E+03  0.47000000000E+01 0. -1.
        -13    1    4    4    0    0  0.62334246965E+02  0.97911166113E+02  0.53534730128E+03  0.54778543955E+03  0.00000000000E+00 0.  1.
         14    1    4    4    0    0 -0.23148687820E+02  0.33168505687E+02  0.22992702692E+03  0.23345759620E+03  0.00000000000E+00 0. -1.
         -5    1    5    5    0  501  0.78388051771E+02 -0.83348000518E+02  0.93953907911E+03  0.94649212729E+03  0.47000000000E+01 0.  1.
         13    1    6    6    0    0  0.30925573986E+01 -0.10482556697E+03  0.14398793139E+04  0.14436933199E+04  0.00000000000E+00 0. -1.
        -14    1    6    6    0    0 -0.44627698755E+02 -0.28191337266E+02  0.50513384997E+03  0.50788442522E+03  0.00000000000E+00 0.  1.
</event>
<event>
12    1  0.1348628E-002  0.1862618E+03  0.7818608E-02  0.1161877E+00
         -1   -1    0    0    0  501 -0.00000000000E+00  0.00000000000E+00  0.30589139666E+02  0.30589139666E+02  0.00000000000E+00 0. -1.
          1   -1    0    0  502    0  0.00000000000E+00 -0.00000000000E+00 -0.11350404949E+04  0.11350404949E+04  0.00000000000E+00 0.  1.
          6    2    1    2  502    0 -0.28464977197E+02 -0.71763469965E+02 -0.53179766072E+03  0.56287857841E+03  0.16752101819E+03 0.  0.
         24    2    3    3    0    0 -0.13600671028E+02  0.26133188864E+02 -0.16475873616E+03  0.18268867119E+03  0.73224228424E+02 0.  0.
         -6    2    1    2    0  501  0.28464977197E+02  0.71763469965E+02 -0.57265369454E+03  0.60275105618E+03  0.17151189845E+03 0.  0.
        -24    2    5    5    0    0  0.60626052096E+02  0.10023343091E+03 -0.38891109893E+03  0.41399644073E+03  0.80118357436E+02 0.  0.
          5    1    3    3  502    0 -0.14864306169E+02 -0.97896658829E+02 -0.36703892456E+03  0.38018990722E+03  0.47000000000E+01 0. -1.
        -11    1    4    4    0    0 -0.10556724924E+02  0.29706280284E+02 -0.17155572747E+03  0.17442842416E+03  0.00000000000E+00 0.  1.
         12    1    4    4    0    0 -0.30439461042E+01 -0.35730914203E+01  0.67969913057E+01  0.82602470298E+01  0.00000000000E+00 0. -1.
         -5    1    5    5    0  501 -0.32161074899E+02 -0.28469960944E+02 -0.18374259560E+03  0.18875461545E+03  0.47000000000E+01 0.  1.
         13    1    6    6    0    0 -0.21527691482E+01 -0.22242626480E+01  0.28584689210E+01  0.42133839019E+01  0.00000000000E+00 0. -1.
        -14    1    6    6    0    0  0.62778821244E+02  0.10245769356E+03 -0.39176956785E+03  0.40978305683E+03  0.00000000000E+00 0.  1.
</event>
<event>
12    1  0.1348628E-002  0.1988860E+03  0.7818608E-02  0.1150682E+00
         -1   -1    0    0    0  501 -0.00000000000E+00  0.00000000000E+00  0.14180866661E+03  0.14180866661E+03  0.00000000000E+00 0.  1.
          1   -1    0    0  502    0  0.00000000000E+00 -0.00000000000E+00 -0.43292786421E+03  0.43292786421E+03  0.00000000000E+00 0. -1.
          6    2    1    2  502    0 -0.92402947118E+02 -0.35826190370E+02  0.25852118697E+02  0.20050795162E+03  0.17237542189E+03 0.  0.
         24    2    3    3    0    0 -0.29595955572E+02 -0.85416018470E+02  0.17524132069E+02  0.11991443700E+03  0.76815103974E+02 0.  0.
         -6    2    1    2    0  501  0.92402947118E+02  0.35826190370E+02 -0.31697131630E+03  0.37422857921E+03  0.17249461901E+03 0.  0.
        -24    2    5    5    0    0  0.70015451519E+02  0.85001558066E+02 -0.27182277181E+03  0.30366018815E+03  0.78704906241E+02 0.  0.
          5    1    3    3  502    0 -0.62806991547E+02  0.49589828100E+02  0.83279866278E+01  0.80593514624E+02  0.47000000000E+01 0. -1.
        -13    1    4    4    0    0 -0.36467155785E+02 -0.41251022642E+02  0.41728475625E+02  0.69085208244E+02  0.00000000000E+00 0.  1.
         14    1    4    4    0    0  0.68712002136E+01 -0.44164995829E+02 -0.24204343556E+02  0.50829228755E+02  0.00000000000E+00 0. -1.
         -5    1    5    5    0  501  0.22387495599E+02 -0.49175367696E+02 -0.45148544489E+02  0.70568391059E+02  0.47000000000E+01 0.  1.
         13    1    6    6    0    0 -0.75824030169E+01 -0.92295334348E+01 -0.14023911004E+02  0.18421378960E+02  0.00000000000E+00 0. -1.
        -14    1    6    6    0    0  0.77597854536E+02  0.94231091501E+02 -0.25779886080E+03  0.28523880919E+03  0.00000000000E+00 0.  1.
</event>
<event>
12    1  0.1348628E-002  0.1875066E+03  0.7818608E-02  0.1160730E+00
          2   -1    0    0  502    0  0.00000000000E+00  0.00000000000E+00  0.68262440059E+02  0.68262440059E+02  0.00000000000E+00 0. -1.
         -2   -1    0    0    0  501 -0.00000000000E+00 -0.00000000000E+00 -0.57718792830E+03  0.57718792830E+03  0.00000000000E+00 0.  1.
          6    2    1    2  502    0 -0.60720193925E+02  0.43447917286E+02 -0.36103134877E+03  0.40708151076E+03  0.17261824395E+03 0.  0.
         24    2    3    3    0    0 -0.54816680571E+02  0.13777052340E+02 -0.83363711738E+02  0.12773116021E+03  0.78556127801E+02 0.  0.
         -6    2    1    2    0  501  0.60720193925E+02 -0.43447917286E+02 -0.14789413947E+03  0.23836885759E+03  0.17138369909E+03 0.  0.
        -24    2    5    5    0    0 -0.27009250660E+02 -0.74226717243E+00 -0.43200470442E+02  0.95179883391E+02  0.80392033026E+02 0.  0.
          5    1    3    3  502    0 -0.59035133545E+01  0.29670864946E+02 -0.27766763703E+03  0.27935035055E+03  0.47000000000E+01 0. -1.
        -11    1    4    4    0    0  0.81441434156E+01  0.30462269043E+02 -0.30086138454E+02  0.43582710268E+02  0.00000000000E+00 0.  1.
         12    1    4    4    0    0 -0.62960823986E+02 -0.16685216703E+02 -0.53277573284E+02  0.84148449947E+02  0.00000000000E+00 0. -1.
         -5    1    5    5    0  501  0.87729444585E+02 -0.42705650114E+02 -0.10469366903E+03  0.14318897420E+03  0.47000000000E+01 0.  1.
         13    1    6    6    0    0  0.10747730088E+02  0.31976691478E+02 -0.99712801060E+01  0.35177392269E+02  0.00000000000E+00 0. -1.
        -14    1    6    6    0    0 -0.37756980748E+02 -0.32718958650E+02 -0.33229190336E+02  0.60002491121E+02  0.00000000000E+00 0.  1.
</event>
<event>
12    1  0.1348628E-002  0.1748725E+03  0.7818608E-02  0.1172860E+00
          2   -1    0    0  502    0  0.00000000000E+00  0.00000000000E+00  0.32702350937E+03  0.32702350937E+03  0.00000000000E+00 0. -1.
         -2   -1    0    0    0  501 -0.00000000000E+00 -0.00000000000E+00 -0.10549768836E+03  0.10549768836E+03  0.00000000000E+00 0.  1.
          6    2    1    2  502    0  0.13255088629E+02 -0.16870635583E+02  0.18399510344E+03  0.25425887092E+03  0.17416388727E+03 0.  0.
         24    2    3    3    0    0 -0.54486209124E+02 -0.42912688674E+01  0.72576901288E+02  0.12317405235E+03  0.83170178536E+02 0.  0.
         -6    2    1    2    0  501 -0.13255088629E+02  0.16870635583E+02  0.37530717564E+02  0.17826232681E+03  0.17294099190E+03 0.  0.
        -24    2    5    5    0    0 -0.77031456932E+01  0.13108897792E+01  0.93487923645E+02  0.11972833094E+03  0.74389679909E+02 0.  0.
          5    1    3    3  502    0  0.67741297754E+02 -0.12579366716E+02  0.11141820215E+03  0.13108481857E+03  0.47000000000E+01 0. -1.
        -13    1    4    4    0    0 -0.50195650538E+02 -0.37828795411E+02  0.60585752127E+02  0.87299796426E+02  0.00000000000E+00 0.  1.
         14    1    4    4    0    0 -0.42905585859E+01  0.33537526544E+02  0.11991149161E+02  0.35874255920E+02  0.00000000000E+00 0. -1.
         -5    1    5    5    0  501 -0.55519429363E+01  0.15559745804E+02 -0.55957206081E+02  0.58533995868E+02  0.47000000000E+01 0.  1.
         13    1    6    6    0    0 -0.40890817101E+02  0.47349599502E+01  0.56664860169E+02  0.70038454772E+02  0.00000000000E+00 0. -1.
        -14    1    6    6    0    0  0.33187671407E+02 -0.34240701710E+01  0.36823063476E+02  0.49689876170E+02  0.00000000000E+00 0.  1.
</event>
<event>
12    1  0.1348628E-002  0.1673323E+03  0.7818608E-02  0.1180659E+00
          2   -1    0    0  502    0  0.00000000000E+00  0.00000000000E+00  0.70958871413E+03  0.70958871413E+03  0.00000000000E+00 0.  1.
         -2   -1    0    0    0  501 -0.00000000000E+00 -0.00000000000E+00 -0.40355763594E+02  0.40355763594E+02  0.00000000000E+00 0. -1.
          6    2    1    2  502    0 -0.44857791917E+01  0.21611900367E+01  0.39571144218E+03  0.43076679398E+03  0.17014021385E+03 0.  0.
         24    2    3    3    0    0  0.29793874666E+02  0.56273160958E+02  0.28545335063E+03  0.30316531743E+03  0.79820114614E+02 0.  0.
         -6    2    1    2    0  501  0.44857791917E+01 -0.21611900367E+01  0.27352150836E+03  0.31917768374E+03  0.16442501424E+03 0.  0.
        -24    2    5    5    0    0  0.98056462444E+01  0.36851310101E+02  0.74573705784E+02  0.11631666161E+03  0.80710336504E+02 0.  0.
          5    1    3    3  502    0 -0.34279653858E+02 -0.54111970921E+02  0.11025809155E+03  0.12760147655E+03  0.47000000000E+01 0. -1.
        -13    1    4    4    0    0 -0.67715208956E+01  0.33452392373E+02  0.34473432844E+02  0.48511170082E+02  0.00000000000E+00 0.  1.
         14    1    4    4    0    0  0.36565395562E+02  0.22820768585E+02  0.25097991778E+03  0.25465414735E+03  0.00000000000E+00 0. -1.
         -5    1    5    5    0  501 -0.53198670527E+01 -0.39012500137E+02  0.19894780258E+03  0.20286102214E+03  0.47000000000E+01 0.  1.
         13    1    6    6    0    0  0.41903665991E+02  0.38085347525E+02  0.53482018964E+02  0.77889262880E+02  0.00000000000E+00 0. -1.
        -14    1    6    6    0    0 -0.32098019746E+02 -0.12340374245E+01  0.21091686820E+02  0.38427398727E+02  0.00000000000E+00 0.  1.
</event>
<event>
12    1  0.1348628E-002  0.2089596E+03  0.7818608E-02  0.1142393E+00
          2   -1    0    0  502    0  0.00000000000E+00  0.00000000000E+00  0.28608469174E+03  0.28608469174E+03  0.00000000000E+00 0. -1.
         -2   -1    0    0    0  501 -0.00000000000E+00 -0.00000000000E+00 -0.16387989665E+03  0.16387989665E+03  0.00000000000E+00 0.  1.
          6    2    1    2  502    0 -0.84015606164E+02 -0.83484361864E+02  0.11999928860E+03  0.24077828857E+03  0.17188977347E+03 0.  0.
         24    2    3    3    0    0 -0.51262609641E+02 -0.40809129849E+02  0.14617184375E+03  0.18076973208E+03  0.83774983755E+02 0.  0.
         -6    2    1    2    0  501  0.84015606164E+02  0.83484361864E+02  0.22055064825E+01  0.20918629982E+03  0.17241166729E+03 0.  0.
        -24    2    5    5    0    0  0.51789918150E+02  0.10426721007E+02 -0.56942649127E+02  0.10970510478E+03  0.77471495347E+02 0.  0.
          5    1    3    3  502    0 -0.32752996523E+02 -0.42675232015E+02 -0.26172555150E+02  0.60008556489E+02  0.47000000000E+01 0. -1.
        -13    1    4    4    0    0  0.79268540854E+01  0.19834361750E+02  0.24614062746E+02  0.32589707065E+02  0.00000000000E+00 0.  1.
         14    1    4    4    0    0 -0.59189463726E+02 -0.60643491598E+02  0.12155778101E+03  0.14818002501E+03  0.00000000000E+00 0. -1.
         -5    1    5    5    0  501  0.32225688014E+02  0.73057640857E+02  0.59148155610E+02  0.99481195045E+02  0.47000000000E+01 0.  1.
         11    1    6    6    0    0  0.36103173993E+02 -0.55965166272E+01 -0.73333083723E+02  0.81929856213E+02  0.00000000000E+00 0. -1.
        -12    1    6    6    0    0  0.15686744157E+02  0.16023237634E+02  0.16390434595E+02  0.27775248563E+02  0.00000000000E+00 0.  1.
</event>
<event>
12    1  0.1348628E-002  0.1992302E+03  0.7818608E-02  0.1150390E+00
          2   -1    0    0  502    0  0.00000000000E+00  0.00000000000E+00  0.30504177968E+03  0.30504177968E+03  0.00000000000E+00 0.  1.
         -2   -1    0    0    0  501 -0.00000000000E+00 -0.00000000000E+00 -0.13015235309E+03  0.13015235309E+03  0.00000000000E+00 0. -1.
          6    2    1    2  502    0 -0.12580584632E+02  0.10028793815E+03  0.84103511836E+02  0.21620274759E+03  0.17162250934E+03 0.  0.
         24    2    3    3    0    0 -0.60858389453E+02  0.63125775389E+02  0.82890630389E+01  0.11882876017E+03  0.79768155248E+02 0.  0.
         -6    2    1    2    0  501  0.12580584632E+02 -0.10028793815E+03  0.90785914757E+02  0.21899138519E+03  0.17175331968E+03 0.  0.
        -24    2    5    5    0    0 -0.10479049340E+02 -0.10148156384E+03  0.38655072905E+01  0.12893352215E+03  0.78743842375E+02 0.  0.
          5    1    3    3  502    0  0.48277804821E+02  0.37162162758E+02  0.75814448797E+02  0.97373987418E+02  0.47000000000E+01 0. -1.
        -13    1    4    4    0    0  0.17107287595E+02  0.36932516049E+01  0.11150952278E+02  0.20751942872E+02  0.00000000000E+00 0.  1.
         14    1    4    4    0    0 -0.77965677048E+02  0.59432523784E+02 -0.28618892389E+01  0.98076817296E+02  0.00000000000E+00 0. -1.
         -5    1    5    5    0  501  0.23059633972E+02  0.11936256947E+01  0.86920407466E+02  0.90057863040E+02  0.47000000000E+01 0.  1.
         11    1    6    6    0    0  0.15213266546E+01 -0.91537131954E+02  0.31824983190E+02  0.96923632393E+02  0.00000000000E+00 0. -1.
        -12    1    6    6    0    0 -0.12000375995E+02 -0.99444318877E+01 -0.27959475899E+02  0.32009889755E+02  0.00000000000E+00 0.  1.
</event>
<event>
12    1  0.1348628E-002  0.2115274E+03  0.7818608E-02  0.1140362E+00
          2   -1    0    0  502    0  0.00000000000E+00  0.00000000000E+00  0.13188481753E+04  0.13188481753E+04  0.00000000000E+00 0.  1.
         -2   -1    0    0    0  501 -0.00000000000E+00 -0.00000000000E+00 -0.42484250510E+02  0.42484250510E+02  0.00000000000E+00 0. -1.
          6    2    1    2  502    0 -0.70381206268E+02  0.10127835348E+03  0.94274903136E+03  0.96610439923E+03  0.17138014762E+03 0.  0.
         24    2    3    3    0    0 -0.78656896239E+02  0.73391875563E+01  0.55218548661E+03  0.56428973247E+03  0.85283758957E+02 0.  0.
         -6    2    1    2    0  501  0.70381206268E+02 -0.10127835348E+03  0.33361489338E+03  0.39522802653E+03  0.17232375574E+03 0.  0.
        -24    2    5    5    0    0  0.79448310628E+02 -0.37223600292E+02  0.10736319843E+03  0.15986204926E+03  0.79570019088E+02 0.  0.
          5    1    3    3  502    0  0.82756899708E+01  0.93939165924E+02  0.39056354475E+03  0.40181466676E+03  0.47000000000E+01 0. -1.
        -13    1    4    4    0    0 -0.11751340396E+02  0.40071061652E+02  0.19512312295E+03  0.19954151721E+03  0.00000000000E+00 0.  1.
         14    1    4    4    0    0 -0.66905555843E+02 -0.32731874096E+02  0.35706236367E+03  0.36474821526E+03  0.00000000000E+00 0. -1.
         -5    1    5    5    0  501 -0.90671043597E+01 -0.64054753189E+02  0.22625169495E+03  0.23536597727E+03  0.47000000000E+01 0.  1.
         11    1    6    6    0    0  0.67009852147E+02 -0.59736745380E+02  0.67067950293E+02  0.11205761460E+03  0.00000000000E+00 0. -1.
        -12    1    6    6    0    0  0.12438458481E+02  0.22513145088E+02  0.40295248138E+02  0.47804434665E+02  0.00000000000E+00 0.  1.
</event>
<event>
12    1  0.1348628E-002  0.1872549E+03  0.7818608E-02  0.1160961E+00
          2   -1    0    0  502    0  0.00000000000E+00  0.00000000000E+00  0.30196701678E+04  0.30196701678E+04  0.00000000000E+00 0.  1.
         -2   -1    0    0    0  501 -0.00000000000E+00 -0.00000000000E+00 -0.11628908919E+02  0.11628908919E+02  0.00000000000E+00 0. -1.
          6    2    1    2  502    0 -0.51548586076E+02 -0.57162097866E+02  0.14402025095E+04  0.14522228037E+04  0.16983239117E+03 0.  0.
         24    2    3    3    0    0 -0.29148951264E+02  0.34303716946E+02  0.65588344950E+03  0.66225684445E+03  0.79841232028E+02 0.  0.
         -6    2    1    2    0  501  0.51548586076E+02  0.57162097866E+02  0.15678387494E+04  0.15790762731E+04  0.17157729965E+03 0.  0.
        -24    2    5    5    0    0 -0.61306205031E+01 -0.29020452302E+02  0.71882516505E+03  0.72373980167E+03  0.78802991371E+02 0.  0.
          5    1    3    3  502    0 -0.22399634813E+02 -0.91465814813E+02  0.78431906000E+03  0.78996595926E+03  0.47000000000E+01 0. -1.
        -13    1    4    4    0    0 -0.22671983610E+02 -0.17725845546E+02  0.40128840435E+03  0.40231903747E+03  0.00000000000E+00 0.  1.
         14    1    4    4    0    0 -0.64769676533E+01  0.52029562493E+02  0.25459504515E+03  0.25993780698E+03  0.00000000000E+00 0. -1.
         -5    1    5    5    0  501  0.57679206579E+02  0.86182550169E+02  0.84901358438E+03  0.85533647139E+03  0.47000000000E+01 0.  1.
         13    1    6    6    0    0  0.27975794235E+02  0.74413769445E+01  0.15287917104E+03  0.15559582287E+03  0.00000000000E+00 0. -1.
        -14    1    6    6    0    0 -0.34106414738E+02 -0.36461829247E+02  0.56594599400E+03  0.56814397880E+03  0.00000000000E+00 0.  1.
</event>
<event>
12    1  0.1348628E-002  0.1728834E+03  0.7818608E-02  0.1174874E+00
         -1   -1    0    0    0  501 -0.00000000000E+00  0.00000000000E+00  0.54986984982E+02  0.54986984982E+02  0.00000000000E+00 0. -1.
          1   -1    0    0  502    0  0.00000000000E+00 -0.00000000000E+00 -0.60119051027E+03  0.60119051027E+03  0.00000000000E+00 0.  1.
          6    2    1    2  502    0 -0.13740269740E+02  0.18024013264E+02 -0.17237518399E+03  0.24455684008E+03  0.17199181348E+03 0.  0.
         24    2    3    3    0    0 -0.28942298614E+02 -0.33818150528E+02 -0.16707307105E+03  0.19006909806E+03  0.78940021618E+02 0.  0.
         -6    2    1    2    0  501  0.13740269740E+02 -0.18024013264E+02 -0.37382834129E+03  0.41162065517E+03  0.17079307639E+03 0.  0.
        -24    2    5    5    0    0  0.39413792236E+00  0.17873360345E+02 -0.77942403545E+02  0.11322943743E+03  0.80164049776E+02 0.  0.
          5    1    3    3  502    0  0.15202028874E+02  0.51842163792E+02 -0.53021129436E+01  0.54487742017E+02  0.47000000000E+01 0. -1.
        -11    1    4    4    0    0 -0.50393303149E+02 -0.34097827603E+01 -0.11900299991E+03  0.12927809407E+03  0.00000000000E+00 0.  1.
         12    1    4    4    0    0  0.21451004535E+02 -0.30408367767E+02 -0.48070071142E+02  0.60791003984E+02  0.00000000000E+00 0. -1.
         -5    1    5    5    0  501  0.13346131818E+02 -0.35897373609E+02 -0.29588593775E+03  0.29839121774E+03  0.47000000000E+01 0.  1.
         11    1    6    6    0    0 -0.14763789149E+02 -0.27973238828E+02 -0.18490755360E+02  0.36638498800E+02  0.00000000000E+00 0. -1.
        -12    1    6    6    0    0  0.15157927071E+02  0.45846599173E+02 -0.59451648185E+02  0.76590938633E+02  0.00000000000E+00 0.  1.
</event>
<event>
12    1  0.1348628E-002  0.1724855E+03  0.7818608E-02  0.1175280E+00
         -1   -1    0    0    0  501 -0.00000000000E+00  0.00000000000E+00  0.44677903659E+02  0.44677903659E+02  0.00000000000E+00 0.  1.
          1   -1    0    0  502    0  0.00000000000E+00 -0.00000000000E+00 -0.67599836108E+03  0.67599836108E+03  0.00000000000E+00 0. -1.
          6    2    1    2  502    0 -0.13177856903E+02  0.29222874654E+01 -0.26903245377E+03  0.31877202212E+03  0.17045511207E+03 0.  0.
         24    2    3    3    0    0 -0.76793534324E+01  0.56689616093E+02 -0.97226773130E+02  0.13860420849E+03  0.80531957365E+02 0.  0.
         -6    2    1    2    0  501  0.13177856903E+02 -0.29222874654E+01 -0.36228800366E+03  0.40190424262E+03  0.17347111277E+03 0.  0.
        -24    2    5    5    0    0  0.26479649039E+02 -0.24603294839E+02 -0.36549647272E+03  0.37583916966E+03  0.79755350589E+02 0.  0.
          5    1    3    3  502    0 -0.54985034704E+01 -0.53767328627E+02 -0.17180568064E+03  0.18016781363E+03  0.47000000000E+01 0. -1.
        -13    1    4    4    0    0 -0.30625047289E+02  0.24340983641E+02 -0.90211176639E+02  0.98328192278E+02  0.00000000000E+00 0.  1.
         14    1    4    4    0    0  0.22945693857E+02  0.32348632452E+02 -0.70155964907E+01  0.40276016216E+02  0.00000000000E+00 0. -1.
         -5    1    5    5    0  501 -0.13301792136E+02  0.21681007374E+02  0.32084690654E+01  0.26065072962E+02  0.47000000000E+01 0.  1.
         13    1    6    6    0    0  0.16067340010E+02 -0.53861794429E+02 -0.22015959836E+03  0.22722126015E+03  0.00000000000E+00 0. -1.
        -14    1    6    6    0    0  0.10412309029E+02  0.29258499589E+02 -0.14533687436E+03  0.14861790951E+03  0.00000000000E+00 0.  1.
</event>
<event>
12    1  0.1348628E-002  0.1995002E+03  0.7818608E-02  0.1150161E+00
          4   -1    0    0  502    0  0.00000000000E+00  0.00000000000E+00  0.33349630775E+02  0.33349630775E+02  0.00000000000E+00 0.  1.
         -4   -1    0    0    0  501 -0.00000000000E+00 -0.00000000000E+00 -0.15932486336E+04  0.15932486336E+04  0.00000000000E+00 0. -1.
          6    2    1    2  502    0  0.17513779761E+02  0.81313106026E+02 -0.12136896970E+04  0.12316052832E+04  0.19206857976E+03 0.  0.
         24    2    3    3    0    0  0.74066411095E+02  0.15665497592E+01 -0.60398695823E+03  0.61409639015E+03  0.82618662231E+02 0.  0.
         -6    2    1    2    0  501 -0.17513779761E+02 -0.81313106026E+02 -0.34620930578E+03  0.39499298112E+03  0.17099712873E+03 0.  0.
        -24    2    5    5    0    0 -0.74100107471E+02 -0.36604184737E+02 -0.24430964099E+03  0.27006687572E+03  0.80113821608E+02 0.  0.
          5    1    3    3  502    0 -0.56552631335E+02  0.79746556267E+02 -0.60970273879E+03  0.61750889308E+03  0.47000000000E+01 0. -1.
        -11    1    4    4    0    0  0.70359069264E+02  0.25257081861E+02 -0.30031831326E+03  0.30948248430E+03  0.00000000000E+00 0.  1.
         12    1    4    4    0    0  0.37073418312E+01 -0.23690532101E+02 -0.30366864497E+03  0.30461390584E+03  0.00000000000E+00 0. -1.
         -5    1    5    5    0  501  0.56586327710E+02 -0.44708921289E+02 -0.10189966479E+03  0.12492610540E+03  0.47000000000E+01 0.  1.
         11    1    6    6    0    0 -0.52314677719E+01  0.21032956275E+02 -0.25027545780E+02  0.33107877499E+02  0.00000000000E+00 0. -1.
        -12    1    6    6    0    0 -0.68868639699E+02 -0.57637141012E+02 -0.21928209521E+03  0.23695899822E+03  0.00000000000E+00 0.  1.
</event>
<event>
12    1  0.1348628E-002  0.2225475E+03  0.7818608E-02  0.1131998E+00
          1   -1    0    0  502    0  0.00000000000E+00  0.00000000000E+00  0.21882810197E+04  0.21882810197E+04  0.00000000000E+00 0. -1.
         -1   -1    0    0    0  501 -0.00000000000E+00 -0.00000000000E+00 -0.36670907545E+02  0.36670907545E+02  0.00000000000E+00 0.  1.
          6    2    1    2  502    0 -0.89462444634E+02  0.10700690651E+03  0.17671157251E+04  0.17812013373E+04  0.17471751801E+03 0.  0.
         24    2    3    3    0    0 -0.12312509518E+03  0.47390374501E+02  0.12353675391E+04  0.12450432186E+04  0.81203589169E+02 0.  0.
         -6    2    1    2    0  501  0.89462444634E+02 -0.10700690651E+03  0.38449438703E+03  0.44375058991E+03  0.17211811453E+03 0.  0.
        -24    2    5    5    0    0  0.10113608234E+03 -0.16451781971E+02  0.21410245431E+03  0.25038046519E+03  0.79695345704E+02 0.  0.
          5    1    3    3  502    0  0.33662650546E+02  0.59616532005E+02  0.53174818603E+03  0.53615811872E+03  0.47000000000E+01 0. -1.
        -11    1    4    4    0    0 -0.16007718457E+02 -0.75799115855E+01  0.41519383697E+02  0.45139354586E+02  0.00000000000E+00 0.  1.
         12    1    4    4    0    0 -0.10711737672E+03  0.54970286086E+02  0.11938481554E+04  0.11999038640E+04  0.00000000000E+00 0. -1.
         -5    1    5    5    0  501 -0.11673637710E+02 -0.90555124535E+02  0.17039193273E+03  0.19337012472E+03  0.47000000000E+01 0.  1.
         11    1    6    6    0    0  0.43103378157E+01 -0.30231498838E+02  0.68281695654E+02  0.74799147692E+02  0.00000000000E+00 0. -1.
        -12    1    6    6    0    0  0.96825744529E+02  0.13779716866E+02  0.14582075865E+03  0.17558131750E+03  0.00000000000E+00 0.  1.
</event>
<event>
12    1  0.1348628E-002  0.2475995E+03  0.7818608E-02  0.1114831E+00
          2   -1    0    0  502    0  0.00000000000E+00  0.00000000000E+00  0.15687290843E+04  0.15687290843E+04  0.00000000000E+00 0. -1.
         -2   -1    0    0    0  501 -0.00000000000E+00 -0.00000000000E+00 -0.44690374860E+02  0.44690374860E+02  0.00000000000E+00 0.  1.
          6    2    1    2  502    0 -0.57173713173E+02  0.16904468782E+03  0.10472314442E+04  0.10760505665E+04  0.17130727975E+03 0.  0.
         24    2    3    3    0    0 -0.60583240119E+02  0.20714974814E+02  0.44220766812E+03  0.45308251901E+03  0.75078013584E+02 0.  0.
         -6    2    1    2    0  501  0.57173713173E+02 -0.16904468782E+03  0.47680726525E+03  0.53736889261E+03  0.17197447078E+03 0.  0.
        -24    2    5    5    0    0 -0.75788384745E+00 -0.12388310842E+03  0.41567093579E+03  0.44168514809E+03  0.83401704058E+02 0.  0.
          5    1    3    3  502    0  0.34095269455E+01  0.14832971300E+03  0.60502377604E+03  0.62296804750E+03  0.47000000000E+01 0. -1.
        -13    1    4    4    0    0 -0.48956572045E+02 -0.21290067053E+02  0.20099958317E+03  0.20796837581E+03  0.00000000000E+00 0.  1.
         14    1    4    4    0    0 -0.11626668073E+02  0.42005041867E+02  0.24120808495E+03  0.24511414320E+03  0.00000000000E+00 0. -1.
         -5    1    5    5    0  501  0.57931597020E+02 -0.45161579400E+02  0.61136329451E+02  0.95683744523E+02  0.47000000000E+01 0.  1.
         11    1    6    6    0    0  0.22186390983E+02 -0.11133594844E+02  0.15184326532E+03  0.15385892922E+03  0.00000000000E+00 0. -1.
        -12    1    6    6    0    0 -0.22944274830E+02 -0.11274951357E+03  0.26382767048E+03  0.28782621887E+03  0.00000000000E+00 0.  1.
</event>
<event>
12    1  0.1348628E-002  0.2054239E+03  0.7818608E-02  0.1145242E+00
          2   -1    0    0  502    0  0.00000000000E+00  0.00000000000E+00  0.10319006312E+04  0.10319006312E+04  0.00000000000E+00 0.  1.
         -2   -1    0    0    0  501 -0.00000000000E+00 -0.00000000000E+00 -0.40983708333E+02  0.40983708333E+02  0.00000000000E+00 0. -1.
          6    2    1    2  502    0  0.39210750359E+02  0.10084843769E+03  0.52469438201E+03  0.56419635612E+03  0.17693344347E+03 0.  0.
         24    2    3    3    0    0  0.71058589890E+02  0.51332058183E+02  0.46607649585E+03  0.48098395741E+03  0.80211993507E+02 0.  0.
         -6    2    1    2    0  501 -0.39210750359E+02 -0.10084843769E+03  0.46622254081E+03  0.50868798337E+03  0.17231400562E+03 0.  0.
        -24    2    5    5    0    0 -0.55804501344E+02 -0.12846442538E+03  0.30895883341E+03  0.34808923177E+03  0.78059602718E+02 0.  0.
          5    1    3    3  502    0 -0.31847839531E+02  0.49516379504E+02  0.58617886159E+02  0.83212398714E+02  0.47000000000E+01 0. -1.
        -13    1    4    4    0    0  0.71634592448E+01  0.49891732118E+02  0.14237759241E+03  0.15103601857E+03  0.00000000000E+00 0.  1.
         14    1    4    4    0    0  0.63895130645E+02  0.14403260643E+01  0.32369890344E+03  0.32994793884E+03  0.00000000000E+00 0. -1.
         -5    1    5    5    0  501  0.16593750985E+02  0.27615987691E+02  0.15726370740E+03  0.16059875160E+03  0.47000000000E+01 0.  1.
         11    1    6    6    0    0  0.18014821793E+02 -0.13692919695E+02  0.30360620405E+02  0.37865513668E+02  0.00000000000E+00 0. -1.
        -12    1    6    6    0    0 -0.73819323137E+02 -0.11477150568E+03  0.27859821300E+03  0.31022371810E+03  0.00000000000E+00 0.  1.
</event>
<event>
12    1  0.1348628E-002  0.3748095E+03  0.7818608E-02  0.1052869E+00
          2   -1    0    0  502    0  0.00000000000E+00  0.00000000000E+00  0.99837052004E+03  0.99837052004E+03  0.00000000000E+00 0. -1.
         -2   -1    0    0    0  501 -0.00000000000E+00 -0.00000000000E+00 -0.15224961165E+03  0.15224961165E+03  0.00000000000E+00 0.  1.
          6    2    1    2  502    0 -0.16786563808E+03 -0.28712058517E+03  0.26577540253E+03  0.46032573872E+03  0.17506032749E+03 0.  0.
         24    2    3    3    0    0 -0.14803343864E+03 -0.14605047310E+03  0.10583052145E+03  0.24608627542E+03  0.78190255332E+02 0.  0.
         -6    2    1    2    0  501  0.16786563808E+03  0.28712058517E+03  0.58034550586E+03  0.69029439297E+03  0.17055304133E+03 0.  0.
        -24    2    5    5    0    0  0.49331565620E+02  0.21240103166E+03  0.32670951308E+03  0.40048989879E+03  0.78136108669E+02 0.  0.
          5    1    3    3  502    0 -0.19832199444E+02 -0.14107011207E+03  0.15994488108E+03  0.21423946331E+03  0.47000000000E+01 0. -1.
        -13    1    4    4    0    0 -0.92958462121E+02 -0.38480036627E+02  0.38324079822E+02  0.10766022475E+03  0.00000000000E+00 0.  1.
         14    1    4    4    0    0 -0.55074976517E+02 -0.10757043648E+03  0.67506441629E+02  0.13842605067E+03  0.00000000000E+00 0. -1.
         -5    1    5    5    0  501  0.11853407246E+03  0.74719553516E+02  0.25363599278E+03  0.28980449418E+03  0.47000000000E+01 0.  1.
         11    1    6    6    0    0  0.30451715351E+02  0.14925118856E+03  0.28303373760E+03  0.32142078476E+03  0.00000000000E+00 0. -1.
        -12    1    6    6    0    0  0.18879850269E+02  0.63149843101E+02  0.43675775481E+02  0.79069114032E+02  0.00000000000E+00 0.  1.
</event>
<event>
12    1  0.1348628E-002  0.1822410E+03  0.7818608E-02  0.1165652E+00
          1   -1    0    0  502    0  0.00000000000E+00  0.00000000000E+00  0.80118968462E+03  0.80118968462E+03  0.00000000000E+00 0.  1.
         -1   -1    0    0    0  501 -0.00000000000E+00 -0.00000000000E+00 -0.48819137247E+02  0.48819137247E+02  0.00000000000E+00 0. -1.
          6    2    1    2  502    0  0.46084036973E+02  0.31205682031E+02  0.53889742889E+03  0.56845199084E+03  0.17213278005E+03 0.  0.
         24    2    3    3    0    0 -0.18654696327E+02 -0.18120640938E+02  0.38765999701E+03  0.39664093028E+03  0.79795983435E+02 0.  0.
         -6    2    1    2    0  501 -0.46084036973E+02 -0.31205682031E+02  0.21347311848E+03  0.28155683102E+03  0.17494554504E+03 0.  0.
        -24    2    5    5    0    0 -0.80488715247E+02 -0.36458250516E+02  0.76214503933E+02  0.13987659729E+03  0.77130892306E+02 0.  0.
          5    1    3    3  502    0  0.64738733299E+02  0.49326322969E+02  0.15123743189E+03  0.17181106056E+03  0.47000000000E+01 0. -1.
        -11    1    4    4    0    0 -0.14716942662E+02  0.29026212480E+02  0.22145315445E+03  0.22383165332E+03  0.00000000000E+00 0.  1.
         12    1    4    4    0    0 -0.39377536651E+01 -0.47146853418E+02  0.16620684256E+03  0.17280927696E+03  0.00000000000E+00 0. -1.
         -5    1    5    5    0  501  0.34404678275E+02  0.52525684853E+01  0.13725861454E+03  0.14168023373E+03  0.47000000000E+01 0.  1.
         11    1    6    6    0    0 -0.13717080089E+02  0.23602646457E+02  0.14545283644E+02  0.30932320997E+02  0.00000000000E+00 0. -1.
        -12    1    6    6    0    0 -0.66771635158E+02 -0.60060896973E+02  0.61669220289E+02  0.10894427630E+03  0.00000000000E+00 0.  1.
</event>
<event>
12    1  0.1348628E-002  0.2293287E+03  0.7818608E-02  0.1127113E+00
          1   -1    0    0  502    0  0.00000000000E+00  0.00000000000E+00  0.38750624834E+03  0.38750624834E+03  0.00000000000E+00 0.  1.
         -1   -1    0    0    0  501 -0.00000000000E+00 -0.00000000000E+00 -0.20937819200E+03  0.20937819200E+03  0.00000000000E+00 0. -1.
          6    2    1    2  502    0  0.14971521648E+03  0.22174339269E+02  0.26588267172E+03  0.35061786837E+03  0.17126864025E+03 0.  0.
         24    2    3    3    0    0  0.47911289489E+02 -0.86011978038E+01  0.21224033370E+03  0.23140896073E+03  0.78324169905E+02 0.  0.
         -6    2    1    2    0  501 -0.14971521648E+03 -0.22174339269E+02 -0.87754615387E+02  0.24626657197E+03  0.17332052556E+03 0.  0.
        -24    2    5    5    0    0 -0.15299178005E+03  0.26324436268E+02 -0.90765735330E+02  0.19733780803E+03  0.81267035498E+02 0.  0.
          5    1    3    3  502    0  0.10180392699E+03  0.30775537073E+02  0.53642338018E+02  0.11920890764E+03  0.47000000000E+01 0. -1.
        -11    1    4    4    0    0  0.66787034991E+02 -0.20312984424E+02  0.16723382933E+03  0.18121887057E+03  0.00000000000E+00 0.  1.
         12    1    4    4    0    0 -0.18875745502E+02  0.11711786620E+02  0.45006504372E+02  0.50190090156E+02  0.00000000000E+00 0. -1.
         -5    1    5    5    0  501  0.32765635715E+01 -0.48498775537E+02  0.30111199427E+01  0.48928763940E+02  0.47000000000E+01 0.  1.
         11    1    6    6    0    0 -0.86205626182E+02 -0.26374601961E+02 -0.47026307249E+02  0.10167843030E+03  0.00000000000E+00 0. -1.
        -12    1    6    6    0    0 -0.66786153872E+02  0.52699038229E+02 -0.43739428080E+02  0.95659377732E+02  0.00000000000E+00 0.  1.
</event>
<event>
12    1  0.1348628E-002  0.2000111E+03  0.7818608E-02  0.1149730E+00
          2   -1    0    0  502    0  0.00000000000E+00  0.00000000000E+00  0.26901732994E+04  0.26901732994E+04  0.00000000000E+00 0.  1.
         -2   -1    0    0    0  501 -0.00000000000E+00 -0.00000000000E+00 -0.16303268034E+02  0.16303268034E+02  0.00000000000E+00 0. -1.
          6    2    1    2  502    0  0.71250064963E+01 -0.94774832324E+02  0.96176122278E+03  0.98319115293E+03  0.18068524840E+03 0.  0.
         24    2    3    3    0    0  0.67361999458E+02 -0.88865825500E+02  0.40321419162E+03  0.42135462181E+03  0.50232052334E+02 0.  0.
         -6    2    1    2    0  501 -0.71250064963E+01  0.94774832324E+02  0.17121088086E+04  0.17232854145E+04  0.17135639135E+03 0.  0.
        -24    2    5    5    0    0 -0.20310851951E+02  0.10970408694E+03  0.16774795542E+04  0.16830607402E+04  0.79424700376E+02 0.  0.
          5    1    3    3  502    0 -0.60236992962E+02 -0.59090068245E+01  0.55854703116E+03  0.56183653112E+03  0.47000000000E+01 0. -1.
        -13    1    4    4    0    0  0.43269895195E+02 -0.35161582423E+02  0.27029969665E+03  0.27599012069E+03  0.00000000000E+00 0.  1.
         14    1    4    4    0    0  0.24092104263E+02 -0.53704243077E+02  0.13291449497E+03  0.14536450112E+03  0.00000000000E+00 0. -1.
         -5    1    5    5    0  501  0.13185845455E+02 -0.14929254611E+02  0.34629254332E+02  0.40224674258E+02  0.47000000000E+01 0.  1.
         11    1    6    6    0    0  0.11327837882E+02  0.22025137952E+02  0.10748925841E+03  0.11030578991E+03  0.00000000000E+00 0. -1.
        -12    1    6    6    0    0 -0.31638689834E+02  0.87678948983E+02  0.15699902958E+04  0.15727549503E+04  0.00000000000E+00 0.  1.
</event>
<event>
12    1  0.1348628E-002  0.2973534E+03  0.7818608E-02  0.1086571E+00
         -1   -1    0    0    0  501 -0.00000000000E+00  0.00000000000E+00  0.46837017304E+03  0.46837017304E+03  0.00000000000E+00 0.  1.
          1   -1    0    0  502    0  0.00000000000E+00 -0.00000000000E+00 -0.78949755544E+03  0.78949755544E+03  0.00000000000E+00 0. -1.
          6    2    1    2  502    0  0.14128175159E+03  0.19728071555E+03 -0.70914875633E+03  0.76888961196E+03  0.17151986100E+03 0.  0.
         24    2    3    3    0    0  0.19074971910E+02  0.14064658336E+03 -0.37605039081E+03  0.40955893829E+03  0.78608597114E+02 0.  0.
         -6    2    1    2    0  501 -0.14128175159E+03 -0.19728071555E+03  0.38802137393E+03  0.48897811652E+03  0.17221729806E+03 0.  0.
        -24    2    5    5    0    0 -0.66969500137E+02 -0.68045429553E+02  0.83095173031E+02  0.14952834431E+03  0.79616729015E+02 0.  0.
          5    1    3    3  502    0  0.12220677968E+03  0.56634132189E+02 -0.33309836551E+03  0.35933067366E+03  0.47000000000E+01 0. -1.
        -13    1    4    4    0    0  0.25664972383E+02  0.94171511521E+02 -0.15197222739E+03  0.18061705979E+03  0.00000000000E+00 0.  1.
         14    1    4    4    0    0 -0.65900004721E+01  0.46475071840E+02 -0.22407816343E+03  0.22894187851E+03  0.00000000000E+00 0. -1.
         -5    1    5    5    0  501 -0.74312251456E+02 -0.12923528600E+03  0.30492620090E+03  0.33944977221E+03  0.47000000000E+01 0.  1.
         13    1    6    6    0    0 -0.14659781394E+02 -0.67134114482E+02  0.63795552729E+02  0.93764444571E+02  0.00000000000E+00 0. -1.
        -14    1    6    6    0    0 -0.52309718743E+02 -0.91131507163E+00  0.19299620302E+02  0.55763899738E+02  0.00000000000E+00 0.  1.
</event>
<event>
12    1  0.1348628E-002  0.1793530E+03  0.7818608E-02  0.1168431E+00
          2   -1    0    0  502    0  0.00000000000E+00  0.00000000000E+00  0.38342309049E+03  0.38342309049E+03  0.00000000000E+00 0. -1.
         -2   -1    0    0    0  501 -0.00000000000E+00 -0.00000000000E+00 -0.10623254261E+03  0.10623254261E+03  0.00000000000E+00 0.  1.
          6    2    1    2  502    0  0.25815456563E+02  0.44848845093E+02  0.26211006941E+02  0.18106423642E+03  0.17152079793E+03 0.  0.
         24    2    3    3    0    0  0.92058370597E+00 -0.35773907263E+02 -0.34891029995E+01  0.91487624397E+02  0.84126046280E+02 0.  0.
         -6    2    1    2    0  501 -0.25815456563E+02 -0.44848845093E+02  0.25097954094E+03  0.30859139668E+03  0.17193040286E+03 0.  0.
        -24    2    5    5    0    0  0.32715673355E+02  0.13165549348E+02  0.77916165557E+02  0.11685046461E+03  0.79620696122E+02 0.  0.
          5    1    3    3  502    0  0.24894872857E+02  0.80622752355E+02  0.29700109940E+02  0.89576612028E+02  0.47000000000E+01 0. -1.
        -11    1    4    4    0    0  0.54964622485E+01 -0.65794140630E+01 -0.42044743356E+02  0.42909908302E+02  0.00000000000E+00 0.  1.
         12    1    4    4    0    0 -0.45758785425E+01 -0.29194493200E+02  0.38555640356E+02  0.48577716094E+02  0.00000000000E+00 0. -1.
         -5    1    5    5    0  501 -0.58531129918E+02 -0.58014394441E+02  0.17306337539E+03  0.19174093207E+03  0.47000000000E+01 0.  1.
         13    1    6    6    0    0  0.33508987671E+02 -0.11465041385E+02  0.84262723169E+02  0.91402986519E+02  0.00000000000E+00 0. -1.
        -14    1    6    6    0    0 -0.79331431565E+00  0.24630590733E+02 -0.63465576122E+01  0.25447478087E+02  0.00000000000E+00 0.  1.
</event>
<event>
12    1  0.1348628E-002  0.1942290E+03  0.7818608E-02  0.1154701E+00
         -3   -1    0    0    0  501 -0.00000000000E+00  0.00000000000E+00  0.32891705837E+03  0.32891705837E+03  0.00000000000E+00 0. -1.
          3   -1    0    0  502    0  0.00000000000E+00 -0.00000000000E+00 -0.12015093674E+03  0.12015093674E+03  0.00000000000E+00 0.  1.
          6    2    1    2  502    0  0.65445868499E+02 -0.64294652753E+02  0.15258886280E+03  0.24755615586E+03  0.17199920109E+03 0.  0.
         24    2    3    3    0    0  0.31168934450E+02 -0.68238366489E+02  0.17469760676E+03  0.20630876024E+03  0.80100397061E+02 0.  0.
         -6    2    1    2    0  501 -0.65445868499E+02  0.64294652753E+02  0.56177258837E+02  0.20151183925E+03  0.17039416913E+03 0.  0.
        -24    2    5    5    0    0 -0.26425749980E+02 -0.10917431196E+02 -0.19379615374E+02  0.87888080903E+02  0.80816054759E+02 0.  0.
          5    1    3    3  502    0  0.34276934049E+02  0.39437137364E+01 -0.22108743957E+02  0.41247395617E+02  0.47000000000E+01 0. -1.
        -11    1    4    4    0    0 -0.25823482357E+02 -0.85963732559E+01  0.45597355611E+02  0.53102436035E+02  0.00000000000E+00 0.  1.
         12    1    4    4    0    0  0.56992416807E+02 -0.59641993233E+02  0.12910025115E+03  0.15320632420E+03  0.00000000000E+00 0. -1.
         -5    1    5    5    0  501 -0.39020118519E+02  0.75212083949E+02  0.75556874211E+02  0.11362375835E+03  0.47000000000E+01 0.  1.
         13    1    6    6    0    0 -0.52924202692E+02  0.33117274030E+01 -0.18171902061E+01  0.53058844213E+02  0.00000000000E+00 0. -1.
        -14    1    6    6    0    0  0.26498452713E+02 -0.14229158599E+02 -0.17562425167E+02  0.34829236689E+02  0.00000000000E+00 0.  1.
</event>
<event>
12    1  0.1348628E-002  0.1834638E+03  0.7818608E-02  0.1164492E+00
          1   -1    0    0  502    0  0.00000000000E+00  0.00000000000E+00  0.10938403687E+03  0.10938403687E+03  0.00000000000E+00 0. -1.
         -1   -1    0    0    0  501 -0.00000000000E+00 -0.00000000000E+00 -0.31718758651E+03  0.31718758651E+03  0.00000000000E+00 0.  1.
          6    2    1    2  502    0 -0.53502254524E+02  0.27460748428E+02 -0.13920464138E+03  0.22823973581E+03  0.17058388224E+03 0.  0.
         24    2    3    3    0    0 -0.99722524032E+02 -0.64849956810E+01 -0.10952403050E+03  0.16349673991E+03  0.68913233386E+02 0.  0.
         -6    2    1    2    0  501  0.53502254524E+02 -0.27460748428E+02 -0.68598908268E+02  0.19833188757E+03  0.17610548960E+03 0.  0.
        -24    2    5    5    0    0  0.22540309356E+02 -0.50476357631E+02  0.21776192870E+02  0.99954505910E+02  0.80378930388E+02 0.  0.
          5    1    3    3  502    0  0.46220269508E+02  0.33945744109E+02 -0.29680610880E+02  0.64742995905E+02  0.47000000000E+01 0. -1.
        -13    1    4    4    0    0 -0.68822112340E+02  0.28298821788E+02 -0.60446333234E+02  0.95870045702E+02  0.00000000000E+00 0.  1.
         14    1    4    4    0    0 -0.30900411692E+02 -0.34783817469E+02 -0.49077697262E+02  0.67626694205E+02  0.00000000000E+00 0. -1.
         -5    1    5    5    0  501  0.30961945168E+02  0.23015609203E+02 -0.90375101138E+02  0.98377381655E+02  0.47000000000E+01 0.  1.
         11    1    6    6    0    0 -0.21891635868E+02 -0.20300257773E+02  0.33610776322E+02  0.44955850249E+02  0.00000000000E+00 0. -1.
        -12    1    6    6    0    0  0.44431945224E+02 -0.30176099858E+02 -0.11834583452E+02  0.54998655661E+02  0.00000000000E+00 0.  1.
</event>
<event>
12    1  0.1348628E-002  0.3741655E+03  0.7818608E-02  0.1053112E+00
          1   -1    0    0  502    0  0.00000000000E+00  0.00000000000E+00  0.14852942770E+04  0.14852942770E+04  0.00000000000E+00 0. -1.
         -1   -1    0    0    0  501 -0.00000000000E+00 -0.00000000000E+00 -0.11535226756E+03  0.11535226756E+03  0.00000000000E+00 0.  1.
          6    2    1    2  502    0 -0.32914107362E+03  0.41593252785E+02  0.10270211860E+04  0.10930110169E+04  0.17273309333E+03 0.  0.
         24    2    3    3    0    0 -0.94376998480E+02 -0.25657606947E+02  0.28436812572E+03  0.31122299763E+03  0.80182246748E+02 0.  0.
         -6    2    1    2    0  501  0.32914107362E+03 -0.41593252785E+02  0.34292082345E+03  0.50763552768E+03  0.17330693232E+03 0.  0.
        -24    2    5    5    0    0  0.17924911915E+03 -0.29405455215E+02  0.10141076745E+03  0.22309144046E+03  0.80565001952E+02 0.  0.
          5    1    3    3  502    0 -0.23476407514E+03  0.67250859732E+02  0.74265306032E+03  0.78178801929E+03  0.47000000000E+01 0. -1.
        -13    1    4    4    0    0 -0.13673949280E+02 -0.21755496848E+02  0.16557271702E+03  0.16755477658E+03  0.00000000000E+00 0.  1.
         14    1    4    4    0    0 -0.80703049200E+02 -0.39021100987E+01  0.11879540870E+03  0.14366822106E+03  0.00000000000E+00 0. -1.
         -5    1    5    5    0  501  0.14989195447E+03 -0.12187797570E+02  0.24151005600E+03  0.28454408722E+03  0.47000000000E+01 0.  1.
         11    1    6    6    0    0  0.11133455039E+02 -0.10417161006E+02 -0.12007524425E+02  0.19407516774E+02  0.00000000000E+00 0. -1.
        -12    1    6    6    0    0  0.16811566411E+03 -0.18988294209E+02  0.11341829188E+03  0.20368392368E+03  0.00000000000E+00 0.  1.
</event>
<event>
12    1  0.1348628E-002  0.4254804E+03  0.7818608E-02  0.1035297E+00
          1   -1    0    0  502    0  0.00000000000E+00  0.00000000000E+00  0.20056520757E+03  0.20056520757E+03  0.00000000000E+00 0. -1.
         -1   -1    0    0    0  501 -0.00000000000E+00 -0.00000000000E+00 -0.13784338808E+04  0.13784338808E+04  0.00000000000E+00 0.  1.
          6    2    1    2  502    0 -0.23074444479E+03  0.31231194662E+03 -0.10519635658E+04  0.11344131728E+04  0.17170949897E+03 0.  0.
         24    2    3    3    0    0 -0.23615582290E+03  0.31331239950E+03 -0.10526422370E+04  0.11271444375E+04  0.92003649346E+02 0.  0.
         -6    2    1    2    0  501  0.23074444479E+03 -0.31231194662E+03 -0.12590510743E+03  0.44458591558E+03  0.17613287442E+03 0.  0.
        -24    2    5    5    0    0  0.19468891739E+03 -0.31943643432E+03 -0.89674313978E+02  0.39276391470E+03  0.79237617152E+02 0.  0.
          5    1    3    3  502    0  0.54113781094E+01 -0.10004528823E+01  0.67867114799E+00  0.72687353466E+01  0.47000000000E+01 0. -1.
        -11    1    4    4    0    0 -0.17340521220E+03  0.16563206147E+03 -0.56503594218E+03  0.61381508890E+03  0.00000000000E+00 0.  1.
         12    1    4    4    0    0 -0.62750610704E+02  0.14768033804E+03 -0.48760629481E+03  0.51332934859E+03  0.00000000000E+00 0. -1.
         -5    1    5    5    0  501  0.36055527402E+02  0.71244877028E+01 -0.36230793455E+02  0.51822000885E+02  0.47000000000E+01 0.  1.
         13    1    6    6    0    0  0.52220418143E+02 -0.53581571210E+02 -0.46435559395E+02  0.88058037797E+02  0.00000000000E+00 0. -1.
        -14    1    6    6    0    0  0.14246849925E+03 -0.26585486311E+03 -0.43238754584E+02  0.30470587690E+03  0.00000000000E+00 0.  1.
</event>
<event>
12    1  0.1348628E-002  0.1761440E+03  0.7818608E-02  0.1171588E+00
         -2   -1    0    0    0  501 -0.00000000000E+00  0.00000000000E+00  0.13453892143E+02  0.13453892143E+02  0.00000000000E+00 0. -1.
          2   -1    0    0  502    0  0.00000000000E+00 -0.00000000000E+00 -0.26332419962E+04  0.26332419962E+04  0.00000000000E+00 0.  1.
          6    2    1    2  502    0 -0.30163232626E+02 -0.31959044158E+02 -0.17776520802E+04  0.17863781872E+04  0.17078907566E+03 0.  0.
         24    2    3    3    0    0 -0.13059298291E+02 -0.71940504081E+01 -0.41608649476E+03  0.42447188244E+03  0.82620265251E+02 0.  0.
         -6    2    1    2    0  501  0.30163232626E+02  0.31959044158E+02 -0.84213602383E+03  0.86031770111E+03  0.17035921787E+03 0.  0.
        -24    2    5    5    0    0 -0.42017646207E+02 -0.27584581330E+01 -0.55521950143E+03  0.56239394399E+03  0.79026336009E+02 0.  0.
          5    1    3    3  502    0 -0.17103934335E+02 -0.24764993750E+02 -0.13615655855E+04  0.13619063048E+04  0.47000000000E+01 0. -1.
        -11    1    4    4    0    0 -0.38361937401E+02 -0.29483530343E+02 -0.19992961333E+03  0.20570067353E+03  0.00000000000E+00 0.  1.
         12    1    4    4    0    0  0.25302639110E+02  0.22289479935E+02 -0.21615688143E+03  0.21877120892E+03  0.00000000000E+00 0. -1.
         -5    1    5    5    0  501  0.72180878833E+02  0.34717502291E+02 -0.28691652240E+03  0.29792375712E+03  0.47000000000E+01 0.  1.
         11    1    6    6    0    0 -0.28682220496E+02  0.15543950416E+02 -0.51656839457E+03  0.51759751780E+03  0.00000000000E+00 0. -1.
        -12    1    6    6    0    0 -0.13335425711E+02 -0.18302408549E+02 -0.38651106865E+02  0.44796426191E+02  0.00000000000E+00 0.  1.
</event>
<event>
12    1  0.1348628E-002  0.1987422E+03  0.7818608E-02  0.1150805E+00
         -1   -1    0    0    0  501 -0.00000000000E+00  0.00000000000E+00  0.36436882559E+02  0.36436882559E+02  0.00000000000E+00 0. -1.
          1   -1    0    0  502    0  0.00000000000E+00 -0.00000000000E+00 -0.10840270766E+04  0.10840270766E+04  0.00000000000E+00 0.  1.
          6    2    1    2  502    0 -0.36614970996E+02  0.92936418297E+02 -0.52449270884E+03  0.56100105253E+03  0.17219682158E+03 0.  0.
         24    2    3    3    0    0 -0.76256328841E+02  0.22394048751E+02 -0.33316751427E+03  0.35321490470E+03  0.86276620398E+02 0.  0.
         -6    2    1    2    0  501  0.36614970996E+02 -0.92936418297E+02 -0.52309748517E+03  0.55946290660E+03  0.17143491746E+03 0.  0.
        -24    2    5    5    0    0  0.17083692994E+02 -0.12403069732E+03 -0.31583955204E+03  0.34892486763E+03  0.79488830503E+02 0.  0.
          5    1    3    3  502    0  0.39641357845E+02  0.70542369546E+02 -0.19132519457E+03  0.20778614783E+03  0.47000000000E+01 0. -1.
        -13    1    4    4    0    0 -0.58576640853E+02  0.52145317930E+02 -0.18273455106E+03  0.19885239044E+03  0.00000000000E+00 0.  1.
         14    1    4    4    0    0 -0.17679687988E+02 -0.29751269179E+02 -0.15043296321E+03  0.15436251425E+03  0.00000000000E+00 0. -1.
         -5    1    5    5    0  501  0.19531278001E+02  0.31094279019E+02 -0.20725793313E+03  0.21053803897E+03  0.47000000000E+01 0.  1.
         11    1    6    6    0    0 -0.19587642512E+01 -0.28064583373E+01  0.46342868293E+01  0.57610398546E+01  0.00000000000E+00 0. -1.
        -12    1    6    6    0    0  0.19042457246E+02 -0.12122423898E+03 -0.32047383887E+03  0.34316382777E+03  0.00000000000E+00 0.  1.
</event>
<event>
12    1  0.1348628E-002  0.2041504E+03  0.7818608E-02  0.1146284E+00
          1   -1    0    0  502    0  0.00000000000E+00  0.00000000000E+00  0.18085874930E+03  0.18085874930E+03  0.00000000000E+00 0. -1.
         -1   -1    0    0    0  501 -0.00000000000E+00 -0.00000000000E+00 -0.23361840427E+03  0.23361840427E+03  0.00000000000E+00 0.  1.
          6    2    1    2  502    0  0.10890400850E+03  0.16528207428E+02 -0.22237478941E+01  0.20424162016E+03  0.17197799174E+03 0.  0.
         24    2    3    3    0    0  0.61116883762E+02  0.66335547377E+02 -0.37677898612E+02  0.12650187996E+03  0.80295848358E+02 0.  0.
         -6    2    1    2    0  501 -0.10890400850E+03 -0.16528207428E+02 -0.50535907072E+02  0.21023553341E+03  0.17179009545E+03 0.  0.
        -24    2    5    5    0    0 -0.11982876964E+03  0.37084226069E+02 -0.26067795569E+02  0.15011547094E+03  0.78236505500E+02 0.  0.
          5    1    3    3  502    0  0.47787124737E+02 -0.49807339949E+02  0.35454150718E+02  0.77739740201E+02  0.47000000000E+01 0. -1.
        -13    1    4    4    0    0  0.20056525194E+02 -0.19056942382E+01 -0.42167907737E+02  0.46733588738E+02  0.00000000000E+00 0.  1.
         14    1    4    4    0    0  0.41060358567E+02  0.68241241615E+02  0.44900091254E+01  0.79768291224E+02  0.00000000000E+00 0. -1.
         -5    1    5    5    0  501  0.10924761136E+02 -0.53612433497E+02 -0.24468111503E+02  0.60120062474E+02  0.47000000000E+01 0.  1.
         13    1    6    6    0    0 -0.12044776243E+03  0.15471024575E+02 -0.75911902227E+01  0.12167432862E+03  0.00000000000E+00 0. -1.
        -14    1    6    6    0    0  0.61899279909E+00  0.21613201494E+02 -0.18476605346E+02  0.28441142312E+02  0.00000000000E+00 0.  1.
</event>
<event>
12    1  0.1348628E-002  0.1816449E+03  0.7818608E-02  0.1166221E+00
          4   -1    0    0  502    0  0.00000000000E+00  0.00000000000E+00  0.17883030460E+02  0.17883030460E+02  0.00000000000E+00 0. -1.
         -4   -1    0    0    0  501 -0.00000000000E+00 -0.00000000000E+00 -0.20033898522E+04  0.20033898522E+04  0.00000000000E+00 0.  1.
          6    2    1    2  502    0  0.20831491911E+02  0.54528880267E+02 -0.12800371759E+04  0.12929499713E+04  0.17267630637E+03 0.  0.
         24    2    3    3    0    0  0.70291334776E+02  0.47827623072E+02 -0.10972038104E+04  0.11033680301E+04  0.79601852653E+02 0.  0.
         -6    2    1    2    0  501 -0.20831491911E+02 -0.54528880267E+02 -0.70546964589E+03  0.72832291140E+03  0.17134611802E+03 0.  0.
        -24    2    5    5    0    0 -0.31554770504E+01 -0.10013361702E+02 -0.12855255707E+03  0.14940194075E+03  0.75398644026E+02 0.  0.
          5    1    3    3  502    0 -0.49459842866E+02  0.67012571950E+01 -0.18283336546E+03  0.18958194120E+03  0.47000000000E+01 0. -1.
        -11    1    4    4    0    0  0.53904069579E+02 -0.85958064191E+01 -0.40257156774E+03  0.40625534305E+03  0.00000000000E+00 0.  1.
         12    1    4    4    0    0  0.16387265198E+02  0.56423429491E+02 -0.69463224268E+03  0.69711268704E+03  0.00000000000E+00 0. -1.
         -5    1    5    5    0  501 -0.17676014860E+02 -0.44515518565E+02 -0.57691708882E+03  0.57892097066E+03  0.47000000000E+01 0.  1.
         13    1    6    6    0    0  0.44935254733E+01 -0.42506906127E+02 -0.71880593300E+02  0.83629232526E+02  0.00000000000E+00 0. -1.
        -14    1    6    6    0    0 -0.76490025237E+01  0.32493544425E+02 -0.56671963773E+02  0.65772708222E+02  0.00000000000E+00 0.  1.
</event>
<event>
12    1  0.1348628E-002  0.1786360E+03  0.7818608E-02  0.1169130E+00
          2   -1    0    0  502    0  0.00000000000E+00  0.00000000000E+00  0.24215909089E+04  0.24215909089E+04  0.00000000000E+00 0.  1.
         -2   -1    0    0    0  501 -0.00000000000E+00 -0.00000000000E+00 -0.22152711243E+02  0.22152711243E+02  0.00000000000E+00 0. -1.
          6    2    1    2  502    0  0.25200055651E+02  0.41305011155E+02  0.42154653929E+03  0.45779160110E+03  0.17184446018E+03 0.  0.
         24    2    3    3    0    0 -0.19406949994E+02  0.27021623307E+01  0.10601843181E+03  0.13676194281E+03  0.84142674832E+02 0.  0.
         -6    2    1    2    0  501 -0.25200055651E+02 -0.41305011155E+02  0.19778916584E+04  0.19859520191E+04  0.17207226089E+03 0.  0.
        -24    2    5    5    0    0  0.44074612888E+02 -0.27701192658E+02  0.14640122769E+04  0.14672245836E+04  0.81890806921E+02 0.  0.
          5    1    3    3  502    0  0.44607005645E+02  0.38602848824E+02  0.31552810749E+03  0.32102965829E+03  0.47000000000E+01 0. -1.
        -13    1    4    4    0    0 -0.39335983203E+02  0.31229700040E+02  0.74255180772E+02  0.89646224742E+02  0.00000000000E+00 0.  1.
         14    1    4    4    0    0  0.19929033209E+02 -0.28527537709E+02  0.31763251037E+02  0.47115718065E+02  0.00000000000E+00 0. -1.
         -5    1    5    5    0  501 -0.69274668539E+02 -0.13603818497E+02  0.51387938149E+03  0.51872743546E+03  0.47000000000E+01 0.  1.
         13    1    6    6    0    0  0.16529737142E+02 -0.15024754547E+02  0.13134221518E+04  0.13136120905E+04  0.00000000000E+00 0. -1.
        -14    1    6    6    0    0  0.27544875746E+02 -0.12676438111E+02  0.15059012514E+03  0.15361249315E+03  0.00000000000E+00 0.  1.
</event>
<event>
12    1  0.1348628E-002  0.2721830E+03  0.7818608E-02  0.1100037E+00
          1   -1    0    0  502    0  0.00000000000E+00  0.00000000000E+00  0.56012846409E+03  0.56012846409E+03  0.00000000000E+00 0. -1.
         -1   -1    0    0    0  501 -0.00000000000E+00 -0.00000000000E+00 -0.16975013282E+03  0.16975013282E+03  0.00000000000E+00 0.  1.
          6    2    1    2  502    0  0.29335436815E+01  0.21131991758E+03  0.36661826732E+03  0.45653449690E+03  0.17131864956E+03 0.  0.
         24    2    3    3    0    0 -0.57814114710E+02  0.13258875840E+03  0.17335304059E+03  0.23913529892E+03  0.78817281038E+02 0.  0.
         -6    2    1    2    0  501 -0.29335436815E+01 -0.21131991758E+03  0.23760063948E+02  0.27334410001E+03  0.17171995552E+03 0.  0.
        -24    2    5    5    0    0 -0.63480667541E+02 -0.11810360348E+03  0.40541990361E+02  0.16083206298E+03  0.79025585686E+02 0.  0.
          5    1    3    3  502    0  0.60747658392E+02  0.78731159178E+02  0.19326522673E+03  0.21739919799E+03  0.47000000000E+01 0. -1.
        -11    1    4    4    0    0 -0.10072618820E+02  0.65710062660E+02  0.27937860508E+02  0.72109597381E+02  0.00000000000E+00 0.  1.
         12    1    4    4    0    0 -0.47741495890E+02  0.66878695743E+02  0.14541518008E+03  0.16702570153E+03  0.00000000000E+00 0. -1.
         -5    1    5    5    0  501  0.60547123860E+02 -0.93216314102E+02 -0.16781926413E+02  0.11251203703E+03  0.47000000000E+01 0.  1.
         11    1    6    6    0    0 -0.53305883158E+01 -0.91447037506E+02  0.26195861319E+02  0.95274335425E+02  0.00000000000E+00 0. -1.
        -12    1    6    6    0    0 -0.58150079225E+02 -0.26656565973E+02  0.14346129041E+02  0.65557727552E+02  0.00000000000E+00 0.  1.
</event>
<event>
12    1  0.1348628E-002  0.1734609E+03  0.7818608E-02  0.1174286E+00
         -2   -1    0    0    0  501 -0.00000000000E+00  0.00000000000E+00  0.10090628789E+04  0.10090628789E+04  0.00000000000E+00 0.  1.
          2   -1    0    0  502    0  0.00000000000E+00 -0.00000000000E+00 -0.47911919519E+02  0.47911919519E+02  0.00000000000E+00 0. -1.
          6    2    1    2  502    0  0.22557488041E+02 -0.51391154650E+01  0.15746185241E+03  0.23497968151E+03  0.17287557660E+03 0.  0.
         24    2    3    3    0    0 -0.57123657071E+02  0.24195732334E+01  0.78387194315E+02  0.12236924587E+03  0.74570192246E+02 0.  0.
         -6    2    1    2    0  501 -0.22557488041E+02  0.51391154650E+01  0.80368910699E+03  0.82199511693E+03  0.17095186686E+03 0.  0.
        -24    2    5    5    0    0 -0.70298193035E+02 -0.95170714782E+01  0.37451873024E+03  0.38990336624E+03  0.82024052047E+02 0.  0.
          5    1    3    3  502    0  0.79681145112E+02 -0.75586886984E+01  0.79074658091E+02  0.11261043563E+03  0.47000000000E+01 0. -1.
        -13    1    4    4    0    0 -0.16062685694E+02 -0.15093375040E+01  0.79485311240E+02  0.81106119833E+02  0.00000000000E+00 0.  1.
         14    1    4    4    0    0 -0.41060971377E+02  0.39289107374E+01 -0.10981169250E+01  0.41263126042E+02  0.00000000000E+00 0. -1.
         -5    1    5    5    0  501  0.47740704994E+02  0.14656186943E+02  0.42917037675E+03  0.43209175068E+03  0.47000000000E+01 0.  1.
         13    1    6    6    0    0 -0.27174849865E+02 -0.28410743714E+02  0.29410410433E+03  0.29672018302E+03  0.00000000000E+00 0. -1.
        -14    1    6    6    0    0 -0.43123343169E+02  0.18893672236E+02  0.80414625907E+02  0.93183183227E+02  0.00000000000E+00 0.  1.
</event>
<event>
12    1  0.1348628E-002  0.1958628E+03  0.7818608E-02  0.1153277E+00
          2   -1    0    0  502    0  0.00000000000E+00  0.00000000000E+00  0.24626035453E+04  0.24626035453E+04  0.00000000000E+00 0.  1.
         -2   -1    0    0    0  501 -0.00000000000E+00 -0.00000000000E+00 -0.20107885220E+02  0.20107885220E+02  0.00000000000E+00 0. -1.
          6    2    1    2  502    0  0.53125195844E+02 -0.72336531199E+02  0.63158131237E+03  0.66122545962E+03  0.17398072921E+03 0.  0.
         24    2    3    3    0    0 -0.61669176333E+01  0.21839771665E+02  0.30294036375E+03  0.31422157801E+03  0.80295265118E+02 0.  0.
         -6    2    1    2    0  501 -0.53125195844E+02  0.72336531199E+02  0.18109143477E+04  0.18214859709E+04  0.17419961899E+03 0.  0.
        -24    2    5    5    0    0 -0.26836734521E+02  0.54254327298E+02  0.17472210684E+04  0.17500928821E+04  0.79874224956E+02 0.  0.
          5    1    3    3  502    0  0.59292113477E+02 -0.94176302865E+02  0.32864094862E+03  0.34700388161E+03  0.47000000000E+01 0. -1.
        -13    1    4    4    0    0 -0.34006449886E+02 -0.10658885275E+02  0.19268667402E+03  0.19595459886E+03  0.00000000000E+00 0.  1.
         14    1    4    4    0    0  0.27839532253E+02  0.32498656941E+02  0.11025368973E+03  0.11826697915E+03  0.00000000000E+00 0. -1.
         -5    1    5    5    0  501 -0.26288461322E+02  0.18082203901E+02  0.63693279289E+02  0.71393088764E+02  0.47000000000E+01 0.  1.
         13    1    6    6    0    0  0.24252740636E+02  0.31083324921E+02  0.47409868984E+03  0.47573515345E+03  0.00000000000E+00 0. -1.
        -14    1    6    6    0    0 -0.51089475158E+02  0.23171002377E+02  0.12731223786E+04  0.12743577287E+04  0.00000000000E+00 0.  1.
</event>
<event>
12    1  0.1348628E-002  0.1775498E+03  0.7818608E-02  0.1170196E+00
          1   -1    0    0  502    0  0.00000000000E+00  0.00000000000E+00  0.34978310762E+03  0.34978310762E+03  0.00000000000E+00 0. -1.
         -1   -1    0    0    0  501 -0.00000000000E+00 -0.00000000000E+00 -0.24738916319E+03  0.24738916319E+03  0.00000000000E+00 0.  1.
          6    2    1    2  502    0 -0.27715601748E+02 -0.24511650096E+02 -0.18686838399E+03  0.25776338086E+03  0.17364674487E+03 0.  0.
         24    2    3    3    0    0 -0.78564195344E+02  0.16380084469E+02 -0.11573809163E+03  0.16112321365E+03  0.78260744732E+02 0.  0.
         -6    2    1    2    0  501  0.27715601748E+02  0.24511650096E+02  0.28926232842E+03  0.33940888995E+03  0.17365691570E+03 0.  0.
        -24    2    5    5    0    0  0.51578190672E+02  0.12582882458E+01  0.29057273223E+03  0.30573472856E+03  0.79870635956E+02 0.  0.
          5    1    3    3  502    0  0.50848593596E+02 -0.40891734565E+02 -0.71130292358E+02  0.96640167205E+02  0.47000000000E+01 0. -1.
        -13    1    4    4    0    0 -0.45140954512E+02  0.44742408528E+01 -0.11713854361E+03  0.12561513844E+03  0.00000000000E+00 0.  1.
         14    1    4    4    0    0 -0.33423240832E+02  0.11905843616E+02  0.14004519762E+01  0.35508075218E+02  0.00000000000E+00 0. -1.
         -5    1    5    5    0  501 -0.23862588924E+02  0.23253361850E+02 -0.13104038163E+01  0.33674161395E+02  0.47000000000E+01 0.  1.
         13    1    6    6    0    0  0.15639270680E+02 -0.35982981240E+02  0.82982469605E+02  0.91790260857E+02  0.00000000000E+00 0. -1.
        -14    1    6    6    0    0  0.35938919992E+02  0.37241269486E+02  0.20759026263E+03  0.21394446770E+03  0.00000000000E+00 0.  1.
</event>
<event>
12    1  0.1348628E-002  0.3726891E+03  0.7818608E-02  0.1053669E+00
          2   -1    0    0  502    0  0.00000000000E+00  0.00000000000E+00  0.27194404668E+03  0.27194404668E+03  0.00000000000E+00 0.  1.
         -2   -1    0    0    0  501 -0.00000000000E+00 -0.00000000000E+00 -0.58211633933E+03  0.58211633933E+03  0.00000000000E+00 0. -1.
          6    2    1    2  502    0 -0.28452641241E+03 -0.16900851144E+03 -0.55551678416E+01  0.37268287814E+03  0.17129656000E+03 0.  0.
         24    2    3    3    0    0 -0.26817894093E+03 -0.15860304760E+03 -0.48541470896E+02  0.32529695457E+03  0.79918478422E+02 0.  0.
         -6    2    1    2    0  501  0.28452641241E+03  0.16900851144E+03 -0.30461712481E+03  0.48137750788E+03  0.17150380774E+03 0.  0.
        -24    2    5    5    0    0  0.29024107721E+03  0.12147098243E+03 -0.26176712628E+03  0.41695168672E+03  0.79571340255E+02 0.  0.
          5    1    3    3  502    0 -0.16347471486E+02 -0.10405463844E+02  0.42986303054E+02  0.47385923565E+02  0.47000000000E+01 0. -1.
        -13    1    4    4    0    0 -0.25308689522E+03 -0.14825321940E+03 -0.23459602008E+02  0.29424878338E+03  0.00000000000E+00 0.  1.
         14    1    4    4    0    0 -0.15092045703E+02 -0.10349828199E+02 -0.25081868888E+02  0.31048171189E+02  0.00000000000E+00 0. -1.
         -5    1    5    5    0  501 -0.57146647923E+01  0.47537529013E+02 -0.42849998532E+02  0.64425821163E+02  0.47000000000E+01 0.  1.
         11    1    6    6    0    0  0.22702220598E+03  0.11305418239E+03 -0.24105271526E+03  0.34989532963E+03  0.00000000000E+00 0. -1.
        -12    1    6    6    0    0  0.63218871229E+02  0.84168000400E+01 -0.20714411013E+02  0.67056357089E+02  0.00000000000E+00 0.  1.
</event>
<event>
12    1  0.1348628E-002  0.1847967E+03  0.7818608E-02  0.1163240E+00
         -2   -1    0    0    0  501 -0.00000000000E+00  0.00000000000E+00  0.16840258839E+02  0.16840258839E+02  0.00000000000E+00 0. -1.
          2   -1    0    0  502    0  0.00000000000E+00 -0.00000000000E+00 -0.20982272212E+04  0.20982272212E+04  0.00000000000E+00 0.  1.
          6    2    1    2  502    0 -0.64195857840E+02 -0.16435527251E+02 -0.12395816122E+04  0.12534253924E+04  0.17355519684E+03 0.  0.
         24    2    3    3    0    0  0.29872378937E+02 -0.20628792129E+02 -0.45696178261E+03  0.46514732961E+03  0.78930737947E+02 0.  0.
         -6    2    1    2    0  501  0.64195857840E+02  0.16435527251E+02 -0.84180535020E+03  0.86164208766E+03  0.17146312977E+03 0.  0.
        -24    2    5    5    0    0  0.77130001487E+02 -0.31186079607E+02 -0.73498027317E+03  0.74387623269E+03  0.78957196811E+02 0.  0.
          5    1    3    3  502    0 -0.94068236777E+02  0.41932648781E+01 -0.78261982955E+03  0.78827806277E+03  0.47000000000E+01 0. -1.
        -11    1    4    4    0    0 -0.17057245638E+02 -0.70233172596E-01 -0.28999900467E+03  0.29050021905E+03  0.00000000000E+00 0.  1.
         12    1    4    4    0    0  0.46929624575E+02 -0.20558558956E+02 -0.16696277794E+03  0.17464711056E+03  0.00000000000E+00 0. -1.
         -5    1    5    5    0  501 -0.12934143647E+02  0.47621606858E+02 -0.10682507704E+03  0.11776585497E+03  0.47000000000E+01 0.  1.
         11    1    6    6    0    0  0.64124250573E+02 -0.48305499124E+02 -0.38737838012E+03  0.39561009864E+03  0.00000000000E+00 0. -1.
        -12    1    6    6    0    0  0.13005750915E+02  0.17119419516E+02 -0.34760189304E+03  0.34826613405E+03  0.00000000000E+00 0.  1.
</event>
<event>
12    1  0.1348628E-002  0.2457344E+03  0.7818608E-02  0.1116031E+00
          1   -1    0    0  502    0  0.00000000000E+00  0.00000000000E+00  0.64105552615E+03  0.64105552615E+03  0.00000000000E+00 0. -1.
         -1   -1    0    0    0  501 -0.00000000000E+00 -0.00000000000E+00 -0.94201684603E+02  0.94201684603E+02  0.00000000000E+00 0.  1.
          6    2    1    2  502    0  0.17092191463E+03 -0.19173398398E+02  0.27237616611E+03  0.36751997276E+03  0.17691872260E+03 0.  0.
         24    2    3    3    0    0  0.13932298335E+03  0.46213733652E+02  0.14744635894E+03  0.22293948924E+03  0.80093596683E+02 0.  0.
         -6    2    1    2    0  501 -0.17092191463E+03  0.19173398398E+02  0.27447767543E+03  0.36773723799E+03  0.17409986153E+03 0.  0.
        -24    2    5    5    0    0 -0.13594414672E+03  0.40992769773E+02  0.28099627399E+03  0.32573591251E+03  0.83568896713E+02 0.  0.
          5    1    3    3  502    0  0.31598931278E+02 -0.65387132050E+02  0.12492980717E+03  0.14458048352E+03  0.47000000000E+01 0. -1.
        -13    1    4    4    0    0  0.10367642065E+03  0.14450089729E+02  0.53502625023E+02  0.11755907526E+03  0.00000000000E+00 0.  1.
         14    1    4    4    0    0  0.35646562700E+02  0.31763643923E+02  0.93943733919E+02  0.10538041398E+03  0.00000000000E+00 0. -1.
         -5    1    5    5    0  501 -0.34977767911E+02 -0.21819371375E+02 -0.65185985584E+01  0.42001325484E+02  0.47000000000E+01 0.  1.
         11    1    6    6    0    0  0.79876604117E+01  0.10313288842E+02  0.72119879105E+01  0.14905683990E+02  0.00000000000E+00 0. -1.
        -12    1    6    6    0    0 -0.14393180713E+03  0.30679480932E+02  0.27378428608E+03  0.31083022852E+03  0.00000000000E+00 0.  1.
</event>
<event>
12    1  0.1348628E-002  0.1801363E+03  0.7818608E-02  0.1167671E+00
          4   -1    0    0  502    0  0.00000000000E+00  0.00000000000E+00  0.76407103337E+03  0.76407103337E+03  0.00000000000E+00 0.  1.
         -4   -1    0    0    0  501 -0.00000000000E+00 -0.00000000000E+00 -0.50446313404E+02  0.50446313404E+02  0.00000000000E+00 0. -1.
          6    2    1    2  502    0  0.50514245142E+02  0.11169052320E+02  0.51997214291E+03  0.55053006118E+03  0.17330863270E+03 0.  0.
         24    2    3    3    0    0 -0.35373874435E+02 -0.18397113860E+02  0.25320626201E+03  0.26868426561E+03  0.80548486482E+02 0.  0.
         -6    2    1    2    0  501 -0.50514245142E+02 -0.11169052320E+02  0.19365257706E+03  0.26398728560E+03  0.17178920124E+03 0.  0.
        -24    2    5    5    0    0 -0.62006823262E+02  0.31826552949E+02  0.19195741319E+03  0.21920263416E+03  0.79651558312E+02 0.  0.
          5    1    3    3  502    0  0.85888119577E+02  0.29566166180E+02  0.26676588089E+03  0.28184579556E+03  0.47000000000E+01 0. -1.
        -11    1    4    4    0    0 -0.18837265353E+02 -0.39353112611E+02  0.63109737662E+02  0.76722545747E+02  0.00000000000E+00 0.  1.
         12    1    4    4    0    0 -0.16536609082E+02  0.20955998751E+02  0.19009652435E+03  0.19196171987E+03  0.00000000000E+00 0. -1.
         -5    1    5    5    0  501  0.11492578120E+02 -0.42995605269E+02  0.16951638776E+01  0.44784651443E+02  0.47000000000E+01 0.  1.
         13    1    6    6    0    0 -0.60115141495E+02  0.64236868411E+01  0.61345647852E+02  0.86130032509E+02  0.00000000000E+00 0. -1.
        -14    1    6    6    0    0 -0.18916817675E+01  0.25402866108E+02  0.13061176533E+03  0.13307260165E+03  0.00000000000E+00 0.  1.
</event>
<event>
12    1  0.1348628E-002  0.2151558E+03  0.7818608E-02  0.1137547E+00
         -1   -1    0    0    0  501 -0.00000000000E+00  0.00000000000E+00  0.41115760387E+02  0.41115760387E+02  0.00000000000E+00 0. -1.
          1   -1    0    0  502    0  0.00000000000E+00 -0.00000000000E+00 -0.13593114023E+04  0.13593114023E+04  0.00000000000E+00 0.  1.
          6    2    1    2  502    0  0.58503983314E+02 -0.12882146403E+03 -0.38848535375E+03  0.44774315792E+03  0.17185860387E+03 0.  0.
         24    2    3    3    0    0  0.79023545092E+02 -0.15130862218E+03 -0.35636207288E+03  0.40323787879E+03  0.80422882787E+02 0.  0.
         -6    2    1    2    0  501 -0.58503983314E+02  0.12882146403E+03 -0.92971028818E+03  0.95268400479E+03  0.15240704501E+03 0.  0.
        -24    2    5    5    0    0 -0.78726731807E+02  0.60152467531E+02 -0.72207138275E+03  0.73300151644E+03  0.78025147666E+02 0.  0.
          5    1    3    3  502    0 -0.20519561778E+02  0.22487158143E+02 -0.32123280872E+02  0.44505279135E+02  0.47000000000E+01 0. -1.
        -11    1    4    4    0    0  0.24323320180E+02 -0.96876522152E+02 -0.26753315724E+03  0.28557078750E+03  0.00000000000E+00 0.  1.
         12    1    4    4    0    0  0.54700224911E+02 -0.54432100023E+02 -0.88828915641E+02  0.11766709129E+03  0.00000000000E+00 0. -1.
         -5    1    5    5    0  501  0.20222748494E+02  0.68668996501E+02 -0.20763890543E+03  0.21968248835E+03  0.47000000000E+01 0.  1.
         11    1    6    6    0    0 -0.93346752678E+01  0.46320770652E+01 -0.36113918882E+03  0.36128950442E+03  0.00000000000E+00 0. -1.
        -12    1    6    6    0    0 -0.69392056539E+02  0.55520390466E+02 -0.36093219392E+03  0.37171201202E+03  0.00000000000E+00 0.  1.
</event>
<event>
12    1  0.1348628E-002  0.1865297E+03  0.7818608E-02  0.1161629E+00
          1   -1    0    0  502    0  0.00000000000E+00  0.00000000000E+00  0.11091171334E+04  0.11091171334E+04  0.00000000000E+00 0.  1.
         -1   -1    0    0    0  501 -0.00000000000E+00 -0.00000000000E+00 -0.31685729867E+02  0.31685729867E+02  0.00000000000E+00 0. -1.
          6    2    1    2  502    0  0.67247852269E+02 -0.25936384414E+02  0.48109758600E+03  0.51590252653E+03  0.17177182527E+03 0.  0.
         24    2    3    3    0    0  0.85199742766E+02 -0.16760289898E+02  0.18744136099E+03  0.22151750726E+03  0.79973987828E+02 0.  0.
         -6    2    1    2    0  501 -0.67247852269E+02  0.25936384414E+02  0.59633381750E+03  0.62490033670E+03  0.17231204034E+03 0.  0.
        -24    2    5    5    0    0  0.42055332502E+01  0.34712281733E+02  0.15485873800E+03  0.17756943178E+03  0.79542726605E+02 0.  0.
          5    1    3    3  502    0 -0.17951890496E+02 -0.91760945158E+01  0.29365622501E+03  0.29438501927E+03  0.47000000000E+01 0. -1.
        -13    1    4    4    0    0  0.34574873125E+02 -0.12584953749E+02  0.15920275935E+03  0.16339927019E+03  0.00000000000E+00 0.  1.
         14    1    4    4    0    0  0.50624869641E+02 -0.41753361486E+01  0.28238601635E+02  0.58118237072E+02  0.00000000000E+00 0. -1.
         -5    1    5    5    0  501 -0.71453385520E+02 -0.87758973195E+01  0.44147507950E+03  0.44733090492E+03  0.47000000000E+01 0.  1.
         11    1    6    6    0    0 -0.12902571906E+02 -0.10153262653E+01 -0.42354640260E+01  0.13617870785E+02  0.00000000000E+00 0. -1.
        -12    1    6    6    0    0  0.17108105156E+02  0.35727607999E+02  0.15909420203E+03  0.16395156100E+03  0.00000000000E+00 0.  1.
</event>
<event>
12    1  0.1348628E-002  0.1843708E+03  0.7818608E-02  0.1163639E+00
         -2   -1    0    0    0  501 -0.00000000000E+00  0.00000000000E+00  0.34391639344E+02  0.34391639344E+02  0.00000000000E+00 0. -1.
          2   -1    0    0  502    0  0.00000000000E+00 -0.00000000000E+00 -0.11439091953E+04  0.11439091953E+04  0.00000000000E+00 0.  1.
          6    2    1    2  502    0 -0.68281741721E+01 -0.67578722433E+02 -0.76843772356E+03  0.78993387157E+03  0.16995728515E+03 0.  0.
         24    2    3    3    0    0  0.34151051813E+02 -0.82427796848E+02 -0.68444841714E+03  0.69519166574E+03  0.82832242225E+02 0.  0.
         -6    2    1    2    0  501  0.68281741721E+01  0.67578722433E+02 -0.34107983243E+03  0.38836696311E+03  0.17285814489E+03 0.  0.
        -24    2    5    5    0    0  0.30740340234E+02  0.39346862975E+02 -0.74321129251E+02  0.11901380219E+03  0.78406063000E+02 0.  0.
          5    1    3    3  502    0 -0.40979225985E+02  0.14849074415E+02 -0.83989306419E+02  0.94742205832E+02  0.47000000000E+01 0. -1.
        -13    1    4    4    0    0 -0.25358655762E+02 -0.43846935657E+02 -0.30350025774E+03  0.30769793895E+03  0.00000000000E+00 0.  1.
         14    1    4    4    0    0  0.59509707575E+02 -0.38580861192E+02 -0.38094815940E+03  0.38749372679E+03  0.00000000000E+00 0. -1.
         -5    1    5    5    0  501 -0.23912166062E+02  0.28231859459E+02 -0.26675870318E+03  0.26935316092E+03  0.47000000000E+01 0.  1.
         13    1    6    6    0    0  0.18609647938E+02 -0.18560414907E+02 -0.31635056492E+01  0.26472925148E+02  0.00000000000E+00 0. -1.
        -14    1    6    6    0    0  0.12130692297E+02  0.57907277882E+02 -0.71157623602E+02  0.92540877043E+02  0.00000000000E+00 0.  1.
</event>
<event>
12    1  0.1348628E-002  0.1780330E+03  0.7818608E-02  0.1169720E+00
         -2   -1    0    0    0  501 -0.00000000000E+00  0.00000000000E+00  0.58570281069E+02  0.58570281069E+02  0.00000000000E+00 0.  1.
          2   -1    0    0  502    0  0.00000000000E+00 -0.00000000000E+00 -0.56704146252E+03  0.56704146252E+03  0.00000000000E+00 0. -1.
          6    2    1    2  502    0 -0.10863898775E+02  0.49671052426E+02 -0.18857632454E+03  0.25992349067E+03  0.17150496517E+03 0.  0.
         24    2    3    3    0    0  0.50330240109E+02  0.45450715567E+02 -0.16229412417E+03  0.19302522512E+03  0.79501284123E+02 0.  0.
         -6    2    1    2    0  501  0.10863898775E+02 -0.49671052426E+02 -0.31989485691E+03  0.36568825292E+03  0.16973491421E+03 0.  0.
        -24    2    5    5    0    0 -0.44754935660E+02 -0.58642407927E+02 -0.26692790069E+03  0.28821872075E+03  0.79859818133E+02 0.  0.
          5    1    3    3  502    0 -0.61194138884E+02  0.42203368599E+01 -0.26282200373E+02  0.66898265549E+02  0.47000000000E+01 0. -1.
        -13    1    4    4    0    0  0.29423355249E+02 -0.18021497094E+02 -0.79224596033E+02  0.86412064020E+02  0.00000000000E+00 0.  1.
         14    1    4    4    0    0  0.20906884860E+02  0.63472212661E+02 -0.83069528139E+02  0.10661316110E+03  0.00000000000E+00 0. -1.
         -5    1    5    5    0  501  0.55618834435E+02  0.89713555003E+01 -0.52966956216E+02  0.77469532167E+02  0.47000000000E+01 0.  1.
         13    1    6    6    0    0 -0.38180131010E+02  0.78379362798E+01 -0.68064286463E+02  0.78434066201E+02  0.00000000000E+00 0. -1.
        -14    1    6    6    0    0 -0.65748046499E+01 -0.66480344206E+02 -0.19886361423E+03  0.20978465455E+03  0.00000000000E+00 0.  1.
</event>
<event>
12    1  0.1348628E-002  0.1972111E+03  0.7818608E-02  0.1152114E+00
          2   -1    0    0  502    0  0.00000000000E+00  0.00000000000E+00  0.15064103709E+04  0.15064103709E+04  0.00000000000E+00 0. -1.
         -2   -1    0    0    0  501 -0.00000000000E+00 -0.00000000000E+00 -0.27911901537E+02  0.27911901537E+02  0.00000000000E+00 0.  1.
          6    2    1    2  502    0  0.94733855349E+02 -0.12907503999E+02  0.95083856870E+03  0.97116078194E+03  0.17296870707E+03 0.  0.
         24    2    3    3    0    0  0.39996333901E+02  0.57690074815E+02  0.45222488654E+03  0.46458609995E+03  0.80031523806E+02 0.  0.
         -6    2    1    2    0  501 -0.94733855349E+02  0.12907503999E+02  0.52765990064E+03  0.56316149048E+03  0.17200228664E+03 0.  0.
        -24    2    5    5    0    0 -0.48359828557E+02 -0.58534770954E+02  0.27012090009E+03  0.29186280671E+03  0.80334331682E+02 0.  0.
          5    1    3    3  502    0  0.54737521448E+02 -0.70597578813E+02  0.49861368216E+03  0.50657468198E+03  0.47000000000E+01 0. -1.
        -11    1    4    4    0    0 -0.15784135972E+02  0.32439632605E+01  0.21518683354E+02  0.26883377380E+02  0.00000000000E+00 0.  1.
         12    1    4    4    0    0  0.55780469873E+02  0.54446111554E+02  0.43070620319E+03  0.43770272257E+03  0.00000000000E+00 0. -1.
         -5    1    5    5    0  501 -0.46374026792E+02  0.71442274953E+02  0.25753900055E+03  0.27129868377E+03  0.47000000000E+01 0.  1.
         11    1    6    6    0    0 -0.56205292063E+02 -0.50314713372E+01  0.14146135339E+03  0.15230123132E+03  0.00000000000E+00 0. -1.
        -12    1    6    6    0    0  0.78454635054E+01 -0.53503299617E+02  0.12865954670E+03  0.13956157539E+03  0.00000000000E+00 0.  1.
</event>
<event>
12    1  0.1348628E-002  0.1775472E+03  0.7818608E-02  0.1170198E+00
         -1   -1    0    0    0  501 -0.00000000000E+00  0.00000000000E+00  0.18162958190E+02  0.18162958190E+02  0.00000000000E+00 0. -1.
          1   -1    0    0  502    0  0.00000000000E+00 -0.00000000000E+00 -0.26957558381E+04  0.26957558381E+04  0.00000000000E+00 0.  1.
          6    2    1    2  502    0  0.22269566478E+02 -0.32235103260E+02 -0.52729227783E+03  0.55627260332E+03  0.17282079585E+03 0.  0.
         24    2    3    3    0    0  0.72885117030E+02 -0.33369518171E+02 -0.24662521681E+03  0.27103706908E+03  0.78811992877E+02 0.  0.
         -6    2    1    2    0  501 -0.22269566478E+02  0.32235103260E+02 -0.21503006020E+04  0.21576461929E+04  0.17352054412E+03 0.  0.
        -24    2    5    5    0    0  0.14366667987E+02 -0.32592505461E+02 -0.15925579868E+04  0.15949351237E+04  0.79425657412E+02 0.  0.
          5    1    3    3  502    0 -0.50615550552E+02  0.11344149110E+01 -0.28066706101E+03  0.28523553424E+03  0.47000000000E+01 0. -1.
        -11    1    4    4    0    0  0.27337093119E+02  0.21380245243E+02 -0.42649444117E+02  0.54985512913E+02  0.00000000000E+00 0.  1.
         12    1    4    4    0    0  0.45548023911E+02 -0.54749763414E+02 -0.20397577270E+03  0.21605155617E+03  0.00000000000E+00 0. -1.
         -5    1    5    5    0  501 -0.36636234465E+02  0.64827608722E+02 -0.55774261523E+03  0.56271106917E+03  0.47000000000E+01 0.  1.
         13    1    6    6    0    0  0.45950753990E+02 -0.16442686253E+02 -0.11115317690E+04  0.11126026727E+04  0.00000000000E+00 0. -1.
        -14    1    6    6    0    0 -0.31584086002E+02 -0.16149819208E+02 -0.48102621782E+03  0.48233245110E+03  0.00000000000E+00 0.  1.
</event>
<event>
12    1  0.1348628E-002  0.1846877E+03  0.7818608E-02  0.1163342E+00
         -3   -1    0    0    0  501 -0.00000000000E+00  0.00000000000E+00  0.54616144978E+03  0.54616144978E+03  0.00000000000E+00 0. -1.
          3   -1    0    0  502    0  0.00000000000E+00 -0.00000000000E+00 -0.71178884862E+02  0.71178884862E+02  0.00000000000E+00 0.  1.
          6    2    1    2  502    0  0.48177531351E+02  0.45078327887E+02  0.12976484503E+03  0.22596850052E+03  0.17282857995E+03 0.  0.
         24    2    3    3    0    0  0.12204057900E+02 -0.13326464127E+01 -0.62607058039E+01  0.77735205314E+02  0.76503926254E+02 0.  0.
         -6    2    1    2    0  501 -0.48177531351E+02 -0.45078327887E+02  0.34521771989E+03  0.39137183412E+03  0.17217290219E+03 0.  0.
        -24    2    5    5    0    0  0.30020913697E+02  0.12032268970E+02  0.18087654842E+03  0.20056636324E+03  0.80402173711E+02 0.  0.
          5    1    3    3  502    0  0.35973473451E+02  0.46410974299E+02  0.13602555084E+03  0.14823329521E+03  0.47000000000E+01 0. -1.
        -11    1    4    4    0    0  0.14083672494E+02  0.24307543591E+02 -0.31153740030E+02  0.41949517568E+02  0.00000000000E+00 0.  1.
         12    1    4    4    0    0 -0.18796145942E+01 -0.25640190004E+02  0.24893034226E+02  0.35785687746E+02  0.00000000000E+00 0. -1.
         -5    1    5    5    0  501 -0.78198445048E+02 -0.57110596857E+02  0.16434117146E+03  0.19080547088E+03  0.47000000000E+01 0.  1.
         13    1    6    6    0    0 -0.11996404856E+02  0.23606993248E+02  0.13387277304E+03  0.13646656448E+03  0.00000000000E+00 0. -1.
        -14    1    6    6    0    0  0.42017318553E+02 -0.11574724277E+02  0.47003775382E+02  0.64099798756E+02  0.00000000000E+00 0.  1.
</event>
<event>
12    1  0.1348628E-002  0.1934321E+03  0.7818608E-02  0.1155402E+00
          2   -1    0    0  502    0  0.00000000000E+00  0.00000000000E+00  0.64076754850E+03  0.64076754850E+03  0.00000000000E+00 0.  1.
         -2   -1    0    0    0  501 -0.00000000000E+00 -0.00000000000E+00 -0.81411788049E+02  0.81411788049E+02  0.00000000000E+00 0. -1.
          6    2    1    2  502    0  0.52978194767E+02 -0.69356591707E+02  0.88397553029E+02  0.21330911327E+03  0.17340595287E+03 0.  0.
         24    2    3    3    0    0  0.74949113086E+02 -0.10474676438E+03  0.66850765282E+02  0.16617590168E+03  0.80970064092E+02 0.  0.
         -6    2    1    2    0  501 -0.52978194767E+02  0.69356591707E+02  0.47095820742E+03  0.50887022328E+03  0.17184366460E+03 0.  0.
        -24    2    5    5    0    0 -0.62137452080E+02  0.33103018219E+01  0.11945281754E+03  0.15106562085E+03  0.68409247437E+02 0.  0.
          5    1    3    3  502    0 -0.21970918319E+02  0.35390172669E+02  0.21546787747E+02  0.47133211598E+02  0.47000000000E+01 0. -1.
        -13    1    4    4    0    0  0.30246061559E+01 -0.69909194742E+01  0.41498417112E+02  0.42191703217E+02  0.00000000000E+00 0.  1.
         14    1    4    4    0    0  0.71924506930E+02 -0.97755844902E+02  0.25352348169E+02  0.12398419846E+03  0.00000000000E+00 0. -1.
         -5    1    5    5    0  501  0.91592573128E+01  0.66046289885E+02  0.35150538988E+03  0.35780460243E+03  0.47000000000E+01 0.  1.
         13    1    6    6    0    0 -0.44344482934E+02  0.96570411151E+01  0.19589420463E+02  0.49431133953E+02  0.00000000000E+00 0. -1.
        -14    1    6    6    0    0 -0.17792969146E+02 -0.63467392932E+01  0.99863397077E+02  0.10163448690E+03  0.00000000000E+00 0.  1.
</event>
<event>
12    1  0.1348628E-002  0.2468603E+03  0.7818608E-02  0.1115305E+00
          2   -1    0    0  502    0  0.00000000000E+00  0.00000000000E+00  0.22659157122E+03  0.22659157122E+03  0.00000000000E+00 0. -1.
         -2   -1    0    0    0  501 -0.00000000000E+00 -0.00000000000E+00 -0.27025595630E+03  0.27025595630E+03  0.00000000000E+00 0.  1.
          6    2    1    2  502    0 -0.38245031361E+02 -0.17331615203E+03 -0.39211252257E+02  0.25090024195E+03  0.17295154849E+03 0.  0.
         24    2    3    3    0    0 -0.58746475918E+01 -0.15914659990E+03 -0.81096095368E+02  0.19589980526E+03  0.80237181359E+02 0.  0.
         -6    2    1    2    0  501  0.38245031361E+02  0.17331615203E+03 -0.44531328284E+01  0.24594728557E+03  0.17020301380E+03 0.  0.
        -24    2    5    5    0    0  0.78315814497E+02  0.15038298258E+03  0.27180639812E+02  0.18978338708E+03  0.80811747788E+02 0.  0.
          5    1    3    3  502    0 -0.32370383769E+02 -0.14169552129E+02  0.41884843111E+02  0.55000436684E+02  0.47000000000E+01 0. -1.
        -11    1    4    4    0    0  0.26737870879E+02 -0.10504319549E+03 -0.24598674511E+02  0.11114891563E+03  0.00000000000E+00 0.  1.
         12    1    4    4    0    0 -0.32612518470E+02 -0.54103404417E+02 -0.56497420857E+02  0.84750889636E+02  0.00000000000E+00 0. -1.
         -5    1    5    5    0  501 -0.40070783136E+02  0.22933169457E+02 -0.31633772641E+02  0.56163898493E+02  0.47000000000E+01 0.  1.
         11    1    6    6    0    0  0.31001321109E+02  0.44666173058E+02  0.47494828771E+02  0.72193543244E+02  0.00000000000E+00 0. -1.
        -12    1    6    6    0    0  0.47314493388E+02  0.10571680952E+03 -0.20314188959E+02  0.11758984383E+03  0.00000000000E+00 0.  1.
</event>
<event>
12    1  0.1348628E-002  0.1782379E+03  0.7818608E-02  0.1169519E+00
         -3   -1    0    0    0  501 -0.00000000000E+00  0.00000000000E+00  0.10790448160E+03  0.10790448160E+03  0.00000000000E+00 0. -1.
          3   -1    0    0  502    0  0.00000000000E+00 -0.00000000000E+00 -0.62809851147E+03  0.62809851147E+03  0.00000000000E+00 0.  1.
          6    2    1    2  502    0  0.35391207282E+02 -0.33062076785E+02 -0.52836167439E+03  0.55763280784E+03  0.17158860961E+03 0.  0.
         24    2    3    3    0    0  0.38386490635E+02  0.17065332882E+02 -0.47765943365E+03  0.48611682265E+03  0.79914219386E+02 0.  0.
         -6    2    1    2    0  501 -0.35391207282E+02  0.33062076785E+02  0.81676445138E+01  0.17837018522E+03  0.17147470392E+03 0.  0.
        -24    2    5    5    0    0  0.13022190265E+02 -0.27677202839E+02  0.40378463067E+02  0.94151755035E+02  0.79363264174E+02 0.  0.
          5    1    3    3  502    0 -0.29952833526E+01 -0.50127409667E+02 -0.50702240739E+02  0.71515985194E+02  0.47000000000E+01 0. -1.
        -11    1    4    4    0    0  0.51180624051E+02  0.25646484786E+02 -0.20003712773E+03  0.20806741920E+03  0.00000000000E+00 0.  1.
         12    1    4    4    0    0 -0.12794133416E+02 -0.85811519041E+01 -0.27762230592E+03  0.27804940345E+03  0.00000000000E+00 0. -1.
         -5    1    5    5    0  501 -0.48413397548E+02  0.60739279624E+02 -0.32210818553E+02  0.84218430188E+02  0.47000000000E+01 0.  1.
         13    1    6    6    0    0  0.74354871128E+01 -0.46907582600E+01  0.61689228973E+02  0.62312524046E+02  0.00000000000E+00 0. -1.
        -14    1    6    6    0    0  0.55867031525E+01 -0.22986444579E+02 -0.21310765906E+02  0.31839230990E+02  0.00000000000E+00 0.  1.
</event>
<event>
12    1  0.1348628E-002  0.1950238E+03  0.7818608E-02  0.1154007E+00
          1   -1    0    0  502    0  0.00000000000E+00  0.00000000000E+00  0.10856457756E+03  0.10856457756E+03  0.00000000000E+00 0. -1.
         -1   -1    0    0    0  501 -0.00000000000E+00 -0.00000000000E+00 -0.36005393912E+03  0.36005393912E+03  0.00000000000E+00 0.  1.
          6    2    1    2  502    0  0.31509129229E+02  0.84922385076E+02 -0.87147389632E+02  0.21345258805E+03  0.17251870366E+03 0.  0.
         24    2    3    3    0    0 -0.69218494056E+01  0.12386412629E+02  0.15021360884E+02  0.82307816901E+02  0.79671828291E+02 0.  0.
         -6    2    1    2    0  501 -0.31509129229E+02 -0.84922385076E+02 -0.16434197193E+03  0.25516592864E+03  0.17290671094E+03 0.  0.
        -24    2    5    5    0    0 -0.49503449048E+02 -0.74253585054E+02 -0.35406434527E+02  0.12445983986E+03  0.79198799047E+02 0.  0.
          5    1    3    3  502    0  0.38430978635E+02  0.72535972446E+02 -0.10216875052E+03  0.13114477115E+03  0.47000000000E+01 0. -1.
        -11    1    4    4    0    0  0.70471956824E+01 -0.32785528696E+02  0.83366464069E+01  0.34555079687E+02  0.00000000000E+00 0.  1.
         12    1    4    4    0    0 -0.13969045088E+02  0.45171941326E+02  0.66847144769E+01  0.47752737214E+02  0.00000000000E+00 0. -1.
         -5    1    5    5    0  501  0.17994319818E+02 -0.10668800021E+02 -0.12893553740E+03  0.13070608878E+03  0.47000000000E+01 0.  1.
         11    1    6    6    0    0 -0.10160343494E+02 -0.78565669627E+02 -0.29026479339E+02  0.84370217059E+02  0.00000000000E+00 0. -1.
        -12    1    6    6    0    0 -0.39343105554E+02  0.43120845721E+01 -0.63799551881E+01  0.40089622799E+02  0.00000000000E+00 0.  1.
</event>
<event>
12    1  0.1348628E-002  0.2158280E+03  0.7818608E-02  0.1137032E+00
         -2   -1    0    0    0  501 -0.00000000000E+00  0.00000000000E+00  0.23914872020E+02  0.23914872020E+02  0.00000000000E+00 0. -1.
          2   -1    0    0  502    0  0.00000000000E+00 -0.00000000000E+00 -0.21818796653E+04  0.21818796653E+04  0.00000000000E+00 0.  1.
          6    2    1    2  502    0  0.70776074048E+02  0.10551816234E+03 -0.14391819228E+04  0.14552411011E+04  0.17418013786E+03 0.  0.
         24    2    3    3    0    0  0.95819466663E+02  0.39793354013E+02 -0.11532217000E+04  0.11607207097E+04  0.81162771604E+02 0.  0.
         -6    2    1    2    0  501 -0.70776074048E+02 -0.10551816234E+03 -0.71878287049E+03  0.75055343614E+03  0.17475213978E+03 0.  0.
        -24    2    5    5    0    0 -0.27162876600E+02 -0.78789851808E+01 -0.49736092243E+03  0.50461586482E+03  0.80432478463E+02 0.  0.
          5    1    3    3  502    0 -0.25043392615E+02  0.65724808326E+02 -0.28596022280E+03  0.29452039142E+03  0.47000000000E+01 0. -1.
        -13    1    4    4    0    0  0.68824793493E+02  0.58782518088E+02 -0.99411638767E+03  0.99822824488E+03  0.00000000000E+00 0.  1.
         14    1    4    4    0    0  0.26994673170E+02 -0.18989164075E+02 -0.15910531229E+03  0.16249246484E+03  0.00000000000E+00 0. -1.
         -5    1    5    5    0  501 -0.43613197448E+02 -0.97639177159E+02 -0.22142194806E+03  0.24593757133E+03  0.47000000000E+01 0.  1.
         13    1    6    6    0    0 -0.23624784873E+02 -0.43340006127E+02 -0.30810099639E+03  0.31202998345E+03  0.00000000000E+00 0. -1.
        -14    1    6    6    0    0 -0.35380917274E+01  0.35461020946E+02 -0.18925992604E+03  0.19258588137E+03  0.00000000000E+00 0.  1.
</event>
<event>
12    1  0.1348628E-002  0.2107939E+03  0.7818608E-02  0.1140939E+00
          2   -1    0    0  502    0  0.00000000000E+00  0.00000000000E+00  0.91380907716E+03  0.91380907716E+03  0.00000000000E+00 0.  1.
         -2   -1    0    0    0  501 -0.00000000000E+00 -0.00000000000E+00 -0.62802114450E+02  0.62802114450E+02  0.00000000000E+00 0. -1.
          6    2    1    2  502    0 -0.80311343858E+02  0.92276186367E+02  0.19589568904E+03  0.28888324246E+03  0.17353270662E+03 0.  0.
         24    2    3    3    0    0 -0.28483319768E+02 -0.11160263583E+02  0.13113201326E+03  0.15621196840E+03  0.79187897958E+02 0.  0.
         -6    2    1    2    0  501  0.80311343858E+02 -0.92276186367E+02  0.65511127367E+03  0.68772794915E+03  0.16980619726E+03 0.  0.
        -24    2    5    5    0    0  0.10515283499E+03 -0.15549427511E+02  0.40606296636E+03  0.42590502315E+03  0.72173767341E+02 0.  0.
          5    1    3    3  502    0 -0.51828024090E+02  0.10343644995E+03  0.64763675783E+02  0.13267127406E+03  0.47000000000E+01 0. -1.
        -11    1    4    4    0    0 -0.26903014368E+02 -0.28752122618E+02  0.20909473080E+02  0.44583212105E+02  0.00000000000E+00 0.  1.
         12    1    4    4    0    0 -0.15803054002E+01  0.17591859035E+02  0.11022254018E+03  0.11162875630E+03  0.00000000000E+00 0. -1.
         -5    1    5    5    0  501 -0.24841491128E+02 -0.76726758856E+02  0.24904830730E+03  0.26182292600E+03  0.47000000000E+01 0.  1.
         11    1    6    6    0    0  0.41261659244E+02 -0.42354856692E+02  0.18018955430E+03  0.18964370247E+03  0.00000000000E+00 0. -1.
        -12    1    6    6    0    0  0.63891175743E+02  0.26805429182E+02  0.22587341206E+03  0.23626132068E+03  0.00000000000E+00 0.  1.
</event>
<event>
12    1  0.1348628E-002  0.2438509E+03  0.7818608E-02  0.1117254E+00
         -2   -1    0    0    0  501 -0.00000000000E+00  0.00000000000E+00  0.31054798007E+02  0.31054798007E+02  0.00000000000E+00 0. -1.
          2   -1    0    0  502    0  0.00000000000E+00 -0.00000000000E+00 -0.19155907520E+04  0.19155907520E+04  0.00000000000E+00 0.  1.
          6    2    1    2  502    0  0.64423485910E+02  0.15948220433E+03 -0.96069245133E+03  0.99106309223E+03  0.17231107833E+03 0.  0.
         24    2    3    3    0    0  0.38480767766E+02  0.18594956189E+03 -0.81388604519E+03  0.83957792291E+03  0.80141032134E+02 0.  0.
         -6    2    1    2    0  501 -0.64423485910E+02 -0.15948220433E+03 -0.92384350269E+03  0.95558245780E+03  0.17339566648E+03 0.  0.
        -24    2    5    5    0    0 -0.66042387227E+02 -0.18836040407E+03 -0.81320195119E+03  0.84112629073E+03  0.79716904152E+02 0.  0.
          5    1    3    3  502    0  0.25942718143E+02 -0.26467357562E+02 -0.14680640614E+03  0.15148516932E+03  0.47000000000E+01 0. -1.
        -13    1    4    4    0    0  0.28773672676E+02  0.15856554525E+03 -0.77174881567E+03  0.78839532651E+03  0.00000000000E+00 0.  1.
         14    1    4    4    0    0  0.97070950907E+01  0.27384016644E+02 -0.42137229522E+02  0.51182596402E+02  0.00000000000E+00 0. -1.
         -5    1    5    5    0  501  0.16189013172E+01  0.28878199737E+02 -0.11064155151E+03  0.11445616707E+03  0.47000000000E+01 0.  1.
         11    1    6    6    0    0 -0.18773965865E+01 -0.86414836066E+02 -0.23213247254E+03  0.24770250971E+03  0.00000000000E+00 0. -1.
        -12    1    6    6    0    0 -0.64164990640E+02 -0.10194556800E+03 -0.58106947865E+03  0.59342378102E+03  0.00000000000E+00 0.  1.
</event>
<event>
12    1  0.1348628E-002  0.2815700E+03  0.7818608E-02  0.1094835E+00
         -2   -1    0    0    0  501 -0.00000000000E+00  0.00000000000E+00  0.15493686037E+03  0.15493686037E+03  0.00000000000E+00 0. -1.
          2   -1    0    0  502    0  0.00000000000E+00 -0.00000000000E+00 -0.60769955243E+03  0.60769955243E+03  0.00000000000E+00 0.  1.
          6    2    1    2  502    0  0.83637430771E+02 -0.20734380441E+03 -0.37925915657E+03  0.47354695996E+03  0.17442059049E+03 0.  0.
         24    2    3    3    0    0  0.10231341619E+03 -0.22031649475E+03 -0.30983502234E+03  0.40034256432E+03  0.72588117120E+02 0.  0.
         -6    2    1    2    0  501 -0.83637430771E+02  0.20734380441E+03 -0.73503535482E+02  0.28908945285E+03  0.16787873292E+03 0.  0.
        -24    2    5    5    0    0 -0.10915263950E+03  0.20983045415E+03 -0.53621950295E+02  0.25630871562E+03  0.82919997296E+02 0.  0.
          5    1    3    3  502    0 -0.18675985424E+02  0.12972690340E+02 -0.69424134235E+02  0.73204395636E+02  0.47000000000E+01 0. -1.
        -11    1    4    4    0    0  0.22894345215E+02 -0.11124192115E+03 -0.18166417679E+03  0.21424469467E+03  0.00000000000E+00 0.  1.
         12    1    4    4    0    0  0.79419070980E+02 -0.10907457359E+03 -0.12817084555E+03  0.18609786965E+03  0.00000000000E+00 0. -1.
         -5    1    5    5    0  501  0.25515208730E+02 -0.24866497440E+01 -0.19881585187E+02  0.32780737226E+02  0.47000000000E+01 0.  1.
         13    1    6    6    0    0 -0.32877817102E+02  0.11688827442E+03 -0.60928823296E+02  0.13585338075E+03  0.00000000000E+00 0. -1.
        -14    1    6    6    0    0 -0.76274822399E+02  0.92942179730E+02  0.73068730006E+01  0.12045533487E+03  0.00000000000E+00 0.  1.
</event>
<event>
12    1  0.1348628E-002  0.2392226E+03  0.7818608E-02  0.1120312E+00
          2   -1    0    0  502    0  0.00000000000E+00  0.00000000000E+00  0.14700114067E+03  0.14700114067E+03  0.00000000000E+00 0.  1.
         -2   -1    0    0    0  501 -0.00000000000E+00 -0.00000000000E+00 -0.41634083720E+03  0.41634083720E+03  0.00000000000E+00 0. -1.
          6    2    1    2  502    0 -0.14558009342E+03  0.75899041504E+02 -0.63482062305E+02  0.24857921815E+03  0.17552044713E+03 0.  0.
         24    2    3    3    0    0 -0.12895880549E+03  0.11195422592E+03 -0.20038244149E+02  0.18953941064E+03  0.79746691105E+02 0.  0.
         -6    2    1    2    0  501  0.14558009342E+03 -0.75899041504E+02 -0.20585763422E+03  0.31476275972E+03  0.17246449269E+03 0.  0.
        -24    2    5    5    0    0  0.17184138542E+03 -0.40881975528E+02 -0.17602751654E+03  0.26158591995E+03  0.78998159912E+02 0.  0.
          5    1    3    3  502    0 -0.16621287926E+02 -0.36055184412E+02 -0.43443818157E+02  0.59039807514E+02  0.47000000000E+01 0. -1.
        -11    1    4    4    0    0 -0.89684865300E+02  0.84099897316E+02  0.22857044543E+02  0.12505443726E+03  0.00000000000E+00 0.  1.
         12    1    4    4    0    0 -0.39273940189E+02  0.27854328599E+02 -0.42895288692E+02  0.64484973379E+02  0.00000000000E+00 0. -1.
         -5    1    5    5    0  501 -0.26261292006E+02 -0.35017065976E+02 -0.29830117686E+02  0.53176839776E+02  0.47000000000E+01 0.  1.
         13    1    6    6    0    0  0.10608490944E+03  0.14816518577E+02 -0.10355306898E+03  0.14898582258E+03  0.00000000000E+00 0. -1.
        -14    1    6    6    0    0  0.65756475982E+02 -0.55698494105E+02 -0.72474447553E+02  0.11260009737E+03  0.00000000000E+00 0.  1.
</event>
<event>
12    1  0.1348628E-002  0.2015152E+03  0.7818608E-02  0.1148467E+00
          1   -1    0    0  502    0  0.00000000000E+00  0.00000000000E+00  0.34651960763E+04  0.34651960763E+04  0.00000000000E+00 0. -1.
         -1   -1    0    0    0  501 -0.00000000000E+00 -0.00000000000E+00 -0.23380940102E+02  0.23380940102E+02  0.00000000000E+00 0.  1.
          6    2    1    2  502    0  0.10733248736E+02  0.10036898876E+03  0.29545357141E+04  0.29614275925E+04  0.17487985315E+03 0.  0.
         24    2    3    3    0    0 -0.15863696211E+02  0.65102024167E+02  0.84564741480E+03  0.85207150466E+03  0.80102237717E+02 0.  0.
         -6    2    1    2    0  501 -0.10733248736E+02 -0.10036898876E+03  0.48727942212E+03  0.52714942395E+03  0.17394293150E+03 0.  0.
        -24    2    5    5    0    0  0.34591527519E+02 -0.12281610173E+03  0.38675469677E+03  0.41451941627E+03  0.77244950473E+02 0.  0.
          5    1    3    3  502    0  0.26596944947E+02  0.35266964592E+02  0.21088882993E+04  0.21093560878E+04  0.47000000000E+01 0. -1.
        -13    1    4    4    0    0 -0.42280903322E+02  0.64323363193E+02  0.67767239475E+03  0.68203009058E+03  0.00000000000E+00 0.  1.
         14    1    4    4    0    0  0.26417207112E+02  0.77866097449E+00  0.16797502005E+03  0.17004141409E+03  0.00000000000E+00 0. -1.
         -5    1    5    5    0  501 -0.45324776255E+02  0.22447112966E+02  0.10052472535E+03  0.11263000768E+03  0.47000000000E+01 0.  1.
         13    1    6    6    0    0 -0.18206100070E+02 -0.78782284193E+01  0.29631043677E+02  0.35658481630E+02  0.00000000000E+00 0. -1.
        -14    1    6    6    0    0  0.52797627589E+02 -0.11493787331E+03  0.35712365310E+03  0.37886093464E+03  0.00000000000E+00 0.  1.
</event>
<event>
12    1  0.1348628E-002  0.2893077E+03  0.7818608E-02  0.1090711E+00
         -3   -1    0    0    0  501 -0.00000000000E+00  0.00000000000E+00  0.34526405141E+03  0.34526405141E+03  0.00000000000E+00 0.  1.
          3   -1    0    0  502    0  0.00000000000E+00 -0.00000000000E+00 -0.28210389036E+03  0.28210389036E+03  0.00000000000E+00 0. -1.
          6    2    1    2  502    0  0.20625869327E+03 -0.10411537095E+03 -0.86196161198E+02  0.30049206197E+03  0.17170626688E+03 0.  0.
         24    2    3    3    0    0  0.47003911077E+02  0.13065551401E+02 -0.28445725543E+02  0.94456489724E+02  0.75715208904E+02 0.  0.
         -6    2    1    2    0  501 -0.20625869327E+03  0.10411537095E+03  0.14935632225E+03  0.32687587981E+03  0.17651592219E+03 0.  0.
        -24    2    5    5    0    0 -0.11405249147E+03 -0.82385951989E+01  0.10358973412E+03  0.17442238543E+03  0.81341811284E+02 0.  0.
          5    1    3    3  502    0  0.15925478219E+03 -0.11718092235E+03 -0.57750435655E+02  0.20603557225E+03  0.47000000000E+01 0. -1.
        -11    1    4    4    0    0  0.43701564333E+02 -0.11070259084E+02  0.12525959595E+02  0.46789710676E+02  0.00000000000E+00 0.  1.
         12    1    4    4    0    0  0.33023467442E+01  0.24135810485E+02 -0.40971685138E+02  0.47666779048E+02  0.00000000000E+00 0. -1.
         -5    1    5    5    0  501 -0.92206201800E+02  0.11235396615E+03  0.45766588131E+02  0.15245349438E+03  0.47000000000E+01 0.  1.
         13    1    6    6    0    0 -0.39660159011E+02 -0.36462395824E+02  0.16244660927E+02  0.56270094461E+02  0.00000000000E+00 0. -1.
        -14    1    6    6    0    0 -0.74392332455E+02  0.28223800625E+02  0.87345073191E+02  0.11815229097E+03  0.00000000000E+00 0.  1.
</event>
<event>
12    1  0.1348628E-002  0.2319775E+03  0.7818608E-02  0.1125256E+00
          2   -1    0    0  502    0  0.00000000000E+00  0.00000000000E+00  0.66856207723E+02  0.66856207723E+02  0.00000000000E+00 0.  1.
         -2   -1    0    0    0  501 -0.00000000000E+00 -0.00000000000E+00 -0.80835613236E+03  0.80835613236E+03  0.00000000000E+00 0. -1.
          6    2    1    2  502    0 -0.12053869451E+03  0.94292646432E+02 -0.34000718654E+03  0.41078599200E+03  0.17239363179E+03 0.  0.
         24    2    3    3    0    0 -0.11618905759E+03  0.94524708924E+02 -0.35559537401E+03  0.39393206715E+03  0.79369930156E+02 0.  0.
         -6    2    1    2    0  501  0.12053869451E+03 -0.94292646432E+02 -0.40149273810E+03  0.46442634808E+03  0.17628027116E+03 0.  0.
        -24    2    5    5    0    0  0.74890479611E+02 -0.80772104426E+02 -0.39290174362E+03  0.41582120673E+03  0.80017367124E+02 0.  0.
          5    1    3    3  502    0 -0.43496369171E+01 -0.23206249177E+00  0.15588187469E+02  0.16853924851E+02  0.47000000000E+01 0. -1.
        -11    1    4    4    0    0 -0.99585243435E+02  0.33513070656E+02 -0.24412461036E+03  0.26577654524E+03  0.00000000000E+00 0.  1.
         12    1    4    4    0    0 -0.16603814155E+02  0.61011638268E+02 -0.11147076365E+03  0.12815552191E+03  0.00000000000E+00 0. -1.
         -5    1    5    5    0  501  0.45648214895E+02 -0.13520542006E+02 -0.85909944800E+01  0.48605141348E+02  0.47000000000E+01 0.  1.
         11    1    6    6    0    0  0.82936516554E+02 -0.39239419686E+02 -0.30051222920E+03  0.31420661631E+03  0.00000000000E+00 0. -1.
        -12    1    6    6    0    0 -0.80460369423E+01 -0.41532684740E+02 -0.92389514419E+02  0.10161459042E+03  0.00000000000E+00 0.  1.
</event>
<event>
12    1  0.1348628E-002  0.2851322E+03  0.7818608E-02  0.1092918E+00
         -2   -1    0    0    0  501 -0.00000000000E+00  0.00000000000E+00  0.77956671762E+02  0.77956671762E+02  0.00000000000E+00 0.  1.
          2   -1    0    0  502    0  0.00000000000E+00 -0.00000000000E+00 -0.10434854794E+04  0.10434854794E+04  0.00000000000E+00 0. -1.
          6    2    1    2  502    0 -0.10816580826E+03  0.20120125002E+03 -0.49450403309E+03  0.57037190313E+03  0.16913924454E+03 0.  0.
         24    2    3    3    0    0 -0.10999754413E+03  0.16917532619E+03 -0.28334051037E+03  0.35673403574E+03  0.79104846442E+02 0.  0.
         -6    2    1    2    0  501  0.10816580826E+03 -0.20120125002E+03 -0.47102477458E+03  0.55107024807E+03  0.17214033506E+03 0.  0.
        -24    2    5    5    0    0  0.10302323183E+03 -0.21035511178E+03 -0.47771324114E+03  0.53776367591E+03  0.78209788523E+02 0.  0.
          5    1    3    3  502    0  0.18317358729E+01  0.32025923832E+02 -0.21116352272E+03  0.21363786739E+03  0.47000000000E+01 0. -1.
        -13    1    4    4    0    0 -0.78368433364E+01 -0.47224287705E+00  0.31515563765E+01  0.84599902132E+01  0.00000000000E+00 0.  1.
         14    1    4    4    0    0 -0.10216070080E+03  0.16964756907E+03 -0.28649206675E+03  0.34827404553E+03  0.00000000000E+00 0. -1.
         -5    1    5    5    0  501  0.51425764353E+01  0.91538617593E+01  0.66884665667E+01  0.13306572155E+02  0.47000000000E+01 0.  1.
         13    1    6    6    0    0  0.57760607326E+02 -0.18689572971E+03 -0.39003603584E+03  0.43634208002E+03  0.00000000000E+00 0. -1.
        -14    1    6    6    0    0  0.45262624501E+02 -0.23459382069E+02 -0.87677205304E+02  0.10142159589E+03  0.00000000000E+00 0.  1.
</event>
<event>
12    1  0.1348628E-002  0.3070493E+03  0.7818608E-02  0.1081769E+00
         -2   -1    0    0    0  501 -0.00000000000E+00  0.00000000000E+00  0.12691544128E+03  0.12691544128E+03  0.00000000000E+00 0.  1.
          2   -1    0    0  502    0  0.00000000000E+00 -0.00000000000E+00 -0.12907734758E+04  0.12907734758E+04  0.00000000000E+00 0. -1.
          6    2    1    2  502    0 -0.25363646791E+03 -0.15454093311E+02 -0.10436951414E+04  0.10879066789E+04  0.17225303138E+03 0.  0.
         24    2    3    3    0    0 -0.22928479669E+03 -0.69933102310E+01 -0.65884162624E+03  0.70216206529E+03  0.79616914627E+02 0.  0.
         -6    2    1    2    0  501  0.25363646791E+03  0.15454093311E+02 -0.12016289309E+03  0.32978223822E+03  0.17247294547E+03 0.  0.
        -24    2    5    5    0    0  0.71183022874E+02  0.39082259515E+02 -0.83640702663E+01  0.11444850508E+03  0.80212573141E+02 0.  0.
          5    1    3    3  502    0 -0.24351671215E+02 -0.84607830801E+01 -0.38485351519E+03  0.38574461356E+03  0.47000000000E+01 0. -1.
        -11    1    4    4    0    0 -0.13993696118E+03 -0.14216312903E+02 -0.28627674101E+03  0.31896524748E+03  0.00000000000E+00 0.  1.
         12    1    4    4    0    0 -0.89347835508E+02  0.72230026718E+01 -0.37256488523E+03  0.38319681782E+03  0.00000000000E+00 0. -1.
         -5    1    5    5    0  501  0.18245344503E+03 -0.23628166203E+02 -0.11179882283E+03  0.21533373314E+03  0.47000000000E+01 0.  1.
         13    1    6    6    0    0  0.23989026359E+02  0.57046201385E+01  0.34556445661E+02  0.42451902352E+02  0.00000000000E+00 0. -1.
        -14    1    6    6    0    0  0.47193996515E+02  0.33377639376E+02 -0.42920515927E+02  0.71996602731E+02  0.00000000000E+00 0.  1.
</event>
<event>
12    1  0.1348628E-002  0.2296222E+03  0.7818608E-02  0.1126906E+00
          1   -1    0    0  502    0  0.00000000000E+00  0.00000000000E+00  0.43188325614E+03  0.43188325614E+03  0.00000000000E+00 0.  1.
         -1   -1    0    0    0  501 -0.00000000000E+00 -0.00000000000E+00 -0.29970843290E+03  0.29970843290E+03  0.00000000000E+00 0. -1.
          6    2    1    2  502    0 -0.75950250946E+02  0.13192690695E+03  0.34775578463E+03  0.41703024230E+03  0.17264700361E+03 0.  0.
         24    2    3    3    0    0 -0.88231932958E+02  0.28471414715E+02  0.14912037422E+03  0.19268230972E+03  0.79335307533E+02 0.  0.
         -6    2    1    2    0  501  0.75950250946E+02 -0.13192690695E+03 -0.21558096139E+03  0.31456144674E+03  0.17117419042E+03 0.  0.
        -24    2    5    5    0    0 -0.23619380498E+02 -0.71447604385E+02 -0.65579088173E+02  0.12457589594E+03  0.74537921466E+02 0.  0.
          5    1    3    3  502    0  0.12281682013E+02  0.10345549223E+03  0.19863541041E+03  0.22434793258E+03  0.47000000000E+01 0. -1.
        -13    1    4    4    0    0 -0.38388667049E+02  0.52092108066E+02  0.62315566632E+02  0.89836002389E+02  0.00000000000E+00 0.  1.
         14    1    4    4    0    0 -0.49843265910E+02 -0.23620693351E+02  0.86804807589E+02  0.10284630733E+03  0.00000000000E+00 0. -1.
         -5    1    5    5    0  501  0.99569631444E+02 -0.60479302560E+02 -0.15000187322E+03  0.18998555080E+03  0.47000000000E+01 0.  1.
         13    1    6    6    0    0 -0.29717833525E+02 -0.78102314561E+02 -0.31472748892E+02  0.89295325140E+02  0.00000000000E+00 0. -1.
        -14    1    6    6    0    0  0.60984530270E+01  0.66547101755E+01 -0.34106339281E+02  0.35280570801E+02  0.00000000000E+00 0.  1.
</event>
<event>
12    1  0.1348628E-002  0.2631444E+03  0.7818608E-02  0.1105269E+00
         -2   -1    0    0    0  501 -0.00000000000E+00  0.00000000000E+00  0.39212151706E+02  0.39212151706E+02  0.00000000000E+00 0. -1.
          2   -1    0    0  502    0  0.00000000000E+00 -0.00000000000E+00 -0.28954187718E+04  0.28954187718E+04  0.00000000000E+00 0.  1.
          6    2    1    2  502    0  0.66072617260E+02 -0.18751913971E+03 -0.23453444783E+04  0.23600868934E+04  0.17274375140E+03 0.  0.
         24    2    3    3    0    0  0.26065197463E+02 -0.17887226040E+02 -0.95014970809E+03  0.95404062218E+03  0.80060562185E+02 0.  0.
         -6    2    1    2    0  501 -0.66072617260E+02  0.18751913971E+03 -0.51086214177E+03  0.57454403016E+03  0.17202237117E+03 0.  0.
        -24    2    5    5    0    0  0.27920573845E+02  0.10316555314E+03 -0.22085872102E+03  0.25819877321E+03  0.80407350665E+02 0.  0.
          5    1    3    3  502    0  0.40007419797E+02 -0.16963191367E+03 -0.13951947702E+04  0.14060462712E+04  0.47000000000E+01 0. -1.
        -13    1    4    4    0    0 -0.46040178282E+01 -0.35080132656E+02 -0.74943418492E+03  0.75026889194E+03  0.00000000000E+00 0.  1.
         14    1    4    4    0    0  0.30669215291E+02  0.17192906616E+02 -0.20071552317E+03  0.20377173025E+03  0.00000000000E+00 0. -1.
         -5    1    5    5    0  501 -0.93993191105E+02  0.84353586569E+02 -0.29000342076E+03  0.31634525695E+03  0.47000000000E+01 0.  1.
         13    1    6    6    0    0 -0.40051447152E+01  0.97789972863E+02 -0.18867142811E+03  0.21254606033E+03  0.00000000000E+00 0. -1.
        -14    1    6    6    0    0  0.31925718560E+02  0.53755802787E+01 -0.32187292905E+02  0.45652712882E+02  0.00000000000E+00 0.  1.
</event>
<event>
12    1  0.1348628E-002  0.2572738E+03  0.7818608E-02  0.1108792E+00
         -2   -1    0    0    0  501 -0.00000000000E+00  0.00000000000E+00  0.65902159661E+02  0.65902159661E+02  0.00000000000E+00 0. -1.
          2   -1    0    0  502    0  0.00000000000E+00 -0.00000000000E+00 -0.12609920342E+04  0.12609920342E+04  0.00000000000E+00 0.  1.
          6    2    1    2  502    0  0.16402073152E+03 -0.99305329822E+02 -0.29355144871E+03  0.38865073131E+03  0.16766809180E+03 0.  0.
         24    2    3    3    0    0  0.13958475187E+03 -0.24885222671E+02 -0.16161280985E+03  0.23514058874E+03  0.95232446682E+02 0.  0.
         -6    2    1    2    0  501 -0.16402073152E+03  0.99305329822E+02 -0.90153842587E+03  0.93824346259E+03  0.17539929553E+03 0.  0.
        -24    2    5    5    0    0 -0.41718264325E+02  0.97940644673E+02 -0.39653382375E+03  0.41861716032E+03  0.81660700946E+02 0.  0.
          5    1    3    3  502    0  0.24435979658E+02 -0.74420107150E+02 -0.13193863885E+03  0.15351014257E+03  0.47000000000E+01 0. -1.
        -13    1    4    4    0    0  0.67302940599E+02 -0.15187754681E+02 -0.13866315032E+02  0.70374913131E+02  0.00000000000E+00 0.  1.
         14    1    4    4    0    0  0.72281811267E+02 -0.96974679900E+01 -0.14774649482E+03  0.16476567560E+03  0.00000000000E+00 0. -1.
         -5    1    5    5    0  501 -0.12230246720E+03  0.13646851489E+01 -0.50500460213E+03  0.51962630228E+03  0.47000000000E+01 0.  1.
         11    1    6    6    0    0 -0.26824343175E+01  0.22864738561E+02 -0.23624489179E+03  0.23736394128E+03  0.00000000000E+00 0. -1.
        -12    1    6    6    0    0 -0.39035830007E+02  0.75075906112E+02 -0.16028893195E+03  0.18125321903E+03  0.00000000000E+00 0.  1.
</event>
<event>
12    1  0.1348628E-002  0.2257794E+03  0.7818608E-02  0.1129646E+00
         -1   -1    0    0    0  501 -0.00000000000E+00  0.00000000000E+00  0.20445191458E+03  0.20445191458E+03  0.00000000000E+00 0.  1.
          1   -1    0    0  502    0  0.00000000000E+00 -0.00000000000E+00 -0.27931572020E+03  0.27931572020E+03  0.00000000000E+00 0. -1.
          6    2    1    2  502    0 -0.37205827038E+02 -0.14145989805E+03 -0.11668307878E+03  0.25414966853E+03  0.17199400228E+03 0.  0.
         24    2    3    3    0    0  0.22196686801E+02 -0.48386792655E+02 -0.30969912959E+01  0.95672064852E+02  0.79432852331E+02 0.  0.
         -6    2    1    2    0  501  0.37205827038E+02  0.14145989805E+03  0.41819273160E+02  0.22961796624E+03  0.17198948367E+03 0.  0.
        -24    2    5    5    0    0  0.17731583989E+02  0.91356368698E+00  0.53758278769E+02  0.87149906315E+02  0.66256395655E+02 0.  0.
          5    1    3    3  502    0 -0.59402513839E+02 -0.93073105394E+02 -0.11358608748E+03  0.15847760368E+03  0.47000000000E+01 0. -1.
        -11    1    4    4    0    0  0.23934777708E+02 -0.27174035410E+02 -0.39447949579E+02  0.53548506145E+02  0.00000000000E+00 0.  1.
         12    1    4    4    0    0 -0.17380909065E+01 -0.21212757246E+02  0.36350958283E+02  0.42123558706E+02  0.00000000000E+00 0. -1.
         -5    1    5    5    0  501  0.19474243049E+02  0.14054633436E+03 -0.11939005609E+02  0.14246805993E+03  0.47000000000E+01 0.  1.
         13    1    6    6    0    0 -0.20084037789E+02 -0.68120421807E+01  0.29445688976E+00  0.21209884428E+02  0.00000000000E+00 0. -1.
        -14    1    6    6    0    0  0.37815621778E+02  0.77256058677E+01  0.53463821879E+02  0.65940021887E+02  0.00000000000E+00 0.  1.
</event>
<event>
12    1  0.1348628E-002  0.2097592E+03  0.7818608E-02  0.1141757E+00
         -1   -1    0    0    0  501 -0.00000000000E+00  0.00000000000E+00  0.55467929848E+02  0.55467929848E+02  0.00000000000E+00 0. -1.
          1   -1    0    0  502    0  0.00000000000E+00 -0.00000000000E+00 -0.81919491788E+03  0.81919491788E+03  0.00000000000E+00 0.  1.
          6    2    1    2  502    0 -0.80693113468E+02 -0.88915258143E+02 -0.45786440117E+03  0.50319598891E+03  0.17073105080E+03 0.  0.
         24    2    3    3    0    0 -0.12678974485E+02 -0.78925977982E+02 -0.15342442671E+03  0.19105580106E+03  0.81075261426E+02 0.  0.
         -6    2    1    2    0  501  0.80693113468E+02  0.88915258143E+02 -0.30586258686E+03  0.37146685882E+03  0.17325819884E+03 0.  0.
        -24    2    5    5    0    0  0.82249512585E+02  0.38671882750E+02 -0.92563847843E+02  0.15227456603E+03  0.79743217241E+02 0.  0.
          5    1    3    3  502    0 -0.68014138983E+02 -0.99892801610E+01 -0.30443997446E+03  0.31214018784E+03  0.47000000000E+01 0. -1.
        -11    1    4    4    0    0 -0.25385107424E+02 -0.91570996396E+02 -0.13709433021E+03  0.16680679373E+03  0.00000000000E+00 0.  1.
         12    1    4    4    0    0  0.12706132939E+02  0.12645018414E+02 -0.16330096502E+02  0.24249007335E+02  0.00000000000E+00 0. -1.
         -5    1    5    5    0  501 -0.15563991175E+01  0.50243375392E+02 -0.21329873902E+03  0.21919229279E+03  0.47000000000E+01 0.  1.
         13    1    6    6    0    0  0.28509135853E+01  0.25491824541E+02  0.46479406111E+01  0.26068451788E+02  0.00000000000E+00 0. -1.
        -14    1    6    6    0    0  0.79398599000E+02  0.13180058210E+02 -0.97211788454E+02  0.12620611424E+03  0.00000000000E+00 0.  1.
</event>
<event>
12    1  0.1348628E-002  0.2008439E+03  0.7818608E-02  0.1149029E+00
         -1   -1    0    0    0  501 -0.00000000000E+00  0.00000000000E+00  0.38024473122E+03  0.38024473122E+03  0.00000000000E+00 0.  1.
          1   -1    0    0  502    0  0.00000000000E+00 -0.00000000000E+00 -0.11487307556E+03  0.11487307556E+03  0.00000000000E+00 0. -1.
          6    2    1    2  502    0  0.38938949556E+02 -0.95872262107E+02  0.20071027102E+03  0.28343059968E+03  0.17129086230E+03 0.  0.
         24    2    3    3    0    0  0.65671466483E+02 -0.10515308603E+03  0.20749552626E+03  0.25395364525E+03  0.77898315156E+02 0.  0.
         -6    2    1    2    0  501 -0.38938949556E+02  0.95872262107E+02  0.64661384638E+02  0.21168720710E+03  0.17298163646E+03 0.  0.
        -24    2    5    5    0    0 -0.13601652904E+02 -0.46818352845E+01 -0.60314840955E+01  0.86097889110E+02  0.84673154928E+02 0.  0.
          5    1    3    3  502    0 -0.26732516927E+02  0.92808239182E+01 -0.67852552423E+01  0.29476954432E+02  0.47000000000E+01 0. -1.
        -13    1    4    4    0    0  0.16773938123E+02 -0.90728535840E+02  0.10715307226E+03  0.14140301663E+03  0.00000000000E+00 0.  1.
         14    1    4    4    0    0  0.48897528360E+02 -0.14424550185E+02  0.10034245400E+03  0.11255062862E+03  0.00000000000E+00 0. -1.
         -5    1    5    5    0  501 -0.25337296652E+02  0.10055409739E+03  0.70692868733E+02  0.12558931799E+03  0.47000000000E+01 0.  1.
         11    1    6    6    0    0 -0.32124993155E+01  0.24173309610E+02 -0.35827165222E+02  0.43338837285E+02  0.00000000000E+00 0. -1.
        -12    1    6    6    0    0 -0.10389153588E+02 -0.28855144895E+02  0.29795681127E+02  0.42759051825E+02  0.00000000000E+00 0.  1.
</event>
<event>
12    1  0.1348628E-002  0.3936974E+03  0.7818608E-02  0.1045984E+00
          1   -1    0    0  502    0  0.00000000000E+00  0.00000000000E+00  0.15068721745E+04  0.15068721745E+04  0.00000000000E+00 0. -1.
         -1   -1    0    0    0  501 -0.00000000000E+00 -0.00000000000E+00 -0.10318163376E+03  0.10318163376E+03  0.00000000000E+00 0.  1.
          6    2    1    2  502    0  0.77513342795E+02  0.34571948440E+03  0.65704247431E+03  0.76599646235E+03  0.17180071910E+03 0.  0.
         24    2    3    3    0    0  0.11972145330E+03  0.26526862759E+03  0.52891403638E+03  0.60885686976E+03  0.79094619358E+02 0.  0.
         -6    2    1    2    0  501 -0.77513342795E+02 -0.34571948440E+03  0.74664806639E+03  0.84405734587E+03  0.17152022586E+03 0.  0.
        -24    2    5    5    0    0  0.17194967015E+02 -0.16950067485E+03  0.29636959457E+03  0.35131448700E+03  0.80998682258E+02 0.  0.
          5    1    3    3  502    0 -0.42208110500E+02  0.80450856810E+02  0.12812843794E+03  0.15713959260E+03  0.47000000000E+01 0. -1.
        -13    1    4    4    0    0  0.11989863059E+03  0.18031592714E+03  0.37284351241E+03  0.43116331006E+03  0.00000000000E+00 0.  1.
         14    1    4    4    0    0 -0.17717729678E+00  0.84952700447E+02  0.15607052397E+03  0.17769355969E+03  0.00000000000E+00 0. -1.
         -5    1    5    5    0  501 -0.94708309811E+02 -0.17621880955E+03  0.45027847182E+03  0.49274285888E+03  0.47000000000E+01 0.  1.
         13    1    6    6    0    0 -0.17872063931E+02 -0.96318152183E+02  0.21563614648E+03  0.23684498048E+03  0.00000000000E+00 0. -1.
        -14    1    6    6    0    0  0.35067030946E+02 -0.73182522666E+02  0.80733448083E+02  0.11446950652E+03  0.00000000000E+00 0.  1.
</event>
<event>
12    1  0.1348628E-002  0.2408844E+03  0.7818608E-02  0.1119205E+00
          2   -1    0    0  502    0  0.00000000000E+00  0.00000000000E+00  0.22373395142E+04  0.22373395142E+04  0.00000000000E+00 0.  1.
         -2   -1    0    0    0  501 -0.00000000000E+00 -0.00000000000E+00 -0.29448599955E+02  0.29448599955E+02  0.00000000000E+00 0. -1.
          6    2    1    2  502    0  0.12976602706E+03 -0.11068735311E+03  0.14898662066E+04  0.15089967049E+04  0.16816310465E+03 0.  0.
         24    2    3    3    0    0  0.42359797513E+02  0.74585635448E+01  0.56756987219E+03  0.57505295652E+03  0.81855728975E+02 0.  0.
         -6    2    1    2    0  501 -0.12976602706E+03  0.11068735311E+03  0.71802470764E+03  0.75779140930E+03  0.17203902845E+03 0.  0.
        -24    2    5    5    0    0 -0.13949186362E+03  0.13703980627E+03  0.66197124227E+03  0.69491753027E+03  0.80414922514E+02 0.  0.
          5    1    3    3  502    0  0.87406229545E+02 -0.11814591666E+03  0.92229633444E+03  0.93394374836E+03  0.47000000000E+01 0. -1.
        -13    1    4    4    0    0 -0.35543221617E+01 -0.10486865037E+02  0.40551258334E+03  0.40566373117E+03  0.00000000000E+00 0.  1.
         14    1    4    4    0    0  0.45914119675E+02  0.17945428581E+02  0.16205728886E+03  0.16938922535E+03  0.00000000000E+00 0. -1.
         -5    1    5    5    0  501  0.97258365647E+01 -0.26352453159E+02  0.56053465371E+02  0.62873879032E+02  0.47000000000E+01 0.  1.
         13    1    6    6    0    0 -0.25750975042E+02  0.22462553086E+02  0.41357141938E+02  0.53647853601E+02  0.00000000000E+00 0. -1.
        -14    1    6    6    0    0 -0.11374088858E+03  0.11457725319E+03  0.62061410033E+03  0.64126967667E+03  0.00000000000E+00 0.  1.
</event>
<event>
12    1  0.1348628E-002  0.2261859E+03  0.7818608E-02  0.1129353E+00
          1   -1    0    0  502    0  0.00000000000E+00  0.00000000000E+00  0.57376871304E+02  0.57376871304E+02  0.00000000000E+00 0. -1.
         -1   -1    0    0    0  501 -0.00000000000E+00 -0.00000000000E+00 -0.12052260715E+04  0.12052260715E+04  0.00000000000E+00 0.  1.
          6    2    1    2  502    0 -0.67594082183E+02  0.13104443444E+03 -0.89600706148E+03  0.92412407866E+03  0.17156647339E+03 0.  0.
         24    2    3    3    0    0 -0.11230101766E+03  0.97654885549E+02 -0.64209117842E+03  0.66410689130E+03  0.81295057798E+02 0.  0.
         -6    2    1    2    0  501  0.67594082183E+02 -0.13104443444E+03 -0.25184213869E+03  0.33847886412E+03  0.17146974920E+03 0.  0.
        -24    2    5    5    0    0  0.66583559362E+02 -0.10435128943E+03 -0.83933469448E+02  0.16839371970E+03  0.77388988597E+02 0.  0.
          5    1    3    3  502    0  0.44706935473E+02  0.33389548893E+02 -0.25391588305E+03  0.26001718736E+03  0.47000000000E+01 0. -1.
        -11    1    4    4    0    0 -0.28026257462E+02  0.73568224049E+02 -0.24032314752E+03  0.25288924440E+03  0.00000000000E+00 0.  1.
         12    1    4    4    0    0 -0.84274760193E+02  0.24086661499E+02 -0.40176803090E+03  0.41121764690E+03  0.00000000000E+00 0. -1.
         -5    1    5    5    0  501  0.10105228207E+01 -0.26693145010E+02 -0.16790866924E+03  0.17008514443E+03  0.47000000000E+01 0.  1.
         13    1    6    6    0    0  0.34375426120E+02 -0.12322923257E+02  0.44593525036E+01  0.36788723589E+02  0.00000000000E+00 0. -1.
        -14    1    6    6    0    0  0.32208133242E+02 -0.92028366175E+02 -0.88392821951E+02  0.13160499611E+03  0.00000000000E+00 0.  1.
</event>
<event>
12    1  0.1348628E-002  0.1907609E+03  0.7818608E-02  0.1157777E+00
          1   -1    0    0  502    0  0.00000000000E+00  0.00000000000E+00  0.27944619117E+04  0.27944619117E+04  0.00000000000E+00 0.  1.
         -1   -1    0    0    0  501 -0.00000000000E+00 -0.00000000000E+00 -0.13101133003E+02  0.13101133003E+02  0.00000000000E+00 0. -1.
          6    2    1    2  502    0  0.76272194635E+02  0.21265191516E+02  0.14997583648E+04  0.15118421389E+04  0.17355645737E+03 0.  0.
         24    2    3    3    0    0  0.86629635985E+02  0.70568915300E+02  0.10288937120E+04  0.10382666485E+04  0.83010223343E+02 0.  0.
         -6    2    1    2    0  501 -0.76272194635E+02 -0.21265191516E+02  0.12816024138E+04  0.12957209058E+04  0.17354613962E+03 0.  0.
        -24    2    5    5    0    0 -0.64120455476E+02 -0.66265215081E+02  0.59160639784E+03  0.60413630580E+03  0.80498661382E+02 0.  0.
          5    1    3    3  502    0 -0.10357441350E+02 -0.49303723784E+02  0.47086465282E+03  0.47357549034E+03  0.47000000000E+01 0. -1.
        -11    1    4    4    0    0  0.47404475321E+02 -0.24759825502E-01  0.59758454703E+03  0.59946182175E+03  0.00000000000E+00 0.  1.
         12    1    4    4    0    0  0.39225160664E+02  0.70593675125E+02  0.43130916499E+03  0.43880482678E+03  0.00000000000E+00 0. -1.
         -5    1    5    5    0  501 -0.12151739159E+02  0.45000023566E+02  0.68999601598E+03  0.69158460000E+03  0.47000000000E+01 0.  1.
         11    1    6    6    0    0 -0.28875596088E+02 -0.77396011724E+02  0.34358212688E+03  0.35337320299E+03  0.00000000000E+00 0. -1.
        -12    1    6    6    0    0 -0.35244859388E+02  0.11130796643E+02  0.24802427096E+03  0.25076310281E+03  0.00000000000E+00 0.  1.
</event>
<event>
12    1  0.1348628E-002  0.1913603E+03  0.7818608E-02  0.1157240E+00
          1   -1    0    0  502    0  0.00000000000E+00  0.00000000000E+00  0.77371584047E+03  0.77371584047E+03  0.00000000000E+00 0.  1.
         -1   -1    0    0    0  501 -0.00000000000E+00 -0.00000000000E+00 -0.53494059743E+02  0.53494059743E+02  0.00000000000E+00 0. -1.
          6    2    1    2  502    0  0.78073629168E+02 -0.56294008928E+01  0.21521446904E+03  0.28616941840E+03  0.17160561359E+03 0.  0.
         24    2    3    3    0    0  0.11073561413E+03  0.26250340018E+02  0.18279478655E+03  0.22998891506E+03  0.80805386403E+02 0.  0.
         -6    2    1    2    0  501 -0.78073629168E+02  0.56294008928E+01  0.50500731169E+03  0.54104048182E+03  0.17766608113E+03 0.  0.
        -24    2    5    5    0    0 -0.36673453449E+02 -0.23203072601E+02  0.98135806786E+02  0.13102609478E+03  0.75192261396E+02 0.  0.
          5    1    3    3  502    0 -0.32661984964E+02 -0.31879740911E+02  0.32419682489E+02  0.56180503335E+02  0.47000000000E+01 0. -1.
        -11    1    4    4    0    0  0.23550910411E+02  0.40258654216E+02  0.93055252057E+02  0.10408979083E+03  0.00000000000E+00 0.  1.
         12    1    4    4    0    0  0.87184703720E+02 -0.14008314199E+02  0.89739534494E+02  0.12589912423E+03  0.00000000000E+00 0. -1.
         -5    1    5    5    0  501 -0.41400175719E+02  0.28832473494E+02  0.40687150490E+03  0.41001438704E+03  0.47000000000E+01 0.  1.
         13    1    6    6    0    0 -0.11956118923E+02  0.11832049803E+02 -0.64322646808E+01  0.18008892558E+02  0.00000000000E+00 0. -1.
        -14    1    6    6    0    0 -0.24717334526E+02 -0.35035122404E+02  0.10456807147E+03  0.11301720222E+03  0.00000000000E+00 0.  1.
</event>
<event>
12    1  0.1348628E-002  0.2126571E+03  0.7818608E-02  0.1139479E+00
          2   -1    0    0  502    0  0.00000000000E+00  0.00000000000E+00  0.60699055396E+03  0.60699055396E+03  0.00000000000E+00 0. -1.
         -2   -1    0    0    0  501 -0.00000000000E+00 -0.00000000000E+00 -0.10114600750E+03  0.10114600750E+03  0.00000000000E+00 0.  1.
          6    2    1    2  502    0 -0.12390580255E+03 -0.23157330979E+02  0.70724071954E+02  0.22358780008E+03  0.17058927313E+03 0.  0.
         24    2    3    3    0    0 -0.12435821100E+03  0.31354391909E+02  0.73215280481E+02  0.16881528210E+03  0.81792784769E+02 0.  0.
         -6    2    1    2    0  501  0.12390580255E+03  0.23157330979E+02  0.43512047451E+03  0.48454876138E+03  0.17195570631E+03 0.  0.
        -24    2    5    5    0    0  0.85049521739E+02  0.27716652456E+02  0.42777533959E+03  0.44446586007E+03  0.80972375738E+02 0.  0.
          5    1    3    3  502    0  0.45240845638E+00 -0.54511722888E+02 -0.24912085269E+01  0.54772517977E+02  0.47000000000E+01 0. -1.
        -11    1    4    4    0    0 -0.49178794342E+02 -0.22735594910E+02  0.62778265308E+01  0.54542388972E+02  0.00000000000E+00 0.  1.
         12    1    4    4    0    0 -0.75179416661E+02  0.54089986818E+02  0.66937453950E+02  0.11427289313E+03  0.00000000000E+00 0. -1.
         -5    1    5    5    0  501  0.38856280807E+02 -0.45593214761E+01  0.73451349217E+01  0.40082901311E+02  0.47000000000E+01 0.  1.
         11    1    6    6    0    0  0.61729133350E+02 -0.14657220692E+02  0.15579455080E+03  0.16821790060E+03  0.00000000000E+00 0. -1.
        -12    1    6    6    0    0  0.23320388388E+02  0.42373873148E+02  0.27198078879E+03  0.27624795947E+03  0.00000000000E+00 0.  1.
</event>
<event>
12    1  0.1348628E-002  0.1814616E+03  0.7818608E-02  0.1166396E+00
         -2   -1    0    0    0  501 -0.00000000000E+00  0.00000000000E+00  0.23559286056E+02  0.23559286056E+02  0.00000000000E+00 0.  1.
          2   -1    0    0  502    0  0.00000000000E+00 -0.00000000000E+00 -0.14693590773E+04  0.14693590773E+04  0.00000000000E+00 0. -1.
          6    2    1    2  502    0  0.46674460976E+02  0.32273719322E+02 -0.55809928574E+03  0.58686440447E+03  0.17238015611E+03 0.  0.
         24    2    3    3    0    0  0.86004288107E+02 -0.14183632025E+02 -0.38489788904E+03  0.40321818312E+03  0.82707951378E+02 0.  0.
         -6    2    1    2    0  501 -0.46674460976E+02 -0.32273719322E+02 -0.88770050548E+03  0.90605395887E+03  0.17234120424E+03 0.  0.
        -24    2    5    5    0    0  0.25696113333E+02 -0.55305360153E+02 -0.58817015642E+03  0.59700950169E+03  0.82202427564E+02 0.  0.
          5    1    3    3  502    0 -0.39329827131E+02  0.46457351346E+02 -0.17320139670E+03  0.18364622135E+03  0.47000000000E+01 0. -1.
        -13    1    4    4    0    0  0.51859873267E+01 -0.35720857328E+02 -0.10099184680E+03  0.10724843697E+03  0.00000000000E+00 0.  1.
         14    1    4    4    0    0  0.80818300780E+02  0.21537225304E+02 -0.28390604224E+03  0.29596974615E+03  0.00000000000E+00 0. -1.
         -5    1    5    5    0  501 -0.72370574309E+02  0.23031640832E+02 -0.29953034906E+03  0.30904445718E+03  0.47000000000E+01 0.  1.
         13    1    6    6    0    0  0.31284703019E+02  0.76441467715E+01 -0.31413866736E+03  0.31578516107E+03  0.00000000000E+00 0. -1.
        -14    1    6    6    0    0 -0.55885896860E+01 -0.62949506925E+02 -0.27403148907E+03  0.28122434062E+03  0.00000000000E+00 0.  1.
</event>
<event>
12    1  0.1348628E-002  0.2011236E+03  0.7818608E-02  0.1148794E+00
         -1   -1    0    0    0  501 -0.00000000000E+00  0.00000000000E+00  0.18328622957E+02  0.18328622957E+02  0.00000000000E+00 0. -1.
          1   -1    0    0  502    0  0.00000000000E+00 -0.00000000000E+00 -0.22382251359E+04  0.22382251359E+04  0.00000000000E+00 0.  1.
          6    2    1    2  502    0 -0.10076999647E+03 -0.23969084877E+02 -0.12414164538E+04  0.12575488441E+04  0.17200341330E+03 0.  0.
         24    2    3    3    0    0 -0.11353019718E+03 -0.68147414200E+02 -0.89732733412E+03  0.91036883341E+03  0.77729611819E+02 0.  0.
         -6    2    1    2    0  501  0.10076999647E+03  0.23969084877E+02 -0.97848005910E+03  0.99900491476E+03  0.17279607764E+03 0.  0.
        -24    2    5    5    0    0  0.87061937222E+02 -0.41560401467E+02 -0.48113027826E+03  0.49714744599E+03  0.79763340623E+02 0.  0.
          5    1    3    3  502    0  0.12760200713E+02  0.44178329323E+02 -0.34408911969E+03  0.34718001064E+03  0.47000000000E+01 0. -1.
        -13    1    4    4    0    0 -0.33182357053E+02  0.15812374805E+02 -0.18373064106E+03  0.18737141853E+03  0.00000000000E+00 0.  1.
         14    1    4    4    0    0 -0.80347840131E+02 -0.83959789005E+02 -0.71359669306E+03  0.72299741489E+03  0.00000000000E+00 0. -1.
         -5    1    5    5    0  501  0.13708059248E+02  0.65529486344E+02 -0.49734978084E+03  0.50185746878E+03  0.47000000000E+01 0.  1.
         11    1    6    6    0    0 -0.60349622912E+01 -0.11251865475E+02 -0.10764924174E+02  0.16700564032E+02  0.00000000000E+00 0. -1.
        -12    1    6    6    0    0  0.93096899514E+02 -0.30308535992E+02 -0.47036535409E+03  0.48044688195E+03  0.00000000000E+00 0.  1.
</event>
<event>
12    1  0.1348628E-002  0.2340302E+03  0.7818608E-02  0.1123835E+00
         -1   -1    0    0    0  501 -0.00000000000E+00  0.00000000000E+00  0.82131214359E+02  0.82131214359E+02  0.00000000000E+00 0.  1.
          1   -1    0    0  502    0  0.00000000000E+00 -0.00000000000E+00 -0.68099918908E+03  0.68099918908E+03  0.00000000000E+00 0. -1.
          6    2    1    2  502    0  0.13463304404E+03 -0.81519469109E+02 -0.24439766762E+03  0.33834680259E+03  0.17313826409E+03 0.  0.
         24    2    3    3    0    0  0.30669669240E+02 -0.47923422217E+02 -0.37031320032E+02  0.10391137485E+03  0.78670020664E+02 0.  0.
         -6    2    1    2    0  501 -0.13463304404E+03  0.81519469109E+02 -0.35447030710E+03  0.42478360085E+03  0.17326404286E+03 0.  0.
        -24    2    5    5    0    0 -0.13080117722E+02  0.54588958451E+02 -0.22058603867E+03  0.24189715075E+03  0.81883986338E+02 0.  0.
          5    1    3    3  502    0  0.10396337480E+03 -0.33596046892E+02 -0.20736634759E+03  0.23443542774E+03  0.47000000000E+01 0. -1.
        -13    1    4    4    0    0  0.41431981086E+02 -0.56381726287E+02 -0.49249716759E+02  0.85563092024E+02  0.00000000000E+00 0.  1.
         14    1    4    4    0    0 -0.10762311846E+02  0.84583040704E+01  0.12218396727E+02  0.18348282824E+02  0.00000000000E+00 0. -1.
         -5    1    5    5    0  501 -0.12155292631E+03  0.26930510658E+02 -0.13388426843E+03  0.18288645011E+03  0.47000000000E+01 0.  1.
         11    1    6    6    0    0 -0.71314467126E+01  0.22285025854E+02 -0.20355864437E+03  0.20489900344E+03  0.00000000000E+00 0. -1.
        -12    1    6    6    0    0 -0.59486710090E+01  0.32303932597E+02 -0.17027394298E+02  0.36998147313E+02  0.00000000000E+00 0.  1.
</event>
<event>
12    1  0.1348628E-002  0.2100758E+03  0.7818608E-02  0.1141506E+00
         -1   -1    0    0    0  501 -0.00000000000E+00  0.00000000000E+00  0.16656830691E+03  0.16656830691E+03  0.00000000000E+00 0.  1.
          1   -1    0    0  502    0  0.00000000000E+00 -0.00000000000E+00 -0.28467499484E+03  0.28467499484E+03  0.00000000000E+00 0. -1.
          6    2    1    2  502    0 -0.30259424329E+02  0.11639655591E+03 -0.11837707693E+03  0.24090118982E+03  0.17191992300E+03 0.  0.
         24    2    3    3    0    0  0.17875169139E+01  0.94160108048E+02 -0.45425410222E+01  0.12047753092E+03  0.74999197423E+02 0.  0.
         -6    2    1    2    0  501  0.30259424329E+02 -0.11639655591E+03  0.27038900087E+00  0.21034211193E+03  0.17256865286E+03 0.  0.
        -24    2    5    5    0    0 -0.27949005006E+02 -0.12001952418E+03  0.19923229097E+02  0.14861957740E+03  0.80653646311E+02 0.  0.
          5    1    3    3  502    0 -0.32046941243E+02  0.22236447862E+02 -0.11383453591E+03  0.12042365890E+03  0.47000000000E+01 0. -1.
        -13    1    4    4    0    0  0.37572724574E+02  0.37109995851E+02  0.17572874003E+01  0.52838901228E+02  0.00000000000E+00 0.  1.
         14    1    4    4    0    0 -0.35785207660E+02  0.57050112197E+02 -0.62998284225E+01  0.67638629695E+02  0.00000000000E+00 0. -1.
         -5    1    5    5    0  501  0.58208429336E+02  0.36229682670E+01 -0.19652840097E+02  0.61722534529E+02  0.47000000000E+01 0.  1.
         13    1    6    6    0    0  0.10977575044E+02  0.47850255243E+01  0.13039746945E+02  0.17704197906E+02  0.00000000000E+00 0. -1.
        -14    1    6    6    0    0 -0.38926580050E+02 -0.12480454970E+03  0.68834821522E+01  0.13091537949E+03  0.00000000000E+00 0.  1.
</event>
<event>
12    1  0.1348628E-002  0.1748698E+03  0.7818608E-02  0.1172863E+00
         -1   -1    0    0    0  501 -0.00000000000E+00  0.00000000000E+00  0.36462438440E+03  0.36462438440E+03  0.00000000000E+00 0.  1.
          1   -1    0    0  502    0  0.00000000000E+00 -0.00000000000E+00 -0.10415920733E+03  0.10415920733E+03  0.00000000000E+00 0. -1.
          6    2    1    2  502    0  0.10887449736E+02 -0.24220513429E+02  0.23334996542E+03  0.29126262728E+03  0.17226880697E+03 0.  0.
         24    2    3    3    0    0 -0.41752894267E+02 -0.42350916741E+02  0.80473839644E+02  0.12849617750E+03  0.80612185409E+02 0.  0.
         -6    2    1    2    0  501 -0.10887449736E+02  0.24220513429E+02  0.27115211648E+02  0.17752096446E+03  0.17341651676E+03 0.  0.
        -24    2    5    5    0    0  0.17759329462E+02  0.25354582752E+02  0.80656263147E+02  0.11660579174E+03  0.78314936200E+02 0.  0.
          5    1    3    3  502    0  0.52640344003E+02  0.18130403312E+02  0.15287612578E+03  0.16276644978E+03  0.47000000000E+01 0. -1.
        -11    1    4    4    0    0 -0.14205444113E+02 -0.31918449800E+01  0.79277435930E+02  0.80603314848E+02  0.00000000000E+00 0.  1.
         12    1    4    4    0    0 -0.27547450153E+02 -0.39159071761E+02  0.11964037148E+01  0.47892862652E+02  0.00000000000E+00 0. -1.
         -5    1    5    5    0  501 -0.28646779199E+02 -0.11340693230E+01 -0.53541051500E+02  0.60915172719E+02  0.47000000000E+01 0.  1.
         13    1    6    6    0    0  0.34709544084E+02  0.95822465572E+01  0.36480953334E+01  0.36192271263E+02  0.00000000000E+00 0. -1.
        -14    1    6    6    0    0 -0.16950214622E+02  0.15772336195E+02  0.77008167814E+02  0.80413520473E+02  0.00000000000E+00 0.  1.
</event>
<event>
12    1  0.1348628E-002  0.2513004E+03  0.7818608E-02  0.1112486E+00
         -2   -1    0    0    0  501 -0.00000000000E+00  0.00000000000E+00  0.62505752117E+02  0.62505752117E+02  0.00000000000E+00 0.  1.
          2   -1    0    0  502    0  0.00000000000E+00 -0.00000000000E+00 -0.10976096103E+04  0.10976096103E+04  0.00000000000E+00 0. -1.
          6    2    1    2  502    0 -0.14486092310E+03  0.11131309150E+03 -0.67863674866E+03  0.72322417261E+03  0.17067535214E+03 0.  0.
         24    2    3    3    0    0 -0.94407491361E+02  0.13943970715E+03 -0.45004794563E+03  0.48740308331E+03  0.81623562188E+02 0.  0.
         -6    2    1    2    0  501  0.14486092310E+03 -0.11131309150E+03 -0.35646710952E+03  0.43689118981E+03  0.17444145203E+03 0.  0.
        -24    2    5    5    0    0  0.91930263616E+02 -0.14583801113E+03 -0.27716221291E+03  0.33537773546E+03  0.77067725517E+02 0.  0.
          5    1    3    3  502    0 -0.50453431734E+02 -0.28126615654E+02 -0.22858880304E+03  0.23582108929E+03  0.47000000000E+01 0. -1.
        -11    1    4    4    0    0 -0.10782122613E+03  0.13524593861E+03 -0.42047943216E+03  0.45466452862E+03  0.00000000000E+00 0.  1.
         12    1    4    4    0    0  0.13413734765E+02  0.41937685459E+01 -0.29568513462E+02  0.32738554692E+02  0.00000000000E+00 0. -1.
         -5    1    5    5    0  501  0.52930659479E+02  0.34524919632E+02 -0.79304896611E+02  0.10151345435E+03  0.47000000000E+01 0.  1.
         11    1    6    6    0    0 -0.12277086549E+02 -0.10822188215E+02 -0.40338153049E+02  0.43531749371E+02  0.00000000000E+00 0. -1.
        -12    1    6    6    0    0  0.10420735017E+03 -0.13501582291E+03 -0.23682405986E+03  0.29184598609E+03  0.00000000000E+00 0.  1.
</event>
<event>
12    1  0.1348628E-002  0.1764960E+03  0.7818608E-02  0.1171238E+00
          1   -1    0    0  502    0  0.00000000000E+00  0.00000000000E+00  0.84540992812E+03  0.84540992812E+03  0.00000000000E+00 0.  1.
         -1   -1    0    0    0  501 -0.00000000000E+00 -0.00000000000E+00 -0.36951143611E+02  0.36951143611E+02  0.00000000000E+00 0. -1.
          6    2    1    2  502    0 -0.17933403862E+02  0.32214134469E+02  0.38173464367E+03  0.42072813810E+03  0.17300714026E+03 0.  0.
         24    2    3    3    0    0  0.12960772741E+02  0.42648922034E+02  0.37614182080E+03  0.38731100766E+03  0.80871720130E+02 0.  0.
         -6    2    1    2    0  501  0.17933403862E+02 -0.32214134469E+02  0.42672414084E+03  0.46163293363E+03  0.17219789662E+03 0.  0.
        -24    2    5    5    0    0  0.19661248754E+02 -0.87722291540E+02  0.27679610195E+03  0.30168091646E+03  0.79457713076E+02 0.  0.
          5    1    3    3  502    0 -0.30894176603E+02 -0.10434787565E+02  0.55928228663E+01  0.33417130444E+02  0.47000000000E+01 0. -1.
        -13    1    4    4    0    0 -0.10053021369E+02  0.60231470468E+02  0.21140120380E+03  0.22004400069E+03  0.00000000000E+00 0.  1.
         14    1    4    4    0    0  0.23013794110E+02 -0.17582548434E+02  0.16474061700E+03  0.16726700697E+03  0.00000000000E+00 0. -1.
         -5    1    5    5    0  501 -0.17278448919E+01  0.55508157072E+02  0.14992803889E+03  0.15995201717E+03  0.47000000000E+01 0.  1.
         13    1    6    6    0    0  0.99237565828E+00 -0.98439648928E+02  0.22567741060E+03  0.24621462781E+03  0.00000000000E+00 0. -1.
        -14    1    6    6    0    0  0.18668873095E+02  0.10717357387E+02  0.51118691343E+02  0.55466288651E+02  0.00000000000E+00 0.  1.
</event>
<event>
12    1  0.1348628E-002  0.1766592E+03  0.7818608E-02  0.1171076E+00
          2   -1    0    0  502    0  0.00000000000E+00  0.00000000000E+00  0.62095698193E+03  0.62095698193E+03  0.00000000000E+00 0.  1.
         -2   -1    0    0    0  501 -0.00000000000E+00 -0.00000000000E+00 -0.50799615853E+02  0.50799615853E+02  0.00000000000E+00 0. -1.
          6    2    1    2  502    0  0.39591689296E+02 -0.11947815123E+02  0.25079327060E+03  0.30690106118E+03  0.17199053645E+03 0.  0.
         24    2    3    3    0    0  0.92676659286E+02 -0.23631324503E+00  0.17007475678E+03  0.20947035869E+03  0.79770854667E+02 0.  0.
         -6    2    1    2    0  501 -0.39591689296E+02  0.11947815123E+02  0.31936409548E+03  0.36485553661E+03  0.17151059723E+03 0.  0.
        -24    2    5    5    0    0  0.16629375513E+02  0.30994551978E+02  0.28068620628E+03  0.29385092108E+03  0.79538789538E+02 0.  0.
          5    1    3    3  502    0 -0.53084969990E+02 -0.11711501878E+02  0.80718513816E+02  0.97430702490E+02  0.47000000000E+01 0. -1.
        -13    1    4    4    0    0  0.14150957135E+02  0.19684083908E+02  0.98269190495E+02  0.10121534739E+03  0.00000000000E+00 0.  1.
         14    1    4    4    0    0  0.78525702151E+02 -0.19920397153E+02  0.71805566288E+02  0.10825501130E+03  0.00000000000E+00 0. -1.
         -5    1    5    5    0  501 -0.56221064809E+02 -0.19046736855E+02  0.38677889202E+02  0.71004615527E+02  0.47000000000E+01 0.  1.
         13    1    6    6    0    0 -0.26563429825E+02  0.24199821277E+02  0.70100534087E+02  0.78773929908E+02  0.00000000000E+00 0. -1.
        -14    1    6    6    0    0  0.43192805338E+02  0.67947307005E+01  0.21058567219E+03  0.21507699117E+03  0.00000000000E+00 0.  1.
</event>
<event>
12    1  0.1348628E-002  0.3562533E+03  0.7818608E-02  0.1060077E+00
         -1   -1    0    0    0  501 -0.00000000000E+00  0.00000000000E+00  0.68422898272E+02  0.68422898272E+02  0.00000000000E+00 0.  1.
          1   -1    0    0  502    0  0.00000000000E+00 -0.00000000000E+00 -0.21897384327E+04  0.21897384327E+04  0.00000000000E+00 0. -1.
          6    2    1    2  502    0  0.16272986198E+03  0.26514596804E+03 -0.15041792254E+04  0.15459747865E+04  0.17521274573E+03 0.  0.
         24    2    3    3    0    0  0.18599456616E+03  0.21532577470E+03 -0.11600701712E+04  0.11974687905E+04  0.84908975998E+02 0.  0.
         -6    2    1    2    0  501 -0.16272986198E+03 -0.26514596804E+03 -0.61713630903E+03  0.71218654440E+03  0.17195655774E+03 0.  0.
        -24    2    5    5    0    0 -0.74820148422E+02 -0.94552083258E+02 -0.38515214222E+03  0.41107338475E+03  0.78108923534E+02 0.  0.
          5    1    3    3  502    0 -0.23264704182E+02  0.49820193335E+02 -0.34410905419E+03  0.34850599607E+03  0.47000000000E+01 0. -1.
        -11    1    4    4    0    0  0.31479711787E+02  0.31763114485E+02 -0.86083146236E+02  0.97006060439E+02  0.00000000000E+00 0.  1.
         12    1    4    4    0    0  0.15451485438E+03  0.18356266021E+03 -0.10739870249E+04  0.11004627300E+04  0.00000000000E+00 0. -1.
         -5    1    5    5    0  501 -0.87909713559E+02 -0.17059388478E+03 -0.23198416682E+03  0.30111315965E+03  0.47000000000E+01 0.  1.
         11    1    6    6    0    0 -0.43081065477E+02 -0.10217859685E+03 -0.30474112259E+03  0.32428937024E+03  0.00000000000E+00 0. -1.
        -12    1    6    6    0    0 -0.31739082945E+02  0.76265135912E+01 -0.80411019628E+02  0.86784014503E+02  0.00000000000E+00 0.  1.
</event>
<event>
12    1  0.1348628E-002  0.3427959E+03  0.7818608E-02  0.1065611E+00
          2   -1    0    0  502    0  0.00000000000E+00  0.00000000000E+00  0.32038070107E+04  0.32038070107E+04  0.00000000000E+00 0. -1.
         -2   -1    0    0    0  501 -0.00000000000E+00 -0.00000000000E+00 -0.55261565745E+02  0.55261565745E+02  0.00000000000E+00 0.  1.
          6    2    1    2  502    0  0.29257145006E+03 -0.42697826259E+02  0.62734965108E+03  0.71458849950E+03  0.17218589127E+03 0.  0.
         24    2    3    3    0    0  0.11848454259E+03 -0.52775470264E+02  0.39694046283E+03  0.42559318070E+03  0.82121783535E+02 0.  0.
         -6    2    1    2    0  501 -0.29257145006E+03  0.42697826259E+02  0.25211957939E+04  0.25444800769E+04  0.17472685301E+03 0.  0.
        -24    2    5    5    0    0 -0.13396122514E+03 -0.40214265527E+02  0.13693132567E+04  0.13787669528E+04  0.80104419970E+02 0.  0.
          5    1    3    3  502    0  0.17408690746E+03  0.10077644005E+02  0.23040918825E+03  0.28899531880E+03  0.47000000000E+01 0. -1.
        -11    1    4    4    0    0  0.13367736966E+02  0.25220654449E+01  0.27255711627E+01  0.13873930369E+02  0.00000000000E+00 0.  1.
         12    1    4    4    0    0  0.10511680563E+03 -0.55297535709E+02  0.39421489166E+03  0.41171925033E+03  0.00000000000E+00 0. -1.
         -5    1    5    5    0  501 -0.15861022492E+03  0.82912091786E+02  0.11518825372E+04  0.11657131242E+04  0.47000000000E+01 0.  1.
         13    1    6    6    0    0 -0.61741962596E+02 -0.74896180184E+01  0.94931897480E+03  0.95135412977E+03  0.00000000000E+00 0. -1.
        -14    1    6    6    0    0 -0.72219262547E+02 -0.32724647508E+02  0.41999428189E+03  0.42741282299E+03  0.00000000000E+00 0.  1.
</event>
<event>
12    1  0.1348628E-002  0.1754101E+03  0.7818608E-02  0.1172321E+00
          1   -1    0    0  502    0  0.00000000000E+00  0.00000000000E+00  0.64634729700E+02  0.64634729700E+02  0.00000000000E+00 0. -1.
         -1   -1    0    0    0  501 -0.00000000000E+00 -0.00000000000E+00 -0.48000833630E+03  0.48000833630E+03  0.00000000000E+00 0.  1.
          6    2    1    2  502    0  0.29329615263E+02 -0.78557390755E+01 -0.23343175756E+03  0.29251539206E+03  0.17364599099E+03 0.  0.
         24    2    3    3    0    0  0.76714256826E+02 -0.12375116150E+02 -0.98127972005E+02  0.14900604251E+03  0.80842322536E+02 0.  0.
         -6    2    1    2    0  501 -0.29329615263E+02  0.78557390755E+01 -0.18194184904E+03  0.25212767394E+03  0.17188248475E+03 0.  0.
        -24    2    5    5    0    0 -0.71929665522E+02  0.38809552577E+02 -0.87508117158E+02  0.14390234155E+03  0.79813251924E+02 0.  0.
          5    1    3    3  502    0 -0.47384641564E+02  0.45193770744E+01 -0.13530378555E+03  0.14350934956E+03  0.47000000000E+01 0. -1.
        -11    1    4    4    0    0  0.39962894150E+02  0.34146143594E+02 -0.40860509101E+02  0.66577573065E+02  0.00000000000E+00 0.  1.
         12    1    4    4    0    0  0.36751362676E+02 -0.46521259744E+02 -0.57267462905E+02  0.82428469440E+02  0.00000000000E+00 0. -1.
         -5    1    5    5    0  501  0.42600050259E+02 -0.30953813501E+02 -0.94433731881E+02  0.10822533238E+03  0.47000000000E+01 0.  1.
         13    1    6    6    0    0 -0.16097489220E+02  0.35316306084E+02 -0.78049413836E+02  0.87166975597E+02  0.00000000000E+00 0. -1.
        -14    1    6    6    0    0 -0.55832176302E+02  0.34932464933E+01 -0.94587033217E+01  0.56735365956E+02  0.00000000000E+00 0.  1.
</event>
<event>
12    1  0.1348628E-002  0.2032197E+03  0.7818608E-02  0.1147051E+00
          2   -1    0    0  502    0  0.00000000000E+00  0.00000000000E+00  0.11245960066E+04  0.11245960066E+04  0.00000000000E+00 0. -1.
         -2   -1    0    0    0  501 -0.00000000000E+00 -0.00000000000E+00 -0.46309368733E+02  0.46309368733E+02  0.00000000000E+00 0.  1.
          6    2    1    2  502    0 -0.11188101838E+03 -0.11272813769E+02  0.80188201569E+03  0.82681623810E+03  0.16723003884E+03 0.  0.
         24    2    3    3    0    0 -0.66493558893E+02 -0.33053154902E+02  0.73359765943E+03  0.74185007985E+03  0.81621753347E+02 0.  0.
         -6    2    1    2    0  501  0.11188101838E+03  0.11272813769E+02  0.27640462213E+03  0.34408913719E+03  0.17132828311E+03 0.  0.
        -24    2    5    5    0    0 -0.30341468163E+01 -0.13144501077E+02  0.15704488079E+03  0.17654649095E+03  0.79520971628E+02 0.  0.
          5    1    3    3  502    0 -0.45387459486E+02  0.21780341133E+02  0.68284356257E+02  0.84966158250E+02  0.47000000000E+01 0. -1.
        -11    1    4    4    0    0 -0.54783473167E+01 -0.44775485795E+02  0.39812994644E+03  0.40067731489E+03  0.00000000000E+00 0.  1.
         12    1    4    4    0    0 -0.61015211576E+02  0.11722330893E+02  0.33546771299E+03  0.34117276495E+03  0.00000000000E+00 0. -1.
         -5    1    5    5    0  501  0.11491516519E+03  0.24417314846E+02  0.11935974134E+03  0.16754264624E+03  0.47000000000E+01 0.  1.
         11    1    6    6    0    0 -0.25242141841E+02  0.24095463444E+02  0.49266416681E+02  0.60373312779E+02  0.00000000000E+00 0. -1.
        -12    1    6    6    0    0  0.22207995025E+02 -0.37239964520E+02  0.10777846411E+03  0.11617317817E+03  0.00000000000E+00 0.  1.
</event>
<event>
12    1  0.1348628E-002  0.1805875E+03  0.7818608E-02  0.1167236E+00
          2   -1    0    0  502    0  0.00000000000E+00  0.00000000000E+00  0.98077357709E+03  0.98077357709E+03  0.00000000000E+00 0.  1.
         -2   -1    0    0    0  501 -0.00000000000E+00 -0.00000000000E+00 -0.35367159567E+02  0.35367159567E+02  0.00000000000E+00 0. -1.
          6    2    1    2  502    0  0.57053101473E+02  0.16135885224E+01  0.34621266286E+03  0.39006110894E+03  0.17037253513E+03 0.  0.
         24    2    3    3    0    0  0.19634742861E+02  0.32022268541E+02  0.32602973118E+03  0.33758004461E+03  0.79081932803E+02 0.  0.
         -6    2    1    2    0  501 -0.57053101473E+02 -0.16135885224E+01  0.59919375466E+03  0.62607962772E+03  0.17229301948E+03 0.  0.
        -24    2    5    5    0    0 -0.99642289869E+02  0.25733686996E+02  0.40711136304E+03  0.42738527043E+03  0.79546834549E+02 0.  0.
          5    1    3    3  502    0  0.37418358612E+02 -0.30408680019E+02  0.20182931675E+02  0.52481064325E+02  0.47000000000E+01 0. -1.
        -11    1    4    4    0    0  0.40372606785E+01 -0.26363150780E+02  0.11616979182E+03  0.11919201200E+03  0.00000000000E+00 0.  1.
         12    1    4    4    0    0  0.15597482183E+02  0.58385419320E+02  0.20985993936E+03  0.21838803261E+03  0.00000000000E+00 0. -1.
         -5    1    5    5    0  501  0.42589188396E+02 -0.27347275519E+02  0.19208239162E+03  0.19869435729E+03  0.47000000000E+01 0.  1.
         13    1    6    6    0    0 -0.90563536406E+02  0.25962363473E+02  0.21116011967E+03  0.23122368949E+03  0.00000000000E+00 0. -1.
        -14    1    6    6    0    0 -0.90787534624E+01 -0.22867647623E+00  0.19595124337E+03  0.19616158093E+03  0.00000000000E+00 0.  1.
</event>
<event>
12    1  0.1348628E-002  0.1839546E+03  0.7818608E-02  0.1164030E+00
          2   -1    0    0  502    0  0.00000000000E+00  0.00000000000E+00  0.96070432134E+02  0.96070432134E+02  0.00000000000E+00 0.  1.
         -2   -1    0    0    0  501 -0.00000000000E+00 -0.00000000000E+00 -0.48178128707E+03  0.48178128707E+03  0.00000000000E+00 0. -1.
          6    2    1    2  502    0  0.37317289934E+02 -0.54186909655E+02 -0.43306850321E+02  0.18932970326E+03  0.17216693047E+03 0.  0.
         24    2    3    3    0    0  0.14369728533E+02  0.22435407597E+02 -0.64291008451E+02  0.10650461668E+03  0.80622968152E+02 0.  0.
         -6    2    1    2    0  501 -0.37317289934E+02  0.54186909655E+02 -0.34240400461E+03  0.38852201594E+03  0.17140610605E+03 0.  0.
        -24    2    5    5    0    0  0.20778405637E+02 -0.19653522463E+02 -0.20574964677E+03  0.22261836083E+03  0.80050074016E+02 0.  0.
          5    1    3    3  502    0  0.22947561400E+02 -0.76622317252E+02  0.20984158130E+02  0.82825086585E+02  0.47000000000E+01 0. -1.
        -13    1    4    4    0    0 -0.87015878397E+01 -0.17213441716E+02  0.80051393138E+01  0.20883066395E+02  0.00000000000E+00 0.  1.
         14    1    4    4    0    0  0.23071316373E+02  0.39648849313E+02 -0.72296147764E+02  0.85621550281E+02  0.00000000000E+00 0. -1.
         -5    1    5    5    0  501 -0.58095695571E+02  0.73840432119E+02 -0.13665435785E+03  0.16590365511E+03  0.47000000000E+01 0.  1.
         11    1    6    6    0    0 -0.15453703990E+02 -0.13092384494E+02 -0.85067527463E+01  0.21967984455E+02  0.00000000000E+00 0. -1.
        -12    1    6    6    0    0  0.36232109627E+02 -0.65611379695E+01 -0.19724289402E+03  0.20065037638E+03  0.00000000000E+00 0.  1.
</event>
<event>
12    1  0.1348628E-002  0.2168555E+03  0.7818608E-02  0.1136249E+00
         -1   -1    0    0    0  501 -0.00000000000E+00  0.00000000000E+00  0.24661513089E+02  0.24661513089E+02  0.00000000000E+00 0.  1.
          1   -1    0    0  502    0  0.00000000000E+00 -0.00000000000E+00 -0.21763764035E+04  0.21763764035E+04  0.00000000000E+00 0. -1.
          6    2    1    2  502    0 -0.95217263511E+02  0.89936687511E+02 -0.68743527445E+03  0.72074864772E+03  0.17250049740E+03 0.  0.
         24    2    3    3    0    0 -0.13457513644E+03  0.70031990602E+02 -0.57256395318E+03  0.59761153077E+03  0.79341755555E+02 0.  0.
         -6    2    1    2    0  501  0.95217263511E+02 -0.89936687511E+02 -0.14642796160E+04  0.14802892689E+04  0.17316636734E+03 0.  0.
        -24    2    5    5    0    0 -0.18367921954E+02 -0.31143111008E+02 -0.58043596149E+03  0.58722713523E+03  0.81378922558E+02 0.  0.
          5    1    3    3  502    0  0.39357872928E+02  0.19904696908E+02 -0.11487132127E+03  0.12313711695E+03  0.47000000000E+01 0. -1.
        -11    1    4    4    0    0 -0.23392705797E+02  0.50284131699E+02 -0.14089662387E+03  0.15141852992E+03  0.00000000000E+00 0.  1.
         12    1    4    4    0    0 -0.11118243064E+03  0.19747858903E+02 -0.43166732932E+03  0.44619300086E+03  0.00000000000E+00 0. -1.
         -5    1    5    5    0  501  0.11358518547E+03 -0.58793576502E+02 -0.88384365449E+03  0.89306213366E+03  0.47000000000E+01 0.  1.
         11    1    6    6    0    0  0.12285178453E+02  0.22050792385E+02 -0.11354222673E+03  0.11631423088E+03  0.00000000000E+00 0. -1.
        -12    1    6    6    0    0 -0.30653100407E+02 -0.53193903394E+02 -0.46689373476E+03  0.47091290435E+03  0.00000000000E+00 0.  1.
</event>
<event>
12    1  0.1348628E-002  0.2332465E+03  0.7818608E-02  0.1124375E+00
         -1   -1    0    0    0  501 -0.00000000000E+00  0.00000000000E+00  0.13565756227E+03  0.13565756227E+03  0.00000000000E+00 0.  1.
          1   -1    0    0  502    0  0.00000000000E+00 -0.00000000000E+00 -0.74298485706E+03  0.74298485706E+03  0.00000000000E+00 0. -1.
          6    2    1    2  502    0  0.44929248000E+01  0.15785793820E+03 -0.56179017828E+01  0.23330259297E+03  0.17163689592E+03 0.  0.
         24    2    3    3    0    0 -0.60591870139E+02  0.12386068724E+03 -0.19840004841E+02  0.15836127045E+03  0.75311497254E+02 0.  0.
         -6    2    1    2    0  501 -0.44929248000E+01 -0.15785793820E+03 -0.60170939301E+03  0.64533982636E+03  0.17166823474E+03 0.  0.
        -24    2    5    5    0    0 -0.54188209347E+02 -0.12906881880E+03 -0.31872529086E+03  0.35654833276E+03  0.77108887583E+02 0.  0.
          5    1    3    3  502    0  0.65084794939E+02  0.33997250966E+02  0.14222103058E+02  0.74941322518E+02  0.47000000000E+01 0. -1.
        -13    1    4    4    0    0 -0.16269810620E+02  0.16164097016E+02  0.24671281226E+02  0.33684668431E+02  0.00000000000E+00 0.  1.
         14    1    4    4    0    0 -0.44322059519E+02  0.10769659022E+03 -0.44511286067E+02  0.12467660202E+03  0.00000000000E+00 0. -1.
         -5    1    5    5    0  501  0.49695284547E+02 -0.28789119403E+02 -0.28298410215E+03  0.28879149360E+03  0.47000000000E+01 0.  1.
         13    1    6    6    0    0 -0.22975489200E+02  0.29494268130E+01 -0.61981047612E+02  0.66168137994E+02  0.00000000000E+00 0. -1.
        -14    1    6    6    0    0 -0.31212720147E+02 -0.13201824561E+03 -0.25674424324E+03  0.29038019477E+03  0.00000000000E+00 0.  1.
</event>
<event>
12    1  0.1348628E-002  0.2102111E+03  0.7818608E-02  0.1141399E+00
         -2   -1    0    0    0  501 -0.00000000000E+00  0.00000000000E+00  0.41257786941E+02  0.41257786941E+02  0.00000000000E+00 0. -1.
          2   -1    0    0  502    0  0.00000000000E+00 -0.00000000000E+00 -0.12184039028E+04  0.12184039028E+04  0.00000000000E+00 0.  1.
          6    2    1    2  502    0  0.71804511862E+02 -0.98759558370E+02 -0.80708972692E+03  0.83396235859E+03  0.17085095832E+03 0.  0.
         24    2    3    3    0    0 -0.97721338990E+01 -0.92352968868E+02 -0.58882673191E+03  0.60081729965E+03  0.75099546450E+02 0.  0.
         -6    2    1    2    0  501 -0.71804511862E+02  0.98759558370E+02 -0.37005638894E+03  0.42569933115E+03  0.17137342633E+03 0.  0.
        -24    2    5    5    0    0 -0.10225901560E+03  0.68229465177E+02 -0.18192421404E+03  0.23263103074E+03  0.76867487415E+02 0.  0.
          5    1    3    3  502    0  0.81576645761E+02 -0.64065895024E+01 -0.21826299500E+03  0.23314505894E+03  0.47000000000E+01 0. -1.
        -13    1    4    4    0    0  0.17890299408E+02 -0.35613394459E+02 -0.39420962647E+03  0.39621913921E+03  0.00000000000E+00 0.  1.
         14    1    4    4    0    0 -0.27662433307E+02 -0.56739574409E+02 -0.19461710545E+03  0.20459816044E+03  0.00000000000E+00 0. -1.
         -5    1    5    5    0  501  0.30454503737E+02  0.30530093193E+02 -0.18813217491E+03  0.19306830041E+03  0.47000000000E+01 0.  1.
         11    1    6    6    0    0 -0.80791734478E+01 -0.67982854165E+01  0.38565417820E+01  0.11241113945E+02  0.00000000000E+00 0. -1.
        -12    1    6    6    0    0 -0.94179842151E+02  0.75027750594E+02 -0.18578075582E+03  0.22138991680E+03  0.00000000000E+00 0.  1.
</event>
<event>
12    1  0.1348628E-002  0.1979586E+03  0.7818608E-02  0.1151473E+00
          2   -1    0    0  502    0  0.00000000000E+00  0.00000000000E+00  0.35035342921E+03  0.35035342921E+03  0.00000000000E+00 0. -1.
         -2   -1    0    0    0  501 -0.00000000000E+00 -0.00000000000E+00 -0.11204241207E+03  0.11204241207E+03  0.00000000000E+00 0.  1.
          6    2    1    2  502    0  0.94851377132E+02  0.28056397893E+02  0.11056623870E+03  0.22793573669E+03  0.17304872641E+03 0.  0.
         24    2    3    3    0    0  0.80073162157E+02 -0.44216489348E+02  0.90981373983E+02  0.15146729357E+03  0.79359444178E+02 0.  0.
         -6    2    1    2    0  501 -0.94851377132E+02 -0.28056397893E+02  0.12774477844E+03  0.23446010459E+03  0.16990840773E+03 0.  0.
        -24    2    5    5    0    0 -0.68037600976E+02 -0.72787196202E+02  0.45561903693E+02  0.13701300196E+03  0.82277485136E+02 0.  0.
          5    1    3    3  502    0  0.14778214975E+02  0.72272887241E+02  0.19584864719E+02  0.76468443126E+02  0.47000000000E+01 0. -1.
        -13    1    4    4    0    0  0.40041586325E+02 -0.64553244824E+02  0.61679555632E+02  0.97850997111E+02  0.00000000000E+00 0.  1.
         14    1    4    4    0    0  0.40031575832E+02  0.20336755476E+02  0.29301818352E+02  0.53616296455E+02  0.00000000000E+00 0. -1.
         -5    1    5    5    0  501 -0.26813776155E+02  0.44730798309E+02  0.82182874743E+02  0.97447102626E+02  0.47000000000E+01 0.  1.
         13    1    6    6    0    0 -0.42358249935E+02 -0.63507050813E+02 -0.81381670642E+01  0.76769763603E+02  0.00000000000E+00 0. -1.
        -14    1    6    6    0    0 -0.25679351041E+02 -0.92801453887E+01  0.53700070757E+02  0.60243238356E+02  0.00000000000E+00 0.  1.
</event>
<event>
12    1  0.1348628E-002  0.1953856E+03  0.7818608E-02  0.1153692E+00
          2   -1    0    0  502    0  0.00000000000E+00  0.00000000000E+00  0.76651577014E+03  0.76651577014E+03  0.00000000000E+00 0. -1.
         -2   -1    0    0    0  501 -0.00000000000E+00 -0.00000000000E+00 -0.52823149140E+02  0.52823149140E+02  0.00000000000E+00 0.  1.
          6    2    1    2  502    0 -0.82189956813E+01  0.92398847340E+02  0.25870706531E+03  0.32412950355E+03  0.17182983022E+03 0.  0.
         24    2    3    3    0    0  0.20758125011E+02  0.12381545166E+03  0.22162219620E+03  0.26734874917E+03  0.81226781375E+02 0.  0.
         -6    2    1    2    0  501  0.82189956813E+01 -0.92398847340E+02  0.45498555569E+03  0.49520941573E+03  0.17209128583E+03 0.  0.
        -24    2    5    5    0    0 -0.51358874575E+02 -0.32351909681E+02  0.32887514923E+03  0.34328482271E+03  0.77467578141E+02 0.  0.
          5    1    3    3  502    0 -0.28977120692E+02 -0.31416604323E+02  0.37084869112E+02  0.56780754379E+02  0.47000000000E+01 0. -1.
        -11    1    4    4    0    0  0.18351352795E+02  0.42939438990E+02  0.21342739509E+02  0.51342770669E+02  0.00000000000E+00 0.  1.
         12    1    4    4    0    0  0.24067722158E+01  0.80876012673E+02  0.20027945669E+03  0.21600597850E+03  0.00000000000E+00 0. -1.
         -5    1    5    5    0  501  0.59577870256E+02 -0.60046937660E+02  0.12611040645E+03  0.15192459301E+03  0.47000000000E+01 0.  1.
         13    1    6    6    0    0 -0.43927314058E+02 -0.57218641814E+02  0.25367528727E+03  0.26373231365E+03  0.00000000000E+00 0. -1.
        -14    1    6    6    0    0 -0.74315605166E+01  0.24866732133E+02  0.75199861962E+02  0.79552509060E+02  0.00000000000E+00 0.  1.
</event>
<event>
12    1  0.1348628E-002  0.2881647E+03  0.7818608E-02  0.1091311E+00
         -1   -1    0    0    0  501 -0.00000000000E+00  0.00000000000E+00  0.44421532377E+03  0.44421532377E+03  0.00000000000E+00 0. -1.
          1   -1    0    0  502    0  0.00000000000E+00 -0.00000000000E+00 -0.19423221880E+03  0.19423221880E+03  0.00000000000E+00 0.  1.
          6    2    1    2  502    0  0.21140060708E+03 -0.94486231432E+02  0.18701631683E+03  0.34382612268E+03  0.17211459923E+03 0.  0.
         24    2    3    3    0    0  0.93832987500E+02 -0.92509587765E+01  0.14909247026E+03  0.19366785611E+03  0.79927867615E+02 0.  0.
         -6    2    1    2    0  501 -0.21140060708E+03  0.94486231432E+02  0.62966788133E+02  0.29462141989E+03  0.17093595305E+03 0.  0.
        -24    2    5    5    0    0 -0.19189667760E+03  0.20466711542E+02  0.29344348843E+02  0.21088462384E+03  0.79799828349E+02 0.  0.
          5    1    3    3  502    0  0.11756761958E+03 -0.85235272655E+02  0.37923846573E+02  0.15015826656E+03  0.47000000000E+01 0. -1.
        -11    1    4    4    0    0  0.93317497823E+02  0.15706523681E+02  0.94978662612E+02  0.13407384770E+03  0.00000000000E+00 0.  1.
         12    1    4    4    0    0  0.51548967740E+00 -0.24957482458E+02  0.54113807648E+02  0.59594008410E+02  0.00000000000E+00 0. -1.
         -5    1    5    5    0  501 -0.19503929479E+02  0.74019519890E+02  0.33622439290E+02  0.83736796055E+02  0.47000000000E+01 0.  1.
         11    1    6    6    0    0 -0.42780607971E+02  0.39790697660E+02  0.10181185249E+02  0.59305451450E+02  0.00000000000E+00 0. -1.
        -12    1    6    6    0    0 -0.14911606963E+03 -0.19323986117E+02  0.19163163594E+02  0.15157917239E+03  0.00000000000E+00 0.  1.
</event>
<event>
12    1  0.1348628E-002  0.3226191E+03  0.7818608E-02  0.1074450E+00
          2   -1    0    0  502    0  0.00000000000E+00  0.00000000000E+00  0.24196407901E+03  0.24196407901E+03  0.00000000000E+00 0.  1.
         -2   -1    0    0    0  501 -0.00000000000E+00 -0.00000000000E+00 -0.49386571291E+03  0.49386571291E+03  0.00000000000E+00 0. -1.
          6    2    1    2  502    0 -0.23557281572E+03  0.14209730170E+03 -0.25817409472E+03  0.41339465836E+03  0.16898250123E+03 0.  0.
         24    2    3    3    0    0 -0.16901905908E+03  0.63436253525E+02 -0.89914826978E+02  0.21603652145E+03  0.77430626353E+02 0.  0.
         -6    2    1    2    0  501  0.23557281572E+03 -0.14209730170E+03  0.62724608241E+01  0.32243513356E+03  0.16804427076E+03 0.  0.
        -24    2    5    5    0    0  0.23004273595E+03 -0.16664506723E+03 -0.30027733960E+01  0.29520840874E+03  0.80304104169E+02 0.  0.
          5    1    3    3  502    0 -0.66553756637E+02  0.78661048176E+02 -0.16825926774E+03  0.19735813691E+03  0.47000000000E+01 0. -1.
        -11    1    4    4    0    0 -0.38345363413E+02  0.30958938366E+02  0.74908213642E+01  0.49849124012E+02  0.00000000000E+00 0.  1.
         12    1    4    4    0    0 -0.13067369567E+03  0.32477315159E+02 -0.97405648342E+02  0.16618739744E+03  0.00000000000E+00 0. -1.
         -5    1    5    5    0  501  0.55300797727E+01  0.24547765531E+02  0.92752342201E+01  0.27226724825E+02  0.47000000000E+01 0.  1.
         13    1    6    6    0    0  0.11737278319E+03 -0.12245251108E+03 -0.27197702747E+02  0.17178679442E+03  0.00000000000E+00 0. -1.
        -14    1    6    6    0    0  0.11266995276E+03 -0.44192556154E+02  0.24194929351E+02  0.12342161432E+03  0.00000000000E+00 0.  1.
</event>
<event>
12    1  0.1348628E-002  0.2714022E+03  0.7818608E-02  0.1100480E+00
         -1   -1    0    0    0  501 -0.00000000000E+00  0.00000000000E+00  0.15151349088E+03  0.15151349088E+03  0.00000000000E+00 0. -1.
          1   -1    0    0  502    0  0.00000000000E+00 -0.00000000000E+00 -0.62269959634E+03  0.62269959634E+03  0.00000000000E+00 0.  1.
          6    2    1    2  502    0 -0.20898594280E+03 -0.65583478508E+01 -0.41691617301E+03  0.49751426619E+03  0.17315661561E+03 0.  0.
         24    2    3    3    0    0 -0.19566888215E+03  0.19989236413E+02 -0.41603901651E+03  0.46743141828E+03  0.81962104197E+02 0.  0.
         -6    2    1    2    0  501  0.20898594280E+03  0.65583478508E+01 -0.54269932444E+02  0.27669882103E+03  0.17291291384E+03 0.  0.
        -24    2    5    5    0    0  0.17818876209E+03 -0.53915408275E+02 -0.48806714565E+02  0.20845310124E+03  0.80078048457E+02 0.  0.
          5    1    3    3  502    0 -0.13317060651E+02 -0.26547584264E+02 -0.87715649713E+00  0.30082847906E+02  0.47000000000E+01 0. -1.
        -13    1    4    4    0    0 -0.16883244647E+03 -0.99529448533E+01 -0.36640625716E+03  0.40355545019E+03  0.00000000000E+00 0.  1.
         14    1    4    4    0    0 -0.26836435679E+02  0.29942181266E+02 -0.49632759352E+02  0.63875968093E+02  0.00000000000E+00 0. -1.
         -5    1    5    5    0  501  0.30797180712E+02  0.60473756125E+02 -0.54632178796E+01  0.68245719788E+02  0.47000000000E+01 0.  1.
         11    1    6    6    0    0  0.16097196436E+03 -0.22081692485E+02 -0.23219209373E+02  0.16413015000E+03  0.00000000000E+00 0. -1.
        -12    1    6    6    0    0  0.17216797729E+02 -0.31833715790E+02 -0.25587505192E+02  0.44322951244E+02  0.00000000000E+00 0.  1.
</event>
<event>
12    1  0.1348628E-002  0.2574670E+03  0.7818608E-02  0.1108675E+00
          2   -1    0    0  502    0  0.00000000000E+00  0.00000000000E+00  0.24799968506E+03  0.24799968506E+03  0.00000000000E+00 0.  1.
         -2   -1    0    0    0  501 -0.00000000000E+00 -0.00000000000E+00 -0.28933348649E+03  0.28933348649E+03  0.00000000000E+00 0. -1.
          6    2    1    2  502    0 -0.14835526147E+03  0.12299264131E+03  0.53409210764E+02  0.26382143681E+03  0.17208350677E+03 0.  0.
         24    2    3    3    0    0 -0.13979322094E+03  0.89027855087E+02 -0.17636141161E+02  0.18447128072E+03  0.79060207006E+02 0.  0.
         -6    2    1    2    0  501  0.14835526147E+03 -0.12299264131E+03 -0.94743012193E+02  0.27351173475E+03  0.16939881129E+03 0.  0.
        -24    2    5    5    0    0  0.11823303724E+03 -0.54932109330E+02 -0.12033225598E+03  0.19466705324E+03  0.80117551487E+02 0.  0.
          5    1    3    3  502    0 -0.85620405267E+01  0.33964786222E+02  0.71045351925E+02  0.79350156088E+02  0.47000000000E+01 0. -1.
        -13    1    4    4    0    0 -0.41987656554E+02  0.53273984164E+02  0.24518871247E+02  0.72126664548E+02  0.00000000000E+00 0.  1.
         14    1    4    4    0    0 -0.97805564389E+02  0.35753870924E+02 -0.42155012408E+02  0.11234461617E+03  0.00000000000E+00 0. -1.
         -5    1    5    5    0  501  0.30122224226E+02 -0.68060531980E+02  0.25589243784E+02  0.78844681515E+02  0.47000000000E+01 0.  1.
         11    1    6    6    0    0  0.93202532291E+02 -0.53285028321E+02 -0.47061146871E+02  0.11722097856E+03  0.00000000000E+00 0. -1.
        -12    1    6    6    0    0  0.25030504952E+02 -0.16470810091E+01 -0.73271109106E+02  0.77446074682E+02  0.00000000000E+00 0.  1.
</event>
<event>
12    1  0.1348628E-002  0.1780670E+03  0.7818608E-02  0.1169687E+00
          1   -1    0    0  502    0  0.00000000000E+00  0.00000000000E+00  0.81943142989E+02  0.81943142989E+02  0.00000000000E+00 0. -1.
         -1   -1    0    0    0  501 -0.00000000000E+00 -0.00000000000E+00 -0.44656434923E+03  0.44656434923E+03  0.00000000000E+00 0.  1.
          6    2    1    2  502    0 -0.36290116137E+02  0.30129868681E+02 -0.27882780641E+03  0.33081614176E+03  0.17166709791E+03 0.  0.
         24    2    3    3    0    0 -0.81085497613E+02 -0.65252605767E+01 -0.22399305095E+03  0.25094646598E+03  0.78637172920E+02 0.  0.
         -6    2    1    2    0  501  0.36290116137E+02 -0.30129868681E+02 -0.85793399832E+02  0.19769135046E+03  0.17174568722E+03 0.  0.
        -24    2    5    5    0    0 -0.34646975993E+02  0.14906265131E+02 -0.17094835996E+02  0.89054767942E+02  0.78841033668E+02 0.  0.
          5    1    3    3  502    0  0.44795381477E+02  0.36655129258E+02 -0.54834755463E+02  0.79869675780E+02  0.47000000000E+01 0. -1.
        -11    1    4    4    0    0 -0.17174415435E+02  0.30182522678E+02 -0.10866649853E+03  0.11408046775E+03  0.00000000000E+00 0.  1.
         12    1    4    4    0    0 -0.63911082178E+02 -0.36707783254E+02 -0.11532655242E+03  0.13686599822E+03  0.00000000000E+00 0. -1.
         -5    1    5    5    0  501  0.70937092130E+02 -0.45036133812E+02 -0.68698563836E+02  0.10863658252E+03  0.47000000000E+01 0.  1.
         13    1    6    6    0    0 -0.12455205692E+02 -0.68762776359E+01  0.29664444906E+02  0.32899766482E+02  0.00000000000E+00 0. -1.
        -14    1    6    6    0    0 -0.22191770301E+02  0.21782542767E+02 -0.46759280902E+02  0.56155001460E+02  0.00000000000E+00 0.  1.
</event>
<event>
12    1  0.1348628E-002  0.1947458E+03  0.7818608E-02  0.1154249E+00
         -2   -1    0    0    0  501 -0.00000000000E+00  0.00000000000E+00  0.33467914362E+02  0.33467914362E+02  0.00000000000E+00 0.  1.
          2   -1    0    0  502    0  0.00000000000E+00 -0.00000000000E+00 -0.15206286086E+04  0.15206286086E+04  0.00000000000E+00 0. -1.
          6    2    1    2  502    0  0.63721107038E+02 -0.69863360357E+02 -0.35330825530E+03  0.40375627688E+03  0.17102964438E+03 0.  0.
         24    2    3    3    0    0  0.39981314823E+02 -0.11424948986E+03 -0.29006255176E+03  0.32278828788E+03  0.73515599629E+02 0.  0.
         -6    2    1    2    0  501 -0.63721107038E+02  0.69863360357E+02 -0.11338524389E+04  0.11503402460E+04  0.16946993794E+03 0.  0.
        -24    2    5    5    0    0 -0.90088884259E+02  0.50560070005E+02 -0.10756450520E+04  0.10834218884E+04  0.78220091585E+02 0.  0.
          5    1    3    3  502    0  0.23739792215E+02  0.44386129506E+02 -0.63245703542E+02  0.80967989004E+02  0.47000000000E+01 0. -1.
        -11    1    4    4    0    0  0.39034826381E+02 -0.73046510047E+02 -0.10790062093E+03  0.13602225663E+03  0.00000000000E+00 0.  1.
         12    1    4    4    0    0  0.94648844225E+00 -0.41202979816E+02 -0.18216193083E+03  0.18676603125E+03  0.00000000000E+00 0. -1.
         -5    1    5    5    0  501  0.26367777221E+02  0.19303290352E+02 -0.58207386912E+02  0.66918357609E+02  0.47000000000E+01 0.  1.
         11    1    6    6    0    0  0.14313402030E+02  0.46231405049E+01 -0.98426200223E+02  0.99568889700E+02  0.00000000000E+00 0. -1.
        -12    1    6    6    0    0 -0.10440228629E+03  0.45936929500E+02 -0.97721885175E+03  0.98385299872E+03  0.00000000000E+00 0.  1.
</event>
<event>
12    1  0.1348628E-002  0.2320247E+03  0.7818608E-02  0.1125223E+00
          1   -1    0    0  502    0  0.00000000000E+00  0.00000000000E+00  0.23223666656E+04  0.23223666656E+04  0.00000000000E+00 0.  1.
         -1   -1    0    0    0  501 -0.00000000000E+00 -0.00000000000E+00 -0.23548941279E+02  0.23548941279E+02  0.00000000000E+00 0. -1.
          6    2    1    2  502    0  0.26729801244E+02  0.15514696516E+03  0.10074090271E+04  0.10339907338E+04  0.17169399090E+03 0.  0.
         24    2    3    3    0    0  0.56725990837E+02  0.16283498051E+03  0.94799074467E+03  0.96682303871E+03  0.79544121537E+02 0.  0.
         -6    2    1    2    0  501 -0.26729801244E+02 -0.15514696516E+03  0.12914086972E+04  0.13119248731E+04  0.16919038514E+03 0.  0.
        -24    2    5    5    0    0  0.50485643500E+02 -0.10581711047E+03  0.86780376892E+03  0.87849796494E+03  0.70208489351E+02 0.  0.
          5    1    3    3  502    0 -0.29996189593E+02 -0.76880153539E+01  0.59418282439E+02  0.67167695049E+02  0.47000000000E+01 0. -1.
        -13    1    4    4    0    0  0.77308982288E+01  0.52138351179E+02  0.49980706125E+03  0.50257862362E+03  0.00000000000E+00 0.  1.
         14    1    4    4    0    0  0.48995092609E+02  0.11069662933E+03  0.44818368343E+03  0.46424441508E+03  0.00000000000E+00 0. -1.
         -5    1    5    5    0  501 -0.77215444744E+02 -0.49329854692E+02  0.42360492824E+03  0.43342690814E+03  0.47000000000E+01 0.  1.
         13    1    6    6    0    0  0.24148607843E+02  0.27983957805E+01  0.12623674065E+03  0.12855621716E+03  0.00000000000E+00 0. -1.
        -14    1    6    6    0    0  0.26337035657E+02 -0.10861550625E+03  0.74156702827E+03  0.74994174778E+03  0.00000000000E+00 0.  1.
</event>
<event>
12    1  0.1348628E-002  0.2013729E+03  0.7818608E-02  0.1148586E+00
          2   -1    0    0  502    0  0.00000000000E+00  0.00000000000E+00  0.32383060894E+03  0.32383060894E+03  0.00000000000E+00 0. -1.
         -2   -1    0    0    0  501 -0.00000000000E+00 -0.00000000000E+00 -0.28571067985E+03  0.28571067985E+03  0.00000000000E+00 0.  1.
          6    2    1    2  502    0  0.52891210304E+02  0.91697182365E+02  0.24748169186E+03  0.31911234907E+03  0.17140493034E+03 0.  0.
         24    2    3    3    0    0  0.84692773750E+02  0.36222806895E+02  0.21461121849E+03  0.24706164615E+03  0.80601018823E+02 0.  0.
         -6    2    1    2    0  501 -0.52891210304E+02 -0.91697182365E+02 -0.20936176278E+03  0.29042893971E+03  0.17120387825E+03 0.  0.
        -24    2    5    5    0    0 -0.67282209407E+01 -0.12162180128E+03 -0.14936883316E+03  0.20889522885E+03  0.80554557979E+02 0.  0.
          5    1    3    3  502    0 -0.31801563446E+02  0.55474375470E+02  0.32870473375E+02  0.72050702920E+02  0.47000000000E+01 0. -1.
        -11    1    4    4    0    0  0.26888703254E+02 -0.14131556573E+02  0.16352810699E+02  0.34498082144E+02  0.00000000000E+00 0.  1.
         12    1    4    4    0    0  0.57804070496E+02  0.50354363468E+02  0.19825840779E+03  0.21256356401E+03  0.00000000000E+00 0. -1.
         -5    1    5    5    0  501 -0.46162989363E+02  0.29924618913E+02 -0.59992929614E+02  0.81533710867E+02  0.47000000000E+01 0.  1.
         13    1    6    6    0    0 -0.51700094202E+01 -0.10730327204E+02  0.94381757759E+01  0.15196976057E+02  0.00000000000E+00 0. -1.
        -14    1    6    6    0    0 -0.15582115205E+01 -0.11089147407E+03 -0.15880700894E+03  0.19369825279E+03  0.00000000000E+00 0.  1.
</event>
<event>
12    1  0.1348628E-002  0.1768255E+03  0.7818608E-02  0.1170911E+00
          2   -1    0    0  502    0  0.00000000000E+00  0.00000000000E+00  0.28653008182E+04  0.28653008182E+04  0.00000000000E+00 0.  1.
         -2   -1    0    0    0  501 -0.00000000000E+00 -0.00000000000E+00 -0.18422118694E+02  0.18422118694E+02  0.00000000000E+00 0. -1.
          6    2    1    2  502    0  0.13391193346E+02 -0.32090627888E+02  0.50783868688E+03  0.53808656341E+03  0.17443590619E+03 0.  0.
         24    2    3    3    0    0  0.47315511380E+02 -0.30938051238E+02  0.49009107382E+03  0.49949568940E+03  0.78171365983E+02 0.  0.
         -6    2    1    2    0  501 -0.13391193346E+02  0.32090627888E+02  0.23390400127E+04  0.23456363735E+04  0.17231565079E+03 0.  0.
        -24    2    5    5    0    0 -0.28743724315E+02 -0.39763464928E+02  0.95634723699E+03  0.96098475209E+03  0.80525283034E+02 0.  0.
          5    1    3    3  502    0 -0.33924318035E+02 -0.11525766502E+01  0.17747613055E+02  0.38590874002E+02  0.47000000000E+01 0. -1.
        -11    1    4    4    0    0  0.61492984001E+02  0.89909517305E+00  0.30066114774E+03  0.30688649565E+03  0.00000000000E+00 0.  1.
         12    1    4    4    0    0 -0.14177472620E+02 -0.31837146411E+02  0.18942992609E+03  0.19260919375E+03  0.00000000000E+00 0. -1.
         -5    1    5    5    0  501  0.15352530970E+02  0.71854092817E+02  0.13826927757E+04  0.13846516214E+04  0.47000000000E+01 0.  1.
         13    1    6    6    0    0  0.25324744750E+02 -0.26397289047E+02  0.48015092827E+03  0.48154239012E+03  0.00000000000E+00 0. -1.
        -14    1    6    6    0    0 -0.54068469065E+02 -0.13366175881E+02  0.47619630872E+03  0.47944236196E+03  0.00000000000E+00 0.  1.
</event>
<event>
12    1  0.1348628E-002  0.1830563E+03  0.7818608E-02  0.1164878E+00
          1   -1    0    0  502    0  0.00000000000E+00  0.00000000000E+00  0.20660297591E+03  0.20660297591E+03  0.00000000000E+00 0. -1.
         -1   -1    0    0    0  501 -0.00000000000E+00 -0.00000000000E+00 -0.32027701699E+03  0.32027701699E+03  0.00000000000E+00 0.  1.
          6    2    1    2  502    0  0.15146648424E+02 -0.58734078197E+02 -0.24204290418E+03  0.30396094880E+03  0.17357528059E+03 0.  0.
         24    2    3    3    0    0 -0.60918409637E+02 -0.47666774377E+02 -0.15411347199E+03  0.18707616229E+03  0.72548978189E+02 0.  0.
         -6    2    1    2    0  501 -0.15146648424E+02  0.58734078197E+02  0.12836886311E+03  0.22291904409E+03  0.17185814588E+03 0.  0.
        -24    2    5    5    0    0 -0.63440213734E+02  0.22036122085E+02  0.12426745360E+03  0.16194429528E+03  0.79204187731E+02 0.  0.
          5    1    3    3  502    0  0.76065058061E+02 -0.11067303820E+02 -0.87929432190E+02  0.11688478651E+03  0.47000000000E+01 0. -1.
        -13    1    4    4    0    0 -0.47060518751E+02  0.46234001953E+01 -0.99714916756E+02  0.11035910872E+03  0.00000000000E+00 0.  1.
         14    1    4    4    0    0 -0.13857890886E+02 -0.52290174572E+02 -0.54398555238E+02  0.76717053570E+02  0.00000000000E+00 0. -1.
         -5    1    5    5    0  501  0.48293565310E+02  0.36697956112E+02  0.41014095096E+01  0.60974748815E+02  0.47000000000E+01 0.  1.
         13    1    6    6    0    0 -0.77213849540E+02  0.24058994182E+02  0.73437141582E+02  0.10924205933E+03  0.00000000000E+00 0. -1.
        -14    1    6    6    0    0  0.13773635805E+02 -0.20228720975E+01  0.50830312015E+02  0.52702235952E+02  0.00000000000E+00 0.  1.
</event>
<event>
12    1  0.1348628E-002  0.2337890E+03  0.7818608E-02  0.1124001E+00
          2   -1    0    0  502    0  0.00000000000E+00  0.00000000000E+00  0.42983478853E+03  0.42983478853E+03  0.00000000000E+00 0.  1.
         -2   -1    0    0    0  501 -0.00000000000E+00 -0.00000000000E+00 -0.13254034007E+03  0.13254034007E+03  0.00000000000E+00 0. -1.
          6    2    1    2  502    0 -0.15499742997E+03 -0.29089729263E+02  0.20528546265E+03  0.31109943976E+03  0.17254079112E+03 0.  0.
         24    2    3    3    0    0 -0.36494327206E+02 -0.47137038558E+02  0.44926359457E+02  0.11083505772E+03  0.81928602599E+02 0.  0.
         -6    2    1    2    0  501  0.15499742997E+03  0.29089729263E+02  0.92008985804E+02  0.25127568884E+03  0.17263662036E+03 0.  0.
        -24    2    5    5    0    0  0.77070857937E+02 -0.50540449973E+02  0.54113285226E+02  0.13349754912E+03  0.79994335777E+02 0.  0.
          5    1    3    3  502    0 -0.11850310276E+03  0.18047309295E+02  0.16035910319E+03  0.20026438204E+03  0.47000000000E+01 0. -1.
        -13    1    4    4    0    0 -0.38716774088E+02 -0.31646088336E+02  0.67107346184E+02  0.83689063889E+02  0.00000000000E+00 0.  1.
         14    1    4    4    0    0  0.22224468814E+01 -0.15490950222E+02 -0.22180986728E+02  0.27145993832E+02  0.00000000000E+00 0. -1.
         -5    1    5    5    0  501  0.77926572031E+02  0.79630179236E+02  0.37895700578E+02  0.11777813972E+03  0.47000000000E+01 0.  1.
         11    1    6    6    0    0  0.64828682580E+02  0.41278975287E+01  0.20282499829E+02  0.68052754701E+02  0.00000000000E+00 0. -1.
        -12    1    6    6    0    0  0.12242175358E+02 -0.54668347502E+02  0.33830785397E+02  0.65444794420E+02  0.00000000000E+00 0.  1.
</event>
<event>
12    1  0.1348628E-002  0.2204114E+03  0.7818608E-02  0.1133577E+00
          1   -1    0    0  502    0  0.00000000000E+00  0.00000000000E+00  0.48543045198E+03  0.48543045198E+03  0.00000000000E+00 0. -1.
         -1   -1    0    0    0  501 -0.00000000000E+00 -0.00000000000E+00 -0.36436884148E+03  0.36436884148E+03  0.00000000000E+00 0.  1.
          6    2    1    2  502    0  0.42402805006E+00  0.12363529359E+03  0.42150663550E+03  0.47156129827E+03  0.17151194895E+03 0.  0.
         24    2    3    3    0    0 -0.66282177052E+01  0.12029141637E+03  0.18399316627E+03  0.23387315436E+03  0.79556325810E+02 0.  0.
         -6    2    1    2    0  501 -0.42402805006E+00 -0.12363529359E+03 -0.30044502499E+03  0.37823799519E+03  0.19367731500E+03 0.  0.
        -24    2    5    5    0    0  0.69311347149E+02 -0.29919580749E+02 -0.17937748807E+03  0.20993738354E+03  0.78728505804E+02 0.  0.
          5    1    3    3  502    0  0.70522457553E+01  0.33438772170E+01  0.23751346923E+03  0.23768814390E+03  0.47000000000E+01 0. -1.
        -11    1    4    4    0    0 -0.42607110183E+02  0.58202761310E+02  0.82700753010E+02  0.10973760436E+03  0.00000000000E+00 0.  1.
         12    1    4    4    0    0  0.35978892477E+02  0.62088655058E+02  0.10129241326E+03  0.12413555000E+03  0.00000000000E+00 0. -1.
         -5    1    5    5    0  501 -0.69735375199E+02 -0.93715712836E+02 -0.12106753692E+03  0.16830061165E+03  0.47000000000E+01 0.  1.
         13    1    6    6    0    0  0.55133066231E+01  0.24521711390E+02 -0.38206245060E+02  0.45732133571E+02  0.00000000000E+00 0. -1.
        -14    1    6    6    0    0  0.63798040525E+02 -0.54441292139E+02 -0.14117124301E+03  0.16420524997E+03  0.00000000000E+00 0.  1.
</event>
<event>
12    1  0.1348628E-002  0.4644112E+03  0.7818608E-02  0.1023510E+00
          2   -1    0    0  502    0  0.00000000000E+00  0.00000000000E+00  0.72796259820E+03  0.72796259820E+03  0.00000000000E+00 0. -1.
         -2   -1    0    0    0  501 -0.00000000000E+00 -0.00000000000E+00 -0.41046797788E+03  0.41046797788E+03  0.00000000000E+00 0.  1.
          6    2    1    2  502    0 -0.33802860423E+03 -0.26822698169E+03 -0.14159094838E+03  0.48509675584E+03  0.17047526178E+03 0.  0.
         24    2    3    3    0    0 -0.10248383833E+03 -0.14180126714E+03 -0.91061130945E+02  0.21299355760E+03  0.80396452214E+02 0.  0.
         -6    2    1    2    0  501  0.33802860423E+03  0.26822698169E+03  0.45908556871E+03  0.65333382024E+03  0.17284811334E+03 0.  0.
        -24    2    5    5    0    0  0.18073238932E+03  0.16266994820E+03  0.35099213958E+03  0.43518097023E+03  0.84031459634E+02 0.  0.
          5    1    3    3  502    0 -0.23554476591E+03 -0.12642571456E+03 -0.50529817438E+02  0.27210319825E+03  0.47000000000E+01 0. -1.
        -11    1    4    4    0    0 -0.64330644965E+02 -0.62851520915E+02 -0.87128082542E+02  0.12521999972E+03  0.00000000000E+00 0.  1.
         12    1    4    4    0    0 -0.38153193361E+02 -0.78949746221E+02 -0.39330484035E+01  0.87773557874E+02  0.00000000000E+00 0. -1.
         -5    1    5    5    0  501  0.15729621492E+03  0.10555703349E+03  0.10809342913E+03  0.21815285001E+03  0.47000000000E+01 0.  1.
         11    1    6    6    0    0  0.80930100890E+02  0.22784784282E+02  0.94988158050E+02  0.12685258292E+03  0.00000000000E+00 0. -1.
        -12    1    6    6    0    0  0.99802288428E+02  0.13988516392E+03  0.25600398153E+03  0.30832838730E+03  0.00000000000E+00 0.  1.
</event>
<event>
12    1  0.1348628E-002  0.2024551E+03  0.7818608E-02  0.1147684E+00
          2   -1    0    0  502    0  0.00000000000E+00  0.00000000000E+00  0.28905886680E+03  0.28905886680E+03  0.00000000000E+00 0. -1.
         -2   -1    0    0    0  501 -0.00000000000E+00 -0.00000000000E+00 -0.21197217508E+03  0.21197217508E+03  0.00000000000E+00 0.  1.
          6    2    1    2  502    0 -0.10634544099E+03 -0.58208603880E+01 -0.10566312478E+03  0.22789446738E+03  0.17154578716E+03 0.  0.
         24    2    3    3    0    0  0.14543370224E+02 -0.35348730372E+01 -0.41929652857E+02  0.91134181270E+02  0.79519420660E+02 0.  0.
         -6    2    1    2    0  501  0.10634544099E+03  0.58208603880E+01  0.18274981650E+03  0.27313657449E+03  0.17280873144E+03 0.  0.
        -24    2    5    5    0    0 -0.10621090246E+02  0.21453034696E+02  0.68622354774E+02  0.10890289396E+03  0.81103467756E+02 0.  0.
          5    1    3    3  502    0 -0.12088881121E+03 -0.22859873509E+01 -0.63733471921E+02  0.13676028611E+03  0.47000000000E+01 0. -1.
        -11    1    4    4    0    0 -0.23641724662E+02 -0.14546323140E+02 -0.43226721799E+02  0.51371939222E+02  0.00000000000E+00 0.  1.
         12    1    4    4    0    0  0.38185094887E+02  0.11011450103E+02  0.12970689421E+01  0.39762242048E+02  0.00000000000E+00 0. -1.
         -5    1    5    5    0  501  0.11696653123E+03 -0.15632174308E+02  0.11412746172E+03  0.16423368053E+03  0.47000000000E+01 0.  1.
         11    1    6    6    0    0 -0.61037889328E+01  0.49938517861E+02  0.61001780363E+02  0.79071670103E+02  0.00000000000E+00 0. -1.
        -12    1    6    6    0    0 -0.45173013129E+01 -0.28485483165E+02  0.76205744111E+01  0.29831223855E+02  0.00000000000E+00 0.  1.
</event>
<event>
12    1  0.1348628E-002  0.2072778E+03  0.7818608E-02  0.1143740E+00
         -1   -1    0    0    0  501 -0.00000000000E+00  0.00000000000E+00  0.40713078657E+03  0.40713078657E+03  0.00000000000E+00 0.  1.
          1   -1    0    0  502    0  0.00000000000E+00 -0.00000000000E+00 -0.21234599153E+03  0.21234599153E+03  0.00000000000E+00 0. -1.
          6    2    1    2  502    0  0.18213395383E+02  0.11541862117E+03 -0.12205914964E+03  0.24138371358E+03  0.17237887135E+03 0.  0.
         24    2    3    3    0    0  0.53512834146E+02  0.12904577708E+03 -0.57817884036E+02  0.16667909551E+03  0.70161080122E+02 0.  0.
         -6    2    1    2    0  501 -0.18213395383E+02 -0.11541862117E+03  0.31684394468E+03  0.37809306452E+03  0.17003262709E+03 0.  0.
        -24    2    5    5    0    0  0.11214715980E+02 -0.14383198477E+03  0.26247560740E+03  0.30989233822E+03  0.79538714543E+02 0.  0.
          5    1    3    3  502    0 -0.35299438763E+02 -0.13627155908E+02 -0.64241265605E+02  0.74704618075E+02  0.47000000000E+01 0. -1.
        -11    1    4    4    0    0  0.34316232025E+02  0.13099092135E+03 -0.58179690415E+02  0.14738080483E+03  0.00000000000E+00 0.  1.
         12    1    4    4    0    0  0.19196602121E+02 -0.19451442654E+01  0.36180637863E+00  0.19298290677E+02  0.00000000000E+00 0. -1.
         -5    1    5    5    0  501 -0.29428111363E+02  0.28413363599E+02  0.54368337277E+02  0.68200726299E+02  0.47000000000E+01 0.  1.
         13    1    6    6    0    0  0.27544660057E+02 -0.88480139200E+02  0.21849280948E+03  0.23733215359E+03  0.00000000000E+00 0. -1.
        -14    1    6    6    0    0 -0.16329944077E+02 -0.55351845571E+02  0.43982797917E+02  0.72560184635E+02  0.00000000000E+00 0.  1.
</event>
<event>
12    1  0.1348628E-002  0.1714301E+03  0.7818608E-02  0.1176365E+00
         -2   -1    0    0    0  501 -0.00000000000E+00  0.00000000000E+00  0.18288542368E+02  0.18288542368E+02  0.00000000000E+00 0. -1.
          2   -1    0    0  502    0  0.00000000000E+00 -0.00000000000E+00 -0.18085069838E+04  0.18085069838E+04  0.00000000000E+00 0.  1.
          6    2    1    2  502    0 -0.21540160082E+02  0.22382961332E+02 -0.60704730374E+03  0.63176371144E+03  0.17220331779E+03 0.  0.
         24    2    3    3    0    0  0.15864614227E+02 -0.49860470420E+02 -0.40855340467E+03  0.41719402919E+03  0.66311545214E+02 0.  0.
         -6    2    1    2    0  501  0.21540160082E+02 -0.22382961332E+02 -0.11831711377E+04  0.11950318147E+04  0.16505187576E+03 0.  0.
        -24    2    5    5    0    0  0.35155796205E+00 -0.46493767972E+02 -0.37322337890E+03  0.38443465841E+03  0.79577144818E+02 0.  0.
          5    1    3    3  502    0 -0.37404774310E+02  0.72243431752E+02 -0.19849389907E+03  0.21456968225E+03  0.47000000000E+01 0. -1.
        -13    1    4    4    0    0  0.30316405432E+02 -0.26221823998E+02 -0.35140373668E+03  0.35368242060E+03  0.00000000000E+00 0.  1.
         14    1    4    4    0    0 -0.14451791205E+02 -0.23638646422E+02 -0.57149667995E+02  0.63511608589E+02  0.00000000000E+00 0. -1.
         -5    1    5    5    0  501  0.21188602120E+02  0.24110806641E+02 -0.80994775877E+03  0.81059715630E+03  0.47000000000E+01 0.  1.
         13    1    6    6    0    0 -0.18571099266E+02 -0.65336663047E+01 -0.28569953956E+03  0.28637702671E+03  0.00000000000E+00 0. -1.
        -14    1    6    6    0    0  0.18922657228E+02 -0.39960101668E+02 -0.87523839342E+02  0.98057631702E+02  0.00000000000E+00 0.  1.
</event>
<event>
12    1  0.1348628E-002  0.2686877E+03  0.7818608E-02  0.1102033E+00
          1   -1    0    0  502    0  0.00000000000E+00  0.00000000000E+00  0.83501536614E+03  0.83501536614E+03  0.00000000000E+00 0. -1.
         -1   -1    0    0    0  501 -0.00000000000E+00 -0.00000000000E+00 -0.89681620148E+02  0.89681620148E+02  0.00000000000E+00 0.  1.
          6    2    1    2  502    0 -0.14564796041E+03  0.14666555591E+03  0.28538844324E+03  0.39216849892E+03  0.17212046464E+03 0.  0.
         24    2    3    3    0    0 -0.39217926598E+01  0.34046223587E+02  0.11165589434E+03  0.14122127501E+03  0.79384406387E+02 0.  0.
         -6    2    1    2    0  501  0.14564796041E+03 -0.14666555591E+03  0.45994530276E+03  0.53252848737E+03  0.17120979726E+03 0.  0.
        -24    2    5    5    0    0  0.67763774787E+02 -0.14636140126E+03  0.38494346921E+03  0.42430000723E+03  0.76390003866E+02 0.  0.
          5    1    3    3  502    0 -0.14172616775E+03  0.11261933232E+03  0.17373254890E+03  0.25094722390E+03  0.47000000000E+01 0. -1.
        -11    1    4    4    0    0 -0.10193554276E+02 -0.22711738316E+02  0.15313593763E+02  0.29227346100E+02  0.00000000000E+00 0.  1.
         12    1    4    4    0    0  0.62717616158E+01  0.56757961903E+02  0.96342300577E+02  0.11199392891E+03  0.00000000000E+00 0. -1.
         -5    1    5    5    0  501  0.77884185621E+02 -0.30415464554E+00  0.75001833544E+02  0.10822848015E+03  0.47000000000E+01 0.  1.
         11    1    6    6    0    0  0.25444950942E+02 -0.42330466689E+02  0.21499360774E+03  0.22059366562E+03  0.00000000000E+00 0. -1.
        -12    1    6    6    0    0  0.42318823844E+02 -0.10403093457E+03  0.16994986147E+03  0.20370634161E+03  0.00000000000E+00 0.  1.
</event>
<event>
12    1  0.1348628E-002  0.2179967E+03  0.7818608E-02  0.1135385E+00
         -1   -1    0    0    0  501 -0.00000000000E+00  0.00000000000E+00  0.30447024130E+03  0.30447024130E+03  0.00000000000E+00 0. -1.
          1   -1    0    0  502    0  0.00000000000E+00 -0.00000000000E+00 -0.22392821993E+03  0.22392821993E+03  0.00000000000E+00 0.  1.
          6    2    1    2  502    0 -0.97586721452E+02 -0.90820024523E+02  0.18573041661E+03  0.28659684961E+03  0.17283090434E+03 0.  0.
         24    2    3    3    0    0 -0.10519578763E+03 -0.10872978460E+03  0.19879249447E+03  0.26269360146E+03  0.81247477478E+02 0.  0.
         -6    2    1    2    0  501  0.97586721452E+02  0.90820024523E+02 -0.10518839523E+03  0.24180161162E+03  0.17213940813E+03 0.  0.
        -24    2    5    5    0    0  0.11429752289E+02  0.22794872655E+02 -0.10136413059E+03  0.13185999247E+03  0.80387344688E+02 0.  0.
          5    1    3    3  502    0  0.76090661749E+01  0.17909760074E+02 -0.13062077863E+02  0.23903248148E+02  0.47000000000E+01 0. -1.
        -13    1    4    4    0    0 -0.82810044554E+02 -0.90232781652E+02  0.95237049515E+02  0.15514365589E+03  0.00000000000E+00 0.  1.
         14    1    4    4    0    0 -0.22385743073E+02 -0.18497002945E+02  0.10355544496E+03  0.10754994557E+03  0.00000000000E+00 0. -1.
         -5    1    5    5    0  501  0.86156969164E+02  0.68025151867E+02 -0.38242646416E+01  0.10994161915E+03  0.47000000000E+01 0.  1.
         11    1    6    6    0    0 -0.10753059465E+02  0.30647958488E+02 -0.52427128716E+01  0.32900025617E+02  0.00000000000E+00 0. -1.
        -12    1    6    6    0    0  0.22182811754E+02 -0.78530858322E+01 -0.96121417721E+02  0.98959966851E+02  0.00000000000E+00 0.  1.
</event>
<event>
12    1  0.1348628E-002  0.2297614E+03  0.7818608E-02  0.1126808E+00
          2   -1    0    0  502    0  0.00000000000E+00  0.00000000000E+00  0.11021451076E+04  0.11021451076E+04  0.00000000000E+00 0. -1.
         -2   -1    0    0    0  501 -0.00000000000E+00 -0.00000000000E+00 -0.48849440769E+02  0.48849440769E+02  0.00000000000E+00 0.  1.
          6    2    1    2  502    0  0.12926566445E+03  0.85646984283E+02  0.60975202545E+03  0.65205205507E+03  0.17125808612E+03 0.  0.
         24    2    3    3    0    0  0.57156215817E+02 -0.15164245688E+02  0.35509890467E+03  0.36879779015E+03  0.80123595604E+02 0.  0.
         -6    2    1    2    0  501 -0.12926566445E+03 -0.85646984283E+02  0.44354364134E+03  0.49894249326E+03  0.16783215389E+03 0.  0.
        -24    2    5    5    0    0 -0.13824232243E+03 -0.23173262105E+02  0.35590583091E+03  0.39084058686E+03  0.80246271370E+02 0.  0.
          5    1    3    3  502    0  0.72109448637E+02  0.10081122997E+03  0.25465312078E+03  0.28325426492E+03  0.47000000000E+01 0. -1.
        -11    1    4    4    0    0  0.24854365022E+02  0.75213036380E+01  0.24017084538E+02  0.35371313501E+02  0.00000000000E+00 0.  1.
         12    1    4    4    0    0  0.32301850795E+02 -0.22685549326E+02  0.33108182013E+03  0.33342647665E+03  0.00000000000E+00 0. -1.
         -5    1    5    5    0  501  0.89766579708E+01 -0.62473722178E+02  0.87637810430E+02  0.10810190640E+03  0.47000000000E+01 0.  1.
         13    1    6    6    0    0 -0.10964563010E+03  0.46925992497E+00  0.32350189825E+03  0.34157848670E+03  0.00000000000E+00 0. -1.
        -14    1    6    6    0    0 -0.28596692321E+02 -0.23642522030E+02  0.32403932669E+02  0.49262100159E+02  0.00000000000E+00 0.  1.
</event>
<event>
12    1  0.1348628E-002  0.2176181E+03  0.7818608E-02  0.1135671E+00
          1   -1    0    0  502    0  0.00000000000E+00  0.00000000000E+00  0.20500296035E+04  0.20500296035E+04  0.00000000000E+00 0.  1.
         -1   -1    0    0    0  501 -0.00000000000E+00 -0.00000000000E+00 -0.23561409167E+02  0.23561409167E+02  0.00000000000E+00 0. -1.
          6    2    1    2  502    0 -0.98954403381E+02  0.89536572175E+02  0.11591417450E+04  0.11794320688E+04  0.17216750002E+03 0.  0.
         24    2    3    3    0    0 -0.50459025213E+02  0.11790080597E+03  0.65407110094E+03  0.67122465345E+03  0.79289451011E+02 0.  0.
         -6    2    1    2    0  501  0.98954403381E+02 -0.89536572175E+02  0.86732644933E+03  0.89415894392E+03  0.17162830649E+03 0.  0.
        -24    2    5    5    0    0  0.10623547721E+03 -0.91054196462E+01  0.60873533702E+03  0.62320943258E+03  0.80389060408E+02 0.  0.
          5    1    3    3  502    0 -0.48495378168E+02 -0.28364233793E+02  0.50507064408E+03  0.50820741531E+03  0.47000000000E+01 0. -1.
        -13    1    4    4    0    0 -0.70651236243E+00  0.65464699232E+02  0.44984485117E+03  0.45458389339E+03  0.00000000000E+00 0.  1.
         14    1    4    4    0    0 -0.49752512851E+02  0.52436106735E+02  0.20422624977E+03  0.21664076006E+03  0.00000000000E+00 0. -1.
         -5    1    5    5    0  501 -0.72810738271E+01 -0.80431152528E+02  0.25859111230E+03  0.27094951134E+03  0.47000000000E+01 0.  1.
         13    1    6    6    0    0  0.85043435606E+02 -0.25646548012E+02  0.28892182144E+03  0.30226801066E+03  0.00000000000E+00 0. -1.
        -14    1    6    6    0    0  0.21192041602E+02  0.16541128365E+02  0.31981351558E+03  0.32094142192E+03  0.00000000000E+00 0.  1.
</event>
<event>
12    1  0.1348628E-002  0.1908624E+03  0.7818608E-02  0.1157686E+00
          2   -1    0    0  502    0  0.00000000000E+00  0.00000000000E+00  0.21357529818E+03  0.21357529818E+03  0.00000000000E+00 0. -1.
         -2   -1    0    0    0  501 -0.00000000000E+00 -0.00000000000E+00 -0.22348845765E+03  0.22348845765E+03  0.00000000000E+00 0.  1.
          6    2    1    2  502    0 -0.31944170000E+02  0.76973576813E+02  0.10138643471E+03  0.21615038734E+03  0.17174521617E+03 0.  0.
         24    2    3    3    0    0 -0.41016827515E+02  0.72007159198E+02  0.13702201292E+03  0.17874767551E+03  0.79424733922E+02 0.  0.
         -6    2    1    2    0  501  0.31944170000E+02 -0.76973576813E+02 -0.11129959418E+03  0.22091336850E+03  0.17166757175E+03 0.  0.
        -24    2    5    5    0    0  0.62632087292E+02 -0.46810254887E+02 -0.12606434272E+02  0.11314507970E+03  0.80801661823E+02 0.  0.
          5    1    3    3  502    0  0.90726575155E+01  0.49664176152E+01 -0.35635578207E+02  0.37402711834E+02  0.47000000000E+01 0. -1.
        -13    1    4    4    0    0  0.38798435723E+01  0.57884513813E+02  0.38689752000E+02  0.69732109070E+02  0.00000000000E+00 0.  1.
         14    1    4    4    0    0 -0.44896671088E+02  0.14122645385E+02  0.98332260921E+02  0.10901556644E+03  0.00000000000E+00 0. -1.
         -5    1    5    5    0  501 -0.30687917292E+02 -0.30163321926E+02 -0.98693159912E+02  0.10776828880E+03  0.47000000000E+01 0.  1.
         11    1    6    6    0    0  0.57717528043E+02 -0.88558413253E+01 -0.35704452932E+02  0.68443750103E+02  0.00000000000E+00 0. -1.
        -12    1    6    6    0    0  0.49145592481E+01 -0.37954413562E+02  0.23098018660E+02  0.44701329594E+02  0.00000000000E+00 0.  1.
</event>
<event>
12    1  0.1348628E-002  0.1767919E+03  0.7818608E-02  0.1170944E+00
          2   -1    0    0  502    0  0.00000000000E+00  0.00000000000E+00  0.64377349891E+03  0.64377349891E+03  0.00000000000E+00 0.  1.
         -2   -1    0    0    0  501 -0.00000000000E+00 -0.00000000000E+00 -0.51596064214E+02  0.51596064214E+02  0.00000000000E+00 0. -1.
          6    2    1    2  502    0  0.42121971812E+02 -0.12906846284E+02  0.37833223476E+03  0.41701771283E+03  0.16978706005E+03 0.  0.
         24    2    3    3    0    0  0.91802198387E+02 -0.12378304019E+02  0.21959886658E+03  0.25062427412E+03  0.77511280063E+02 0.  0.
         -6    2    1    2    0  501 -0.42121971812E+02  0.12906846284E+02  0.21384519994E+03  0.27835185030E+03  0.17265322424E+03 0.  0.
        -24    2    5    5    0    0  0.46291621723E+02  0.14616643899E+01  0.70716818615E+02  0.10966344154E+03  0.69858079495E+02 0.  0.
          5    1    3    3  502    0 -0.49680226575E+02 -0.52854226491E+00  0.15873336819E+03  0.16639343871E+03  0.47000000000E+01 0. -1.
        -11    1    4    4    0    0  0.15141789281E+02 -0.22741181159E+02  0.12728052112E+03  0.13017974558E+03  0.00000000000E+00 0.  1.
         12    1    4    4    0    0  0.76660409105E+02  0.10362877140E+02  0.92318345458E+02  0.12044452854E+03  0.00000000000E+00 0. -1.
         -5    1    5    5    0  501 -0.88413593534E+02  0.11445181894E+02  0.14312838132E+03  0.16868840876E+03  0.47000000000E+01 0.  1.
         11    1    6    6    0    0  0.14502144120E+02 -0.24959822959E+02  0.13306279592E+01  0.28897673211E+02  0.00000000000E+00 0. -1.
        -12    1    6    6    0    0  0.31789477603E+02  0.26421487349E+02  0.69386190655E+02  0.80765768328E+02  0.00000000000E+00 0.  1.
</event>
<event>
12    1  0.1348628E-002  0.2046554E+03  0.7818608E-02  0.1145870E+00
         -2   -1    0    0    0  501 -0.00000000000E+00  0.00000000000E+00  0.34993225171E+02  0.34993225171E+02  0.00000000000E+00 0.  1.
          2   -1    0    0  502    0  0.00000000000E+00 -0.00000000000E+00 -0.20679955783E+04  0.20679955783E+04  0.00000000000E+00 0. -1.
          6    2    1    2  502    0  0.99911438794E+02  0.49415752727E+02 -0.16987686931E+04  0.17110449898E+04  0.17156827244E+03 0.  0.
         24    2    3    3    0    0  0.32181231118E+02  0.56202683889E+02 -0.50427195338E+03  0.51460109443E+03  0.79559475317E+02 0.  0.
         -6    2    1    2    0  501 -0.99911438794E+02 -0.49415752727E+02 -0.33423366001E+03  0.39194381369E+03  0.17170789553E+03 0.  0.
        -24    2    5    5    0    0 -0.63507175622E+02  0.29671562420E+02 -0.11950562734E+03  0.16018900402E+03  0.80407456552E+02 0.  0.
          5    1    3    3  502    0  0.67730207677E+02 -0.67869311625E+01 -0.11944967398E+04  0.11964438954E+04  0.47000000000E+01 0. -1.
        -13    1    4    4    0    0 -0.22286917156E+02  0.39873656024E+02 -0.23217966170E+03  0.23663053571E+03  0.00000000000E+00 0.  1.
         14    1    4    4    0    0  0.54468148273E+02  0.16329027865E+02 -0.27209229168E+03  0.27797055873E+03  0.00000000000E+00 0. -1.
         -5    1    5    5    0  501 -0.36404263172E+02 -0.79087315147E+02 -0.21472803267E+03  0.23175480968E+03  0.47000000000E+01 0.  1.
         11    1    6    6    0    0 -0.51737575757E+02 -0.95325134404E+01 -0.10375538549E+03  0.11633067341E+03  0.00000000000E+00 0. -1.
        -12    1    6    6    0    0 -0.11769599866E+02  0.39204075861E+02 -0.15750241850E+02  0.43858330605E+02  0.00000000000E+00 0.  1.
</event>
<event>
12    1  0.1348628E-002  0.2586959E+03  0.7818608E-02  0.1107929E+00
         -1   -1    0    0    0  501 -0.00000000000E+00  0.00000000000E+00  0.26421620275E+02  0.26421620275E+02  0.00000000000E+00 0. -1.
          1   -1    0    0  502    0  0.00000000000E+00 -0.00000000000E+00 -0.26428032193E+04  0.26428032193E+04  0.00000000000E+00 0.  1.
          6    2    1    2  502    0 -0.59263535960E+01  0.18770179984E+03 -0.10163910577E+04  0.10477685643E+04  0.17175882703E+03 0.  0.
         24    2    3    3    0    0 -0.54982859786E+02  0.83425102990E+02 -0.68083282404E+03  0.69294242583E+03  0.81565976670E+02 0.  0.
         -6    2    1    2    0  501  0.59263535960E+01 -0.18770179984E+03 -0.15999905412E+04  0.16214562753E+04  0.18407507499E+03 0.  0.
        -24    2    5    5    0    0  0.69347725050E+02 -0.15582413684E+03 -0.10416376355E+04  0.10585899384E+04  0.80705796266E+02 0.  0.
          5    1    3    3  502    0  0.49056506190E+02  0.10427669685E+03 -0.33555823370E+03  0.35482613842E+03  0.47000000000E+01 0. -1.
        -13    1    4    4    0    0 -0.70233793872E+02  0.49087904763E+02 -0.36710292852E+03  0.37697077914E+03  0.00000000000E+00 0.  1.
         14    1    4    4    0    0  0.15250934086E+02  0.34337198226E+02 -0.31372989552E+03  0.31597164669E+03  0.00000000000E+00 0. -1.
         -5    1    5    5    0  501 -0.63421371454E+02 -0.31877662998E+02 -0.55835290579E+03  0.56286633685E+03  0.47000000000E+01 0.  1.
         11    1    6    6    0    0 -0.56466548873E+01 -0.48138616723E+02 -0.15817070134E+03  0.16543029315E+03  0.00000000000E+00 0. -1.
        -12    1    6    6    0    0  0.74994379938E+02 -0.10768552012E+03 -0.88346693411E+03  0.89315964527E+03  0.00000000000E+00 0.  1.
</event>
<event>
12    1  0.1348628E-002  0.2180157E+03  0.7818608E-02  0.1135371E+00
         -2   -1    0    0    0  501 -0.00000000000E+00  0.00000000000E+00  0.11432299647E+03  0.11432299647E+03  0.00000000000E+00 0.  1.
          2   -1    0    0  502    0  0.00000000000E+00 -0.00000000000E+00 -0.13327668429E+04  0.13327668429E+04  0.00000000000E+00 0. -1.
          6    2    1    2  502    0  0.12930176255E+02  0.13205150778E+03 -0.99443991170E+01  0.21926270109E+03  0.17427693723E+03 0.  0.
         24    2    3    3    0    0  0.32348533999E+02  0.21614711516E+02 -0.47512900027E+02  0.10091220110E+03  0.80076046711E+02 0.  0.
         -6    2    1    2    0  501 -0.12930176255E+02 -0.13205150778E+03 -0.12084994473E+04  0.12278271383E+04  0.17170840741E+03 0.  0.
        -24    2    5    5    0    0  0.16221299135E+02 -0.63871313248E+02 -0.31606188592E+03  0.33230201946E+03  0.78656475935E+02 0.  0.
          5    1    3    3  502    0 -0.19418357744E+02  0.11043679626E+03  0.37568500910E+02  0.11835049998E+03  0.47000000000E+01 0. -1.
        -11    1    4    4    0    0 -0.17014534759E+02  0.23055718964E+02  0.47083041639E+01  0.29038400406E+02  0.00000000000E+00 0.  1.
         12    1    4    4    0    0  0.49363068757E+02 -0.14410074487E+01 -0.52221204191E+02  0.71873800698E+02  0.00000000000E+00 0. -1.
         -5    1    5    5    0  501 -0.29151475390E+02 -0.68180194529E+02 -0.89243756143E+03  0.89552511885E+03  0.47000000000E+01 0.  1.
         13    1    6    6    0    0  0.31186309871E+02 -0.10267734113E+02 -0.20974851034E+03  0.21230273167E+03  0.00000000000E+00 0. -1.
        -14    1    6    6    0    0 -0.14965010736E+02 -0.53603579135E+02 -0.10631337558E+03  0.11999928779E+03  0.00000000000E+00 0.  1.
</event>
<event>
12    1  0.1348628E-002  0.2251971E+03  0.7818608E-02  0.1130067E+00
          1   -1    0    0  502    0  0.00000000000E+00  0.00000000000E+00  0.69765847569E+02  0.69765847569E+02  0.00000000000E+00 0.  1.
         -1   -1    0    0    0  501 -0.00000000000E+00 -0.00000000000E+00 -0.77175687423E+03  0.77175687423E+03  0.00000000000E+00 0. -1.
          6    2    1    2  502    0 -0.13735087857E+03 -0.46009690269E+02 -0.45299836362E+03  0.50606301506E+03  0.17294537384E+03 0.  0.
         24    2    3    3    0    0 -0.16247665890E+03 -0.64072960102E+02 -0.36517930795E+03  0.41283285314E+03  0.81061882368E+02 0.  0.
         -6    2    1    2    0  501  0.13735087857E+03  0.46009690269E+02 -0.24899266304E+03  0.33545970673E+03  0.17191193429E+03 0.  0.
        -24    2    5    5    0    0  0.16433305259E+03  0.20378872672E+02 -0.22675636281E+03  0.29185329008E+03  0.79619370946E+02 0.  0.
          5    1    3    3  502    0  0.25125780327E+02  0.18063269834E+02 -0.87819055665E+02  0.93230161922E+02  0.47000000000E+01 0. -1.
        -11    1    4    4    0    0 -0.14047071628E+02 -0.65725614932E+00 -0.54736167975E+00  0.14073088210E+02  0.00000000000E+00 0.  1.
         12    1    4    4    0    0 -0.14842958727E+03 -0.63415703953E+02 -0.36463194627E+03  0.39875976493E+03  0.00000000000E+00 0. -1.
         -5    1    5    5    0  501 -0.26982174020E+02  0.25630817597E+02 -0.22236300233E+02  0.43606416656E+02  0.47000000000E+01 0.  1.
         11    1    6    6    0    0  0.32830919838E+02  0.23126639025E+02 -0.10578534987E+03  0.11315145151E+03  0.00000000000E+00 0. -1.
        -12    1    6    6    0    0  0.13150213275E+03 -0.27477663534E+01 -0.12097101293E+03  0.17870183857E+03  0.00000000000E+00 0.  1.
</event>
<event>
12    1  0.1348628E-002  0.1964976E+03  0.7818608E-02  0.1152728E+00
         -1   -1    0    0    0  501 -0.00000000000E+00  0.00000000000E+00  0.65069903248E+02  0.65069903248E+02  0.00000000000E+00 0.  1.
          1   -1    0    0  502    0  0.00000000000E+00 -0.00000000000E+00 -0.18344044356E+04  0.18344044356E+04  0.00000000000E+00 0. -1.
          6    2    1    2  502    0 -0.73780910301E+02 -0.57251314672E+02 -0.10350307389E+03  0.22209419757E+03  0.17289190419E+03 0.  0.
         24    2    3    3    0    0 -0.48581724853E+02  0.14810021538E+02 -0.10978441836E+03  0.14535189886E+03  0.80591781594E+02 0.  0.
         -6    2    1    2    0  501  0.73780910301E+02  0.57251314672E+02 -0.16658314584E+04  0.16773801412E+04  0.17288248784E+03 0.  0.
        -24    2    5    5    0    0  0.86531204142E+02  0.41328397388E+00 -0.14329559211E+04  0.14372838322E+04  0.70244732338E+02 0.  0.
          5    1    3    3  502    0 -0.25199185448E+02 -0.72061336210E+02  0.62813444613E+01  0.76742298714E+02  0.47000000000E+01 0. -1.
        -13    1    4    4    0    0 -0.46461026664E+02 -0.16534839762E+02 -0.25742904724E+02  0.55630253175E+02  0.00000000000E+00 0.  1.
         14    1    4    4    0    0 -0.21206981888E+01  0.31344861300E+02 -0.84041513632E+02  0.89721645684E+02  0.00000000000E+00 0. -1.
         -5    1    5    5    0  501 -0.12750293840E+02  0.56838030699E+02 -0.23287553728E+03  0.24009630899E+03  0.47000000000E+01 0.  1.
         11    1    6    6    0    0  0.32251029919E+02  0.98527382786E+01 -0.18090191716E+03  0.18401823012E+03  0.00000000000E+00 0. -1.
        -12    1    6    6    0    0  0.54280174222E+02 -0.94394543047E+01 -0.12520540040E+04  0.12532656021E+04  0.00000000000E+00 0.  1.
</event>
<event>
12    1  0.1348628E-002  0.1829681E+03  0.7818608E-02  0.1164961E+00
          1   -1    0    0  502    0  0.00000000000E+00  0.00000000000E+00  0.19174991534E+04  0.19174991534E+04  0.00000000000E+00 0.  1.
         -1   -1    0    0    0  501 -0.00000000000E+00 -0.00000000000E+00 -0.21098651382E+02  0.21098651382E+02  0.00000000000E+00 0. -1.
          6    2    1    2  502    0  0.15429946206E+02 -0.62366014943E+02  0.13512363282E+04  0.13635815145E+04  0.17142732893E+03 0.  0.
         24    2    3    3    0    0  0.60601942800E+02 -0.43428561283E+02  0.12061138145E+04  0.12103438872E+04  0.68287308819E+02 0.  0.
         -6    2    1    2    0  501 -0.15429946206E+02  0.62366014943E+02  0.54516417385E+03  0.57501629027E+03  0.17120792787E+03 0.  0.
        -24    2    5    5    0    0  0.11038455727E+02 -0.13446920394E+02  0.14359093268E+03  0.16546612791E+03  0.80361784226E+02 0.  0.
          5    1    3    3  502    0 -0.45171996594E+02 -0.18937453659E+02  0.14512251372E+03  0.15323762729E+03  0.47000000000E+01 0. -1.
        -11    1    4    4    0    0  0.71667090222E+02 -0.39369738030E+02  0.82373738174E+03  0.82778585526E+03  0.00000000000E+00 0.  1.
         12    1    4    4    0    0 -0.11065147422E+02 -0.40588232529E+01  0.38237643271E+03  0.38255803197E+03  0.00000000000E+00 0. -1.
         -5    1    5    5    0  501 -0.26468401933E+02  0.75812935337E+02  0.40157324117E+03  0.40955016236E+03  0.47000000000E+01 0.  1.
         11    1    6    6    0    0  0.22941411483E+02  0.29663519128E+02  0.65627790815E+02  0.75585975254E+02  0.00000000000E+00 0. -1.
        -12    1    6    6    0    0 -0.11902955756E+02 -0.43110439522E+02  0.77963141863E+02  0.89880152652E+02  0.00000000000E+00 0.  1.
</event>
<event>
12    1  0.1348628E-002  0.1947168E+03  0.7818608E-02  0.1154275E+00
          2   -1    0    0  502    0  0.00000000000E+00  0.00000000000E+00  0.47267747387E+03  0.47267747387E+03  0.00000000000E+00 0.  1.
         -2   -1    0    0    0  501 -0.00000000000E+00 -0.00000000000E+00 -0.81470454219E+02  0.81470454219E+02  0.00000000000E+00 0. -1.
          6    2    1    2  502    0  0.61616586342E+02  0.76500697483E+02  0.16181197094E+03  0.25366351919E+03  0.16885824410E+03 0.  0.
         24    2    3    3    0    0  0.10284179661E+03  0.71981926715E+02  0.10224115239E+03  0.18092625450E+03  0.80766474636E+02 0.  0.
         -6    2    1    2    0  501 -0.61616586342E+02 -0.76500697483E+02  0.22939504871E+03  0.30048440890E+03  0.16739125183E+03 0.  0.
        -24    2    5    5    0    0  0.30391614053E+02 -0.21460482075E+02  0.10832889850E+03  0.13870048825E+03  0.78220666681E+02 0.  0.
          5    1    3    3  502    0 -0.41225210265E+02  0.45187707679E+01  0.59570818553E+02  0.72737264684E+02  0.47000000000E+01 0. -1.
        -13    1    4    4    0    0 -0.72684032414E+01  0.23658375487E+02  0.35864396923E+02  0.43575261135E+02  0.00000000000E+00 0.  1.
         14    1    4    4    0    0  0.11011019985E+03  0.48323551228E+02  0.66376755463E+02  0.13735099337E+03  0.00000000000E+00 0. -1.
         -5    1    5    5    0  501 -0.92008200395E+02 -0.55040215407E+02  0.12106615021E+03  0.16178392064E+03  0.47000000000E+01 0.  1.
         13    1    6    6    0    0  0.77704238464E+01  0.19786677404E+02  0.82166654736E+02  0.84871969696E+02  0.00000000000E+00 0. -1.
        -14    1    6    6    0    0  0.22621190206E+02 -0.41247159479E+02  0.26162243764E+02  0.53828518559E+02  0.00000000000E+00 0.  1.
</event>
<event>
12    1  0.1348628E-002  0.1826335E+03  0.7818608E-02  0.1165278E+00
          1   -1    0    0  502    0  0.00000000000E+00  0.00000000000E+00  0.15836549149E+04  0.15836549149E+04  0.00000000000E+00 0. -1.
         -1   -1    0    0    0  501 -0.00000000000E+00 -0.00000000000E+00 -0.86854431441E+02  0.86854431441E+02  0.00000000000E+00 0.  1.
          6    2    1    2  502    0 -0.15430776810E+02 -0.50707580183E+02  0.18368545240E+02  0.18044654857E+03  0.17150564386E+03 0.  0.
         24    2    3    3    0    0 -0.50998496328E+02  0.19479669595E+02 -0.40323441820E+01  0.98500209112E+02  0.81888504934E+02 0.  0.
         -6    2    1    2    0  501  0.15430776810E+02  0.50707580183E+02  0.14784319382E+04  0.14900627978E+04  0.17809204868E+03 0.  0.
        -24    2    5    5    0    0 -0.58238478710E+02  0.51860591996E+02  0.96691747940E+03  0.97324791774E+03  0.78745514218E+02 0.  0.
          5    1    3    3  502    0  0.35567719518E+02 -0.70187249778E+02  0.22400889422E+02  0.81946339454E+02  0.47000000000E+01 0. -1.
        -11    1    4    4    0    0 -0.52459545958E+02  0.14305214621E+01 -0.34679957103E+02  0.62902700884E+02  0.00000000000E+00 0.  1.
         12    1    4    4    0    0  0.14610496304E+01  0.18049148133E+02  0.30647612921E+02  0.35597508228E+02  0.00000000000E+00 0. -1.
         -5    1    5    5    0  501  0.73669255520E+02 -0.11530118131E+01  0.51151445881E+03  0.51681488002E+03  0.47000000000E+01 0.  1.
         13    1    6    6    0    0 -0.60850304788E+02  0.66992120760E+02  0.69071244317E+03  0.69661638151E+03  0.00000000000E+00 0. -1.
        -14    1    6    6    0    0  0.26118260780E+01 -0.15131528764E+02  0.27620503624E+03  0.27663153624E+03  0.00000000000E+00 0.  1.
</event>
<event>
12    1  0.1348628E-002  0.2916093E+03  0.7818608E-02  0.1089512E+00
         -2   -1    0    0    0  501 -0.00000000000E+00  0.00000000000E+00  0.95325350056E+02  0.95325350056E+02  0.00000000000E+00 0.  1.
          2   -1    0    0  502    0  0.00000000000E+00 -0.00000000000E+00 -0.11901959550E+04  0.11901959550E+04  0.00000000000E+00 0. -1.
          6    2    1    2  502    0  0.12437045283E+03 -0.19395032285E+03 -0.21836204751E+03  0.36004633702E+03  0.16990186504E+03 0.  0.
         24    2    3    3    0    0  0.76485587258E+02 -0.15768257230E+03 -0.22854033908E+03  0.29893989138E+03  0.80128231003E+02 0.  0.
         -6    2    1    2    0  501 -0.12437045283E+03  0.19395032285E+03 -0.87650855740E+03  0.92547496800E+03  0.18748847412E+03 0.  0.
        -24    2    5    5    0    0 -0.31304803850E+02  0.12574508833E+03 -0.28855509734E+03  0.32628841088E+03  0.80051638907E+02 0.  0.
          5    1    3    3  502    0  0.47884865568E+02 -0.36267750550E+02  0.10178291572E+02  0.61106445648E+02  0.47000000000E+01 0. -1.
        -13    1    4    4    0    0 -0.94365684930E+01 -0.47714904959E+02 -0.33277458729E+02  0.58933439062E+02  0.00000000000E+00 0.  1.
         14    1    4    4    0    0  0.85922155751E+02 -0.10996766734E+03 -0.19526288035E+03  0.24000645231E+03  0.00000000000E+00 0. -1.
         -5    1    5    5    0  501 -0.93065648976E+02  0.68205234521E+02 -0.58795346005E+03  0.59918655711E+03  0.47000000000E+01 0.  1.
         11    1    6    6    0    0  0.67911959106E+01  0.70021775673E+02 -0.21609857371E+03  0.22726144189E+03  0.00000000000E+00 0. -1.
        -12    1    6    6    0    0 -0.38095999761E+02  0.55723312653E+02 -0.72456523628E+02  0.99026968989E+02  0.00000000000E+00 0.  1.
</event>
<event>
12    1  0.1348628E-002  0.1774319E+03  0.7818608E-02  0.1170312E+00
         -2   -1    0    0    0  501 -0.00000000000E+00  0.00000000000E+00  0.32233007569E+03  0.32233007569E+03  0.00000000000E+00 0.  1.
          2   -1    0    0  502    0  0.00000000000E+00 -0.00000000000E+00 -0.11076602496E+03  0.11076602496E+03  0.00000000000E+00 0. -1.
          6    2    1    2  502    0  0.12809589847E+02  0.35804148311E+02  0.30867712134E+02  0.17923085724E+03  0.17240899601E+03 0.  0.
         24    2    3    3    0    0 -0.51554964133E+02  0.32941187101E+02 -0.12698902975E+02  0.10131338610E+03  0.79750259763E+02 0.  0.
         -6    2    1    2    0  501 -0.12809589847E+02 -0.35804148311E+02  0.18069633860E+03  0.25386524342E+03  0.17421358272E+03 0.  0.
        -24    2    5    5    0    0  0.38257316033E+01  0.24232362309E+02  0.17153460014E+03  0.19072140778E+03  0.79678684324E+02 0.  0.
          5    1    3    3  502    0  0.64364553980E+02  0.28629612094E+01  0.43566615109E+02  0.77917471135E+02  0.47000000000E+01 0. -1.
        -13    1    4    4    0    0  0.17397699653E+02  0.51441147345E+01  0.13363445549E+02  0.22532721685E+02  0.00000000000E+00 0.  1.
         14    1    4    4    0    0 -0.68952663786E+02  0.27797072367E+02 -0.26062348524E+02  0.78780664417E+02  0.00000000000E+00 0. -1.
         -5    1    5    5    0  501 -0.16635321451E+02 -0.60036510619E+02  0.91617384620E+01  0.63143835635E+02  0.47000000000E+01 0.  1.
         11    1    6    6    0    0 -0.29001613969E+01  0.20097834877E+02  0.13468448835E+01  0.20350623922E+02  0.00000000000E+00 0. -1.
        -12    1    6    6    0    0  0.67258930003E+01  0.41345274315E+01  0.17018775525E+03  0.17037078386E+03  0.00000000000E+00 0.  1.
</event>
<event>
12    1  0.1348628E-002  0.1826177E+03  0.7818608E-02  0.1165293E+00
          2   -1    0    0  502    0  0.00000000000E+00  0.00000000000E+00  0.54277486323E+03  0.54277486323E+03  0.00000000000E+00 0. -1.
         -2   -1    0    0    0  501 -0.00000000000E+00 -0.00000000000E+00 -0.78791879455E+02  0.78791879455E+02  0.00000000000E+00 0.  1.
          6    2    1    2  502    0  0.55760341362E+02 -0.26821703884E+02  0.37759111011E+03  0.41932984615E+03  0.17156297377E+03 0.  0.
         24    2    3    3    0    0 -0.21007045216E+02  0.22305669261E+02  0.23061997438E+03  0.24632887745E+03  0.80953717952E+02 0.  0.
         -6    2    1    2    0  501 -0.55760341362E+02  0.26821703884E+02  0.86391873660E+02  0.20223689653E+03  0.17206855325E+03 0.  0.
        -24    2    5    5    0    0  0.31394799406E+02 -0.18399348497E+02  0.40931758687E+02  0.93933276121E+02  0.76314363254E+02 0.  0.
          5    1    3    3  502    0  0.76767386578E+02 -0.49127373145E+02  0.14697113573E+03  0.17300096870E+03  0.47000000000E+01 0. -1.
        -13    1    4    4    0    0 -0.27925218873E+02 -0.53108549087E+01  0.22452096619E+02  0.36223192454E+02  0.00000000000E+00 0.  1.
         14    1    4    4    0    0  0.69181736569E+01  0.27616524170E+02  0.20816787777E+03  0.21010568500E+03  0.00000000000E+00 0. -1.
         -5    1    5    5    0  501 -0.87155140768E+02  0.45221052381E+02  0.45460114973E+02  0.10830362041E+03  0.47000000000E+01 0.  1.
         13    1    6    6    0    0 -0.16795101493E+02 -0.30523265756E+02  0.15980283587E+02  0.38329031427E+02  0.00000000000E+00 0. -1.
        -14    1    6    6    0    0  0.48189900900E+02  0.12123917259E+02  0.24951475100E+02  0.55604244695E+02  0.00000000000E+00 0.  1.
</event>
<event>
12    1  0.1348628E-002  0.2040156E+03  0.7818608E-02  0.1146395E+00
          2   -1    0    0  502    0  0.00000000000E+00  0.00000000000E+00  0.98957665095E+03  0.98957665095E+03  0.00000000000E+00 0. -1.
         -2   -1    0    0    0  501 -0.00000000000E+00 -0.00000000000E+00 -0.43727557640E+02  0.43727557640E+02  0.00000000000E+00 0.  1.
          6    2    1    2  502    0 -0.10133860246E+03 -0.45075888043E+02  0.37471480610E+03  0.42721783077E+03  0.17263412462E+03 0.  0.
         24    2    3    3    0    0 -0.29009786420E+02 -0.86336346504E+02  0.24122936225E+03  0.26981917517E+03  0.79468545010E+02 0.  0.
         -6    2    1    2    0  501  0.10133860246E+03  0.45075888043E+02  0.57113428721E+03  0.60608637782E+03  0.16983808561E+03 0.  0.
        -24    2    5    5    0    0  0.34534280032E+02 -0.45425287910E+02  0.14911016423E+03  0.16930298674E+03  0.56334598297E+02 0.  0.
          5    1    3    3  502    0 -0.72328816037E+02  0.41260458460E+02  0.13348544385E+03  0.15739865559E+03  0.47000000000E+01 0. -1.
        -11    1    4    4    0    0  0.23832263925E+02 -0.37392999177E+02  0.12954702962E+03  0.13692569545E+03  0.00000000000E+00 0.  1.
         12    1    4    4    0    0 -0.52842050345E+02 -0.48943347327E+02  0.11168233263E+03  0.13289347973E+03  0.00000000000E+00 0. -1.
         -5    1    5    5    0  501  0.66804322425E+02  0.90501175953E+02  0.42202412298E+03  0.43678339108E+03  0.47000000000E+01 0.  1.
         11    1    6    6    0    0  0.46354789691E+02 -0.35139606375E+02  0.13893407206E+03  0.15061950353E+03  0.00000000000E+00 0. -1.
        -12    1    6    6    0    0 -0.11820509659E+02 -0.10285681535E+02  0.10176092162E+02  0.18683483212E+02  0.00000000000E+00 0.  1.
</event>
<event>
12    1  0.1348628E-002  0.2365643E+03  0.7818608E-02  0.1122103E+00
          1   -1    0    0  502    0  0.00000000000E+00  0.00000000000E+00  0.94548510883E+03  0.94548510883E+03  0.00000000000E+00 0. -1.
         -1   -1    0    0    0  501 -0.00000000000E+00 -0.00000000000E+00 -0.59593886934E+02  0.59593886934E+02  0.00000000000E+00 0.  1.
          6    2    1    2  502    0 -0.16134228557E+03  0.18340789719E+02  0.40107036364E+03  0.46550971814E+03  0.17168035242E+03 0.  0.
         24    2    3    3    0    0 -0.39682899059E+02  0.41786209965E+02  0.26017536687E+03  0.27782864777E+03  0.78592087241E+02 0.  0.
         -6    2    1    2    0  501  0.16134228557E+03 -0.18340789719E+02  0.48482085826E+03  0.53956927763E+03  0.17238336079E+03 0.  0.
        -24    2    5    5    0    0  0.43170960400E+02  0.31717942854E+02  0.29668386110E+03  0.31177999232E+03  0.79471318441E+02 0.  0.
          5    1    3    3  502    0 -0.12165938652E+03 -0.23445420246E+02  0.14089499677E+03  0.18768107036E+03  0.47000000000E+01 0. -1.
        -11    1    4    4    0    0 -0.53533475865E+01  0.38624392812E+02  0.43462811350E+02  0.58391078265E+02  0.00000000000E+00 0.  1.
         12    1    4    4    0    0 -0.34329551472E+02  0.31618171531E+01  0.21671255552E+03  0.21943756951E+03  0.00000000000E+00 0. -1.
         -5    1    5    5    0  501  0.11817132517E+03 -0.50058732573E+02  0.18813699716E+03  0.22778928530E+03  0.47000000000E+01 0.  1.
         11    1    6    6    0    0  0.11295837611E+02 -0.92706232950E+01  0.21159850339E+03  0.21210249183E+03  0.00000000000E+00 0. -1.
        -12    1    6    6    0    0  0.31875122789E+02  0.40988566149E+02  0.85085357709E+02  0.99677500492E+02  0.00000000000E+00 0.  1.
</event>
<event>
12    1  0.1348628E-002  0.2063924E+03  0.7818608E-02  0.1144455E+00
         -2   -1    0    0    0  501 -0.00000000000E+00  0.00000000000E+00  0.26485569864E+03  0.26485569864E+03  0.00000000000E+00 0. -1.
          2   -1    0    0  502    0  0.00000000000E+00 -0.00000000000E+00 -0.17034220052E+03  0.17034220052E+03  0.00000000000E+00 0.  1.
          6    2    1    2  502    0  0.80643259904E+02 -0.82700020481E+02  0.98705849696E+02  0.22894738906E+03  0.17126422112E+03 0.  0.
         24    2    3    3    0    0  0.12198832994E+03 -0.50909672358E+02  0.71586753884E+02  0.16997640969E+03  0.79337060299E+02 0.  0.
         -6    2    1    2    0  501 -0.80643259904E+02  0.82700020481E+02 -0.41923515828E+01  0.20625051010E+03  0.17081881732E+03 0.  0.
        -24    2    5    5    0    0 -0.41651858304E+02  0.45706228299E+02  0.63689757626E+02  0.11953868386E+03  0.80057323889E+02 0.  0.
          5    1    3    3  502    0 -0.41345070038E+02 -0.31790348123E+02  0.27119095813E+02  0.58970979371E+02  0.47000000000E+01 0. -1.
        -13    1    4    4    0    0  0.65120208025E+01  0.17134751636E+01 -0.14937217487E+02  0.16384836841E+02  0.00000000000E+00 0.  1.
         14    1    4    4    0    0  0.11547630914E+03 -0.52623147522E+02  0.86523971370E+02  0.15359157285E+03  0.00000000000E+00 0. -1.
         -5    1    5    5    0  501 -0.38991401600E+02  0.36993792182E+02 -0.67882109209E+02  0.86711826237E+02  0.47000000000E+01 0.  1.
         13    1    6    6    0    0 -0.47434276872E+02  0.65073348634E+02  0.46384111339E+02  0.92930280907E+02  0.00000000000E+00 0. -1.
        -14    1    6    6    0    0  0.57824185679E+01 -0.19367120335E+02  0.17305646286E+02  0.26608402957E+02  0.00000000000E+00 0.  1.
</event>
<event>
12    1  0.1348628E-002  0.2091366E+03  0.7818608E-02  0.1142252E+00
         -2   -1    0    0    0  501 -0.00000000000E+00  0.00000000000E+00  0.41925811715E+02  0.41925811715E+02  0.00000000000E+00 0.  1.
          2   -1    0    0  502    0  0.00000000000E+00 -0.00000000000E+00 -0.12045647033E+04  0.12045647033E+04  0.00000000000E+00 0. -1.
          6    2    1    2  502    0 -0.21802010545E+02 -0.11566415287E+03 -0.80638354192E+03  0.83275110333E+03  0.17136644794E+03 0.  0.
         24    2    3    3    0    0  0.38546832492E+02 -0.50576142174E+02 -0.58360882653E+03  0.59289886587E+03  0.82981915476E+02 0.  0.
         -6    2    1    2    0  501  0.21802010545E+02  0.11566415287E+03 -0.35625534969E+03  0.41373941172E+03  0.17438148612E+03 0.  0.
        -24    2    5    5    0    0  0.13814983011E+02 -0.10886542545E+02 -0.14687790956E+03  0.16891320079E+03  0.81542495188E+02 0.  0.
          5    1    3    3  502    0 -0.60348843037E+02 -0.65088010700E+02 -0.22277471539E+03  0.23985223745E+03  0.47000000000E+01 0. -1.
        -11    1    4    4    0    0  0.85400250178E+01 -0.39914964853E+02 -0.96859638594E+02  0.10510911490E+03  0.00000000000E+00 0.  1.
         12    1    4    4    0    0  0.30006807474E+02 -0.10661177321E+02 -0.48674918793E+03  0.48778975097E+03  0.00000000000E+00 0. -1.
         -5    1    5    5    0  501  0.79870275339E+01  0.12655069542E+03 -0.20937744013E+03  0.24482621092E+03  0.47000000000E+01 0.  1.
         13    1    6    6    0    0 -0.39687952052E+01 -0.27408757019E+02 -0.14132336833E+03  0.14401140835E+03  0.00000000000E+00 0. -1.
        -14    1    6    6    0    0  0.17783778216E+02  0.16522214474E+02 -0.55545412237E+01  0.24901792445E+02  0.00000000000E+00 0.  1.
</event>
<event>
12    1  0.1348628E-002  0.1941729E+03  0.7818608E-02  0.1154751E+00
          2   -1    0    0  502    0  0.00000000000E+00  0.00000000000E+00  0.41721545280E+03  0.41721545280E+03  0.00000000000E+00 0. -1.
         -2   -1    0    0    0  501 -0.00000000000E+00 -0.00000000000E+00 -0.15746383602E+03  0.15746383602E+03  0.00000000000E+00 0.  1.
          6    2    1    2  502    0  0.87373870243E+02 -0.26180646396E+02  0.31709212742E+03  0.37135355643E+03  0.17040078390E+03 0.  0.
         24    2    3    3    0    0 -0.13480962410E+02 -0.32446224604E+02  0.11470460299E+03  0.14509318698E+03  0.81611231592E+02 0.  0.
         -6    2    1    2    0  501 -0.87373870243E+02  0.26180646396E+02 -0.57340510639E+02  0.20332573239E+03  0.17243491481E+03 0.  0.
        -24    2    5    5    0    0 -0.53171829711E+00  0.60987082149E+02 -0.13896020898E+02  0.10006605481E+03  0.78105115170E+02 0.  0.
          5    1    3    3  502    0  0.10085483265E+03  0.62655782081E+01  0.20238752443E+03  0.22626036945E+03  0.47000000000E+01 0. -1.
        -11    1    4    4    0    0 -0.23649917202E+02 -0.24743489499E+02  0.12443001801E+03  0.12905188196E+03  0.00000000000E+00 0.  1.
         12    1    4    4    0    0  0.10168954792E+02 -0.77027351050E+01 -0.97254150123E+01  0.16041305022E+02  0.00000000000E+00 0. -1.
         -5    1    5    5    0  501 -0.86842151946E+02 -0.34806435753E+02 -0.43444489741E+02  0.10325967758E+03  0.47000000000E+01 0.  1.
         11    1    6    6    0    0 -0.17071442082E+02  0.30329763846E+01  0.23450759468E+02  0.29164553831E+02  0.00000000000E+00 0. -1.
        -12    1    6    6    0    0  0.16539723785E+02  0.57954105765E+02 -0.37346780366E+02  0.70901500983E+02  0.00000000000E+00 0.  1.
</event>
<event>
12    1  0.1348628E-002  0.2232305E+03  0.7818608E-02  0.1131497E+00
          2   -1    0    0  502    0  0.00000000000E+00  0.00000000000E+00  0.19402370108E+04  0.19402370108E+04  0.00000000000E+00 0. -1.
         -2   -1    0    0    0  501 -0.00000000000E+00 -0.00000000000E+00 -0.74157679753E+02  0.74157679753E+02  0.00000000000E+00 0.  1.
          6    2    1    2  502    0  0.14348587992E+03 -0.25623845377E+02  0.11566903223E+03  0.24953498320E+03  0.16626365699E+03 0.  0.
         24    2    3    3    0    0  0.14650180491E+03  0.18690129798E+02  0.11792900727E+03  0.20481338119E+03  0.78925094653E+02 0.  0.
         -6    2    1    2    0  501 -0.14348587992E+03  0.25623845377E+02  0.17504102988E+04  0.17648597073E+04  0.17189762430E+03 0.  0.
        -24    2    5    5    0    0 -0.52069086040E+02 -0.47380971845E+02  0.79462685494E+03  0.80193145710E+03  0.81890640998E+02 0.  0.
          5    1    3    3  502    0 -0.30159249914E+01 -0.44313975175E+02 -0.22599750370E+01  0.44721602012E+02  0.47000000000E+01 0. -1.
        -11    1    4    4    0    0  0.12537487291E+03 -0.60672866665E+01  0.61751637193E+02  0.13988901108E+03  0.00000000000E+00 0.  1.
         12    1    4    4    0    0  0.21126931997E+02  0.24757416465E+02  0.56177370075E+02  0.64924370110E+02  0.00000000000E+00 0. -1.
         -5    1    5    5    0  501 -0.91416793876E+02  0.73004817222E+02  0.95578344387E+03  0.96292825025E+03  0.47000000000E+01 0.  1.
         11    1    6    6    0    0 -0.53571530548E+02 -0.16950609777E+02  0.70563526429E+03  0.70786888494E+03  0.00000000000E+00 0. -1.
        -12    1    6    6    0    0  0.15024445075E+01 -0.30430362069E+02  0.88991590647E+02  0.94062572158E+02  0.00000000000E+00 0.  1.
</event>
<event>
12    1  0.1348628E-002  0.2048526E+03  0.7818608E-02  0.1145708E+00
          1   -1    0    0  502    0  0.00000000000E+00  0.00000000000E+00  0.74888303622E+03  0.74888303622E+03  0.00000000000E+00 0.  1.
         -1   -1    0    0    0  501 -0.00000000000E+00 -0.00000000000E+00 -0.56629788060E+02  0.56629788060E+02  0.00000000000E+00 0. -1.
          6    2    1    2  502    0 -0.98834487241E+02  0.48734382704E+02  0.30519516778E+03  0.36767144363E+03  0.17290142884E+03 0.  0.
         24    2    3    3    0    0  0.59686473960E+01  0.43851551602E+02  0.84307855144E+02  0.12308846394E+03  0.78002385772E+02 0.  0.
         -6    2    1    2    0  501  0.98834487241E+02 -0.48734382704E+02  0.38705808038E+03  0.43784138066E+03  0.17247556668E+03 0.  0.
        -24    2    5    5    0    0 -0.12011266611E+02 -0.47124727164E+02  0.18343554381E+03  0.20595002779E+03  0.80011279044E+02 0.  0.
          5    1    3    3  502    0 -0.10480313464E+03  0.48828311021E+01  0.22088731264E+03  0.24458297969E+03  0.47000000000E+01 0. -1.
        -13    1    4    4    0    0 -0.17020144900E+02  0.12048431776E+02  0.81074817871E+02  0.83713655598E+02  0.00000000000E+00 0.  1.
         14    1    4    4    0    0  0.22988792296E+02  0.31803119826E+02  0.32330372733E+01  0.39374808341E+02  0.00000000000E+00 0. -1.
         -5    1    5    5    0  501  0.11084575385E+03 -0.16096555400E+01  0.20362253657E+03  0.23189135287E+03  0.47000000000E+01 0.  1.
         11    1    6    6    0    0  0.18390579078E+02  0.15386164297E+02  0.42237868716E+02  0.48569383405E+02  0.00000000000E+00 0. -1.
        -12    1    6    6    0    0 -0.30401845689E+02 -0.62510891461E+02  0.14119767510E+03  0.15738064438E+03  0.00000000000E+00 0.  1.
</event>
<event>
12    1  0.1348628E-002  0.1971459E+03  0.7818608E-02  0.1152170E+00
          2   -1    0    0  502    0  0.00000000000E+00  0.00000000000E+00  0.29914521013E+04  0.29914521013E+04  0.00000000000E+00 0. -1.
         -2   -1    0    0    0  501 -0.00000000000E+00 -0.00000000000E+00 -0.16106811726E+02  0.16106811726E+02  0.00000000000E+00 0.  1.
          6    2    1    2  502    0  0.93117755268E+02  0.22249399291E+02  0.21482784484E+04  0.21572959562E+04  0.17221962346E+03 0.  0.
         24    2    3    3    0    0  0.23236860926E+02  0.39645620055E+02  0.60771183095E+03  0.61503995907E+03  0.82757204461E+02 0.  0.
         -6    2    1    2    0  501 -0.93117755268E+02 -0.22249399291E+02  0.82706684123E+03  0.85026295687E+03  0.17245748418E+03 0.  0.
        -24    2    5    5    0    0 -0.24498233403E+02  0.46490951217E+02  0.49892267489E+03  0.50801369321E+03  0.79953142478E+02 0.  0.
          5    1    3    3  502    0  0.69880894342E+02 -0.17396220764E+02  0.15405666174E+04  0.15422559971E+04  0.47000000000E+01 0. -1.
        -13    1    4    4    0    0 -0.16368456311E+01  0.61356441548E+02  0.41660043919E+03  0.42109763490E+03  0.00000000000E+00 0.  1.
         14    1    4    4    0    0  0.24873706557E+02 -0.21710821494E+02  0.19111139175E+03  0.19394232417E+03  0.00000000000E+00 0. -1.
         -5    1    5    5    0  501 -0.68619521864E+02 -0.68740350508E+02  0.32814416634E+03  0.34224926365E+03  0.47000000000E+01 0.  1.
         13    1    6    6    0    0  0.24098885553E+02  0.73603984254E+01  0.25483887184E+03  0.25608159315E+03  0.00000000000E+00 0. -1.
        -14    1    6    6    0    0 -0.48597118956E+02  0.39130552792E+02  0.24408380304E+03  0.25193210006E+03  0.00000000000E+00 0.  1.
</event>
<event>
12    1  0.1348628E-002  0.2519589E+03  0.7818608E-02  0.1112073E+00
          4   -1    0    0  502    0  0.00000000000E+00  0.00000000000E+00  0.30197589077E+03  0.30197589077E+03  0.00000000000E+00 0. -1.
         -4   -1    0    0    0  501 -0.00000000000E+00 -0.00000000000E+00 -0.26916874369E+03  0.26916874369E+03  0.00000000000E+00 0.  1.
          6    2    1    2  502    0 -0.96769233505E+02  0.15462216944E+03 -0.11729783232E+03  0.27654057646E+03  0.17159140167E+03 0.  0.
         24    2    3    3    0    0 -0.43040456748E+02  0.24104096904E+02 -0.96576306368E+02  0.13380578621E+03  0.78380591137E+02 0.  0.
         -6    2    1    2    0  501  0.96769233505E+02 -0.15462216944E+03  0.15010497940E+03  0.29460405801E+03  0.17603336706E+03 0.  0.
        -24    2    5    5    0    0  0.26772364150E+01 -0.49524741288E+02  0.11585114826E+03  0.14936567373E+03  0.80179475807E+02 0.  0.
          5    1    3    3  502    0 -0.53728776757E+02  0.13051807253E+03 -0.20721525953E+02  0.14273479025E+03  0.47000000000E+01 0. -1.
        -13    1    4    4    0    0  0.32308174647E+00 -0.20716146575E+01  0.12958338451E+02  0.13126861944E+02  0.00000000000E+00 0.  1.
         14    1    4    4    0    0 -0.43363538494E+02  0.26175711561E+02 -0.10953464482E+03  0.12067892427E+03  0.00000000000E+00 0. -1.
         -5    1    5    5    0  501  0.94091997090E+02 -0.10509742815E+03  0.34253831148E+02  0.14523838428E+03  0.47000000000E+01 0.  1.
         11    1    6    6    0    0  0.34740644619E+02 -0.34283747958E+02  0.98326964001E+02  0.10977467655E+03  0.00000000000E+00 0. -1.
        -12    1    6    6    0    0 -0.32063408204E+02 -0.15240993329E+02  0.17524184256E+02  0.39590997173E+02  0.00000000000E+00 0.  1.
</event>
<event>
12    1  0.1348628E-002  0.1770209E+03  0.7818608E-02  0.1170718E+00
         -4   -1    0    0    0  501 -0.00000000000E+00  0.00000000000E+00  0.47370110997E+03  0.47370110997E+03  0.00000000000E+00 0.  1.
          4   -1    0    0  502    0  0.00000000000E+00 -0.00000000000E+00 -0.66324352602E+02  0.66324352602E+02  0.00000000000E+00 0. -1.
          6    2    1    2  502    0  0.18392437642E+02  0.40944948015E+02  0.19014748427E+03  0.25991842552E+03  0.17142564458E+03 0.  0.
         24    2    3    3    0    0  0.67159533561E+02  0.52033618445E+02  0.88278821746E+02  0.14633804579E+03  0.80023577020E+02 0.  0.
         -6    2    1    2    0  501 -0.18392437642E+02 -0.40944948015E+02  0.21722927310E+03  0.28010703705E+03  0.17104567982E+03 0.  0.
        -24    2    5    5    0    0  0.18324349201E+02 -0.59651106493E+02  0.21614892662E+03  0.23861848502E+03  0.79526012313E+02 0.  0.
          5    1    3    3  502    0 -0.48767095919E+02 -0.11088670430E+02  0.10186866253E+03  0.11358037974E+03  0.47000000000E+01 0. -1.
        -13    1    4    4    0    0  0.67400008376E+02  0.11029656721E+02  0.78751449358E+02  0.10424109186E+03  0.00000000000E+00 0.  1.
         14    1    4    4    0    0 -0.24047481478E+00  0.41003961723E+02  0.95273723878E+01  0.42096953925E+02  0.00000000000E+00 0. -1.
         -5    1    5    5    0  501 -0.36716786843E+02  0.18706158479E+02  0.10803464759E+01  0.41488552031E+02  0.47000000000E+01 0.  1.
         13    1    6    6    0    0 -0.28511408791E+02 -0.42314064374E+02  0.11507247710E+03  0.12587714432E+03  0.00000000000E+00 0. -1.
        -14    1    6    6    0    0  0.46835757992E+02 -0.17337042119E+02  0.10107644952E+03  0.11274134070E+03  0.00000000000E+00 0.  1.
</event>
<event>
12    1  0.1348628E-002  0.1988003E+03  0.7818608E-02  0.1150755E+00
         -1   -1    0    0    0  501 -0.00000000000E+00  0.00000000000E+00  0.22317930535E+02  0.22317930535E+02  0.00000000000E+00 0.  1.
          1   -1    0    0  502    0  0.00000000000E+00 -0.00000000000E+00 -0.19084439339E+04  0.19084439339E+04  0.00000000000E+00 0. -1.
          6    2    1    2  502    0  0.83372439427E+02 -0.48680373788E+02 -0.12015607333E+04  0.12178688845E+04  0.17359631778E+03 0.  0.
         24    2    3    3    0    0  0.83349697156E+01 -0.40638164777E+02 -0.39510086736E+03  0.40787202996E+03  0.92379463471E+02 0.  0.
         -6    2    1    2    0  501 -0.83372439427E+02  0.48680373788E+02 -0.68456527008E+03  0.71289297997E+03  0.17397140407E+03 0.  0.
        -24    2    5    5    0    0 -0.43971428376E+02  0.18582256861E+02 -0.63893168248E+03  0.64534410409E+03  0.77178565863E+02 0.  0.
          5    1    3    3  502    0  0.75037469711E+02 -0.80422090112E+01 -0.80645986595E+03  0.80999685455E+03  0.47000000000E+01 0. -1.
        -11    1    4    4    0    0  0.34218828029E+02 -0.53615260989E+02 -0.18159439097E+03  0.19241114114E+03  0.00000000000E+00 0.  1.
         12    1    4    4    0    0 -0.25883858314E+02  0.12977096212E+02 -0.21350647639E+03  0.21546088881E+03  0.00000000000E+00 0. -1.
         -5    1    5    5    0  501 -0.39401011051E+02  0.30098116927E+02 -0.45633587608E+02  0.67548875878E+02  0.47000000000E+01 0.  1.
         11    1    6    6    0    0  0.55826214460E+01 -0.61102349462E+01 -0.39984490424E+03  0.39993055407E+03  0.00000000000E+00 0. -1.
        -12    1    6    6    0    0 -0.49554049822E+02  0.24692491808E+02 -0.23908677824E+03  0.24541355002E+03  0.00000000000E+00 0.  1.
</event>
<event>
12    1  0.1348628E-002  0.2275687E+03  0.7818608E-02  0.1128363E+00
         -2   -1    0    0    0  501 -0.00000000000E+00  0.00000000000E+00  0.42968512397E+02  0.42968512397E+02  0.00000000000E+00 0.  1.
          2   -1    0    0  502    0  0.00000000000E+00 -0.00000000000E+00 -0.12588116930E+04  0.12588116930E+04  0.00000000000E+00 0. -1.
          6    2    1    2  502    0 -0.14513392546E+03  0.34160563088E+02 -0.74121040517E+03  0.77524630617E+03  0.17141519803E+03 0.  0.
         24    2    3    3    0    0 -0.73126294296E+02 -0.39050447034E+02 -0.50137259604E+03  0.51430720287E+03  0.79151920543E+02 0.  0.
         -6    2    1    2    0  501  0.14513392546E+03 -0.34160563088E+02 -0.47463277542E+03  0.52653389921E+03  0.17242643395E+03 0.  0.
        -24    2    5    5    0    0  0.93008794729E+02 -0.38105912488E+02 -0.45077077929E+03  0.46887906512E+03  0.80935689173E+02 0.  0.
          5    1    3    3  502    0 -0.72007631159E+02  0.73211010122E+02 -0.23983780913E+03  0.26093910331E+03  0.47000000000E+01 0. -1.
        -11    1    4    4    0    0  0.64356935854E+01 -0.64351608841E+01 -0.46940366943E+01  0.10240284567E+02  0.00000000000E+00 0.  1.
         12    1    4    4    0    0 -0.79561987882E+02 -0.32615286150E+02 -0.49667855935E+03  0.50406691830E+03  0.00000000000E+00 0. -1.
         -5    1    5    5    0  501  0.52125130726E+02  0.39453494001E+01 -0.23861996137E+02  0.57654834097E+02  0.47000000000E+01 0.  1.
         13    1    6    6    0    0  0.31868521911E+01  0.94668287999E+01 -0.16971491206E+03  0.17000861228E+03  0.00000000000E+00 0. -1.
        -14    1    6    6    0    0  0.89821942538E+02 -0.47572741288E+02 -0.28105586723E+03  0.29887045284E+03  0.00000000000E+00 0.  1.
</event>
<event>
12    1  0.1348628E-002  0.1904060E+03  0.7818608E-02  0.1158096E+00
          2   -1    0    0  502    0  0.00000000000E+00  0.00000000000E+00  0.98266844486E+02  0.98266844486E+02  0.00000000000E+00 0.  1.
         -2   -1    0    0    0  501 -0.00000000000E+00 -0.00000000000E+00 -0.90468482789E+03  0.90468482789E+03  0.00000000000E+00 0. -1.
          6    2    1    2  502    0 -0.76687047651E+02 -0.21373996746E+02 -0.78727041762E+03  0.80947899901E+03  0.17065693180E+03 0.  0.
         24    2    3    3    0    0 -0.24093422935E+02  0.51929041402E+02 -0.38861792966E+03  0.40071828549E+03  0.79209410456E+02 0.  0.
         -6    2    1    2    0  501  0.76687047651E+02  0.21373996746E+02 -0.19147565787E+02  0.19347267336E+03  0.17529202791E+03 0.  0.
        -24    2    5    5    0    0  0.81665725685E+02  0.74995636492E+02 -0.13146872801E+02  0.13908365057E+03  0.82932414335E+02 0.  0.
          5    1    3    3  502    0 -0.52593624716E+02 -0.73303038148E+02 -0.39865248796E+03  0.40876071352E+03  0.47000000000E+01 0. -1.
        -11    1    4    4    0    0 -0.14480683660E+02 -0.68514696781E+01 -0.13641612938E+02  0.21041065552E+02  0.00000000000E+00 0.  1.
         12    1    4    4    0    0 -0.96127392750E+01  0.58780511080E+02 -0.37497631672E+03  0.37967721994E+03  0.00000000000E+00 0. -1.
         -5    1    5    5    0  501 -0.49786780335E+01 -0.53621639746E+02 -0.60006929855E+01  0.54389022792E+02  0.47000000000E+01 0.  1.
         11    1    6    6    0    0  0.20478771554E+02  0.57219919640E+02 -0.36881723589E+02  0.71089808150E+02  0.00000000000E+00 0. -1.
        -12    1    6    6    0    0  0.61186954131E+02  0.17775716852E+02  0.23734850787E+02  0.67993842422E+02  0.00000000000E+00 0.  1.
</event>
<event>
12    1  0.1348628E-002  0.1842222E+03  0.7818608E-02  0.1163778E+00
          1   -1    0    0  502    0  0.00000000000E+00  0.00000000000E+00  0.77992863141E+02  0.77992863141E+02  0.00000000000E+00 0. -1.
         -1   -1    0    0    0  501 -0.00000000000E+00 -0.00000000000E+00 -0.47671778096E+03  0.47671778096E+03  0.00000000000E+00 0.  1.
          6    2    1    2  502    0 -0.58602985678E+02 -0.24762042758E+02 -0.28163271195E+03  0.33673461674E+03  0.17327939571E+03 0.  0.
         24    2    3    3    0    0 -0.23102949659E+02 -0.81982098956E+02 -0.18321091469E+03  0.21738920391E+03  0.80231015702E+02 0.  0.
         -6    2    1    2    0  501  0.58602985678E+02  0.24762042758E+02 -0.11709220587E+03  0.21797602736E+03  0.17249781198E+03 0.  0.
        -24    2    5    5    0    0 -0.11775991034E+02  0.13089096054E+01 -0.11868909740E+03  0.14362624673E+03  0.80006310357E+02 0.  0.
          5    1    3    3  502    0 -0.35500036019E+02  0.57220056197E+02 -0.98421797262E+02  0.11934541284E+03  0.47000000000E+01 0. -1.
        -13    1    4    4    0    0 -0.22525791816E+02  0.46774938126E+01 -0.76701960505E+02  0.80077968197E+02  0.00000000000E+00 0.  1.
         14    1    4    4    0    0 -0.57715784331E+00 -0.86659592768E+02 -0.10650895419E+03  0.13731123571E+03  0.00000000000E+00 0. -1.
         -5    1    5    5    0  501  0.70378976712E+02  0.23453133153E+02  0.15968915380E+01  0.74349780634E+02  0.47000000000E+01 0.  1.
         13    1    6    6    0    0 -0.33995296526E+02 -0.22701758664E+01 -0.14489763162E+02  0.37024142405E+02  0.00000000000E+00 0. -1.
        -14    1    6    6    0    0  0.22219305492E+02  0.35790854718E+01 -0.10419933424E+03  0.10660210432E+03  0.00000000000E+00 0.  1.
</event>
<event>
12    1  0.1348628E-002  0.3414244E+03  0.7818608E-02  0.1066191E+00
          1   -1    0    0  502    0  0.00000000000E+00  0.00000000000E+00  0.17763438399E+03  0.17763438399E+03  0.00000000000E+00 0. -1.
         -1   -1    0    0    0  501 -0.00000000000E+00 -0.00000000000E+00 -0.71890390537E+03  0.71890390537E+03  0.00000000000E+00 0.  1.
          6    2    1    2  502    0  0.15640669466E+03 -0.24963875780E+03 -0.40337815393E+03  0.52882958164E+03  0.17367851859E+03 0.  0.
         24    2    3    3    0    0  0.17734548658E+03 -0.25351206103E+03 -0.36883408568E+03  0.48797841107E+03  0.79778193844E+02 0.  0.
         -6    2    1    2    0  501 -0.15640669466E+03  0.24963875780E+03 -0.13789136745E+03  0.36770870772E+03  0.17150248100E+03 0.  0.
        -24    2    5    5    0    0 -0.95499840840E+02  0.20746071479E+03 -0.40148052823E+02  0.24497127371E+03  0.78986650863E+02 0.  0.
          5    1    3    3  502    0 -0.20938791927E+02  0.38733032326E+01 -0.34544068252E+02  0.40851170567E+02  0.47000000000E+01 0. -1.
        -13    1    4    4    0    0  0.60235572409E+02 -0.71503928990E+02 -0.17033001372E+03  0.19430246941E+03  0.00000000000E+00 0.  1.
         14    1    4    4    0    0  0.11710991417E+03 -0.18200813204E+03 -0.19850407196E+03  0.29367594166E+03  0.00000000000E+00 0. -1.
         -5    1    5    5    0  501 -0.60906853815E+02  0.42178043004E+02 -0.97743314626E+02  0.12273743401E+03  0.47000000000E+01 0.  1.
         13    1    6    6    0    0 -0.79590930324E+02  0.18234832964E+03 -0.61637173662E+02  0.20829011184E+03  0.00000000000E+00 0. -1.
        -14    1    6    6    0    0 -0.15908910516E+02  0.25112385158E+02  0.21489120839E+02  0.36681161876E+02  0.00000000000E+00 0.  1.
</event>
<event>
12    1  0.1348628E-002  0.1883767E+03  0.7818608E-02  0.1159934E+00
          2   -1    0    0  502    0  0.00000000000E+00  0.00000000000E+00  0.13376733105E+04  0.13376733105E+04  0.00000000000E+00 0. -1.
         -2   -1    0    0    0  501 -0.00000000000E+00 -0.00000000000E+00 -0.28472609262E+02  0.28472609262E+02  0.00000000000E+00 0.  1.
          6    2    1    2  502    0 -0.23220829798E+02  0.69207610760E+02  0.83904839441E+03  0.86034907941E+03  0.17569698332E+03 0.  0.
         24    2    3    3    0    0 -0.83034520294E+02  0.39660010004E+02  0.58123815900E+03  0.59400541839E+03  0.80851664455E+02 0.  0.
         -6    2    1    2    0  501  0.23220829798E+02 -0.69207610760E+02  0.47015230682E+03  0.50579684034E+03  0.17163435488E+03 0.  0.
        -24    2    5    5    0    0  0.69890846369E+02 -0.80982878998E+02  0.30544745752E+03  0.33413867779E+03  0.83111669425E+02 0.  0.
          5    1    3    3  502    0  0.59813690496E+02  0.29547600756E+02  0.25781023541E+03  0.26634366102E+03  0.47000000000E+01 0. -1.
        -13    1    4    4    0    0 -0.41209766392E+02  0.13693204153E+02  0.86151020227E+02  0.96476665429E+02  0.00000000000E+00 0.  1.
         14    1    4    4    0    0 -0.41824753902E+02  0.25966805851E+02  0.49508713878E+03  0.49752875296E+03  0.00000000000E+00 0. -1.
         -5    1    5    5    0  501 -0.46670016571E+02  0.11775268238E+02  0.16470484929E+03  0.17165816255E+03  0.47000000000E+01 0.  1.
         11    1    6    6    0    0  0.50281292646E+02 -0.12566599536E+02  0.20220883135E+03  0.20874515394E+03  0.00000000000E+00 0. -1.
        -12    1    6    6    0    0  0.19609553723E+02 -0.68416279462E+02  0.10323862617E+03  0.12539352386E+03  0.00000000000E+00 0.  1.
</event>
<event>
12    1  0.1348628E-002  0.2051097E+03  0.7818608E-02  0.1145498E+00
         -1   -1    0    0    0  501 -0.00000000000E+00  0.00000000000E+00  0.19737136699E+02  0.19737136699E+02  0.00000000000E+00 0. -1.
          1   -1    0    0  502    0  0.00000000000E+00 -0.00000000000E+00 -0.35152031143E+04  0.35152031143E+04  0.00000000000E+00 0.  1.
          6    2    1    2  502    0 -0.19083689113E+02 -0.11054375308E+03 -0.28566235564E+04  0.28639774087E+04  0.17171006389E+03 0.  0.
         24    2    3    3    0    0 -0.30128448895E+02  0.71056243405E+01 -0.10818060615E+04  0.10852243081E+04  0.80307103338E+02 0.  0.
         -6    2    1    2    0  501  0.19083689113E+02  0.11054375308E+03 -0.63884242118E+03  0.67096284228E+03  0.17171892173E+03 0.  0.
        -24    2    5    5    0    0  0.51144699259E+02  0.54710224507E+02 -0.54804020945E+03  0.55955178834E+03  0.84505288185E+02 0.  0.
          5    1    3    3  502    0  0.11044759782E+02 -0.11764937742E+03 -0.17748174949E+04  0.17787531006E+04  0.47000000000E+01 0. -1.
        -11    1    4    4    0    0 -0.32339566847E+02 -0.32766613722E+02 -0.55380257652E+03  0.55571286859E+03  0.00000000000E+00 0.  1.
         12    1    4    4    0    0  0.22111179518E+01  0.39872238063E+02 -0.52800348495E+03  0.52951143947E+03  0.00000000000E+00 0. -1.
         -5    1    5    5    0  501 -0.32061010146E+02  0.55833528573E+02 -0.90802211732E+02  0.11141105394E+03  0.47000000000E+01 0.  1.
         13    1    6    6    0    0  0.35042274722E+02  0.75812544543E+02 -0.46274455786E+03  0.47022125511E+03  0.00000000000E+00 0. -1.
        -14    1    6    6    0    0  0.16102424537E+02 -0.21102320036E+02 -0.85295651585E+02  0.89330533225E+02  0.00000000000E+00 0.  1.
</event>
<event>
12    1  0.1348628E-002  0.1739268E+03  0.7818608E-02  0.1173814E+00
          2   -1    0    0  502    0  0.00000000000E+00  0.00000000000E+00  0.18129562706E+04  0.18129562706E+04  0.00000000000E+00 0.  1.
         -2   -1    0    0    0  501 -0.00000000000E+00 -0.00000000000E+00 -0.20331175479E+02  0.20331175479E+02  0.00000000000E+00 0. -1.
          6    2    1    2  502    0  0.29146762975E+01 -0.97490092372E+01  0.12889275546E+04  0.13007528493E+04  0.17470030117E+03 0.  0.
         24    2    3    3    0    0  0.47793060153E+02  0.17363981546E+02  0.11159721188E+04  0.11199633131E+04  0.79613869657E+02 0.  0.
         -6    2    1    2    0  501 -0.29146762975E+01  0.97490092372E+01  0.50369754050E+03  0.53253459684E+03  0.17256403450E+03 0.  0.
        -24    2    5    5    0    0 -0.72390290494E+01 -0.29627001808E+02  0.11695331059E+03  0.14373855823E+03  0.77798030085E+02 0.  0.
          5    1    3    3  502    0 -0.44878383856E+02 -0.27112990783E+02  0.17295543582E+03  0.18078953616E+03  0.47000000000E+01 0. -1.
        -11    1    4    4    0    0  0.15225572894E+02 -0.39848352949E+01  0.92130980570E+03  0.92144422244E+03  0.00000000000E+00 0.  1.
         12    1    4    4    0    0  0.32567487259E+02  0.21348816841E+02  0.19466231313E+03  0.19851909067E+03  0.00000000000E+00 0. -1.
         -5    1    5    5    0  501  0.43243527519E+01  0.39376011045E+02  0.38674422990E+03  0.38879603861E+03  0.47000000000E+01 0.  1.
         11    1    6    6    0    0  0.27177490239E+02 -0.28564288002E+02  0.28013976625E+02  0.48366490581E+02  0.00000000000E+00 0. -1.
        -12    1    6    6    0    0 -0.34416519288E+02 -0.10627138053E+01  0.88939333969E+02  0.95372067648E+02  0.00000000000E+00 0.  1.
</event>
<event>
12    1  0.1348628E-002  0.2365894E+03  0.7818608E-02  0.1122086E+00
          2   -1    0    0  502    0  0.00000000000E+00  0.00000000000E+00  0.15509970392E+04  0.15509970392E+04  0.00000000000E+00 0. -1.
         -2   -1    0    0    0  501 -0.00000000000E+00 -0.00000000000E+00 -0.42197367811E+02  0.42197367811E+02  0.00000000000E+00 0.  1.
          6    2    1    2  502    0  0.11675606054E+03  0.11062415605E+03  0.10555034862E+04  0.10815375592E+04  0.17252884081E+03 0.  0.
         24    2    3    3    0    0  0.69481393774E+02  0.11454712144E+03  0.97866750720E+03  0.99111554058E+03  0.81063049641E+02 0.  0.
         -6    2    1    2    0  501 -0.11675606054E+03 -0.11062415605E+03  0.45329618513E+03  0.51165684780E+03  0.17448672405E+03 0.  0.
        -24    2    5    5    0    0 -0.19449934554E+01 -0.89831093072E+02  0.24706027584E+03  0.27465627211E+03  0.79522824592E+02 0.  0.
          5    1    3    3  502    0  0.47274666770E+02 -0.39229653971E+01  0.76835979042E+02  0.90422018618E+02  0.47000000000E+01 0. -1.
        -11    1    4    4    0    0  0.31535553440E+02  0.15470028718E+02  0.98477730651E+02  0.10455465725E+03  0.00000000000E+00 0.  1.
         12    1    4    4    0    0  0.37945840334E+02  0.99077092724E+02  0.88018977655E+03  0.88656088333E+03  0.00000000000E+00 0. -1.
         -5    1    5    5    0  501 -0.11481106709E+03 -0.20793062973E+02  0.20623590929E+03  0.23700057569E+03  0.47000000000E+01 0.  1.
         11    1    6    6    0    0 -0.22739123541E+02 -0.47360529280E+01  0.10673732846E+03  0.10923532041E+03  0.00000000000E+00 0. -1.
        -12    1    6    6    0    0  0.20794130086E+02 -0.85095040144E+02  0.14032294737E+03  0.16542095170E+03  0.00000000000E+00 0.  1.
</event>
<event>
12    1  0.1348628E-002  0.1727770E+03  0.7818608E-02  0.1174982E+00
         -2   -1    0    0    0  501 -0.00000000000E+00  0.00000000000E+00  0.12361894556E+03  0.12361894556E+03  0.00000000000E+00 0. -1.
          2   -1    0    0  502    0  0.00000000000E+00 -0.00000000000E+00 -0.13689612861E+04  0.13689612861E+04  0.00000000000E+00 0.  1.
          6    2    1    2  502    0 -0.21491672690E+02 -0.23520761858E+02  0.55333839554E+02  0.18032563766E+03  0.16864276908E+03 0.  0.
         24    2    3    3    0    0  0.31375006793E+02  0.14118376858E+02 -0.10709072931E+02  0.87614544191E+02  0.79861783691E+02 0.  0.
         -6    2    1    2    0  501  0.21491672690E+02  0.23520761858E+02 -0.13006761801E+04  0.13122545940E+04  0.17099261905E+03 0.  0.
        -24    2    5    5    0    0  0.68625469655E+02 -0.84229906477E+01 -0.10393533630E+04  0.10447593550E+04  0.80537537038E+02 0.  0.
          5    1    3    3  502    0 -0.52866679484E+02 -0.37639138716E+02  0.66042912485E+02  0.92711093470E+02  0.47000000000E+01 0. -1.
        -13    1    4    4    0    0  0.63907337121E+01 -0.33005436666E+02 -0.44183613776E+01  0.33907554382E+02  0.00000000000E+00 0.  1.
         14    1    4    4    0    0  0.24984273081E+02  0.47123813524E+02 -0.62907115536E+01  0.53706989809E+02  0.00000000000E+00 0. -1.
         -5    1    5    5    0  501 -0.47133796965E+02  0.31943752506E+02 -0.26132281715E+03  0.26749523903E+03  0.47000000000E+01 0.  1.
         11    1    6    6    0    0  0.50039531877E+02  0.27464361985E+02 -0.39064740857E+03  0.39479569875E+03  0.00000000000E+00 0. -1.
        -12    1    6    6    0    0  0.18585937778E+02 -0.35887352633E+02 -0.64870595440E+03  0.64996365624E+03  0.00000000000E+00 0.  1.
</event>
<event>
12    1  0.1348628E-002  0.1913927E+03  0.7818608E-02  0.1157211E+00
         -2   -1    0    0    0  501 -0.00000000000E+00  0.00000000000E+00  0.13719636068E+02  0.13719636068E+02  0.00000000000E+00 0. -1.
          2   -1    0    0  502    0  0.00000000000E+00 -0.00000000000E+00 -0.27397236818E+04  0.27397236818E+04  0.00000000000E+00 0.  1.
          6    2    1    2  502    0  0.77486768626E+02 -0.31702161755E+02 -0.11450017567E+04  0.11609269120E+04  0.17237472475E+03 0.  0.
         24    2    3    3    0    0  0.78820585469E+02 -0.42912299875E+02 -0.46515128378E+03  0.48096647063E+03  0.83119666115E+02 0.  0.
         -6    2    1    2    0  501 -0.77486768626E+02  0.31702161755E+02 -0.15810022891E+04  0.15925164059E+04  0.17184597389E+03 0.  0.
        -24    2    5    5    0    0 -0.26269931596E+02  0.51248464704E+01 -0.36630642035E+03  0.37644171185E+03  0.82532390478E+02 0.  0.
          5    1    3    3  502    0 -0.13338168433E+01  0.11210138119E+02 -0.67985047290E+03  0.67996044133E+03  0.47000000000E+01 0. -1.
        -13    1    4    4    0    0  0.22704568689E+01 -0.39192535127E+02 -0.23846590430E+03  0.24167581033E+03  0.00000000000E+00 0.  1.
         14    1    4    4    0    0  0.76550128600E+02 -0.37197647478E+01 -0.22668537949E+03  0.23929066031E+03  0.00000000000E+00 0. -1.
         -5    1    5    5    0  501 -0.51216837030E+02  0.26577315285E+02 -0.12146958687E+04  0.12160746941E+04  0.47000000000E+01 0.  1.
         11    1    6    6    0    0 -0.55244876601E+02  0.10086261102E+02 -0.26864461220E+03  0.27445155623E+03  0.00000000000E+00 0. -1.
        -12    1    6    6    0    0  0.28974945005E+02 -0.49614146320E+01 -0.97661808142E+02  0.10199015562E+03  0.00000000000E+00 0.  1.
</event>
<event>
12    1  0.1348628E-002  0.1867267E+03  0.7818608E-02  0.1161447E+00
          1   -1    0    0  502    0  0.00000000000E+00  0.00000000000E+00  0.14220614748E+04  0.14220614748E+04  0.00000000000E+00 0. -1.
         -1   -1    0    0    0  501 -0.00000000000E+00 -0.00000000000E+00 -0.44503084849E+02  0.44503084849E+02  0.00000000000E+00 0.  1.
          6    2    1    2  502    0 -0.72793591329E+02  0.68693176397E+01  0.11810306416E+04  0.11957675284E+04  0.17228032696E+03 0.  0.
         24    2    3    3    0    0 -0.39564886726E+01  0.22356697327E+02  0.28213676926E+03  0.29409647452E+03  0.79850510570E+02 0.  0.
         -6    2    1    2    0  501  0.72793591329E+02 -0.68693176397E+01  0.19652774841E+03  0.27079703133E+03  0.17135279927E+03 0.  0.
        -24    2    5    5    0    0  0.76693619060E+02  0.55658314811E+02  0.10421377031E+03  0.15913291180E+03  0.74047380007E+02 0.  0.
          5    1    3    3  502    0 -0.68837102656E+02 -0.15487379687E+02  0.89889387233E+03  0.90167105385E+03  0.47000000000E+01 0. -1.
        -11    1    4    4    0    0  0.57573925184E+01 -0.29067762883E+02  0.80562693556E+02  0.85839559649E+02  0.00000000000E+00 0.  1.
         12    1    4    4    0    0 -0.97138811910E+01  0.51424460210E+02  0.20157407570E+03  0.20825691487E+03  0.00000000000E+00 0. -1.
         -5    1    5    5    0  501 -0.39000277311E+01 -0.62527632451E+02  0.92313978100E+02  0.11166411952E+03  0.47000000000E+01 0.  1.
         11    1    6    6    0    0  0.15082043842E+02  0.78848801855E+01  0.73323932028E+02  0.75273092072E+02  0.00000000000E+00 0. -1.
        -12    1    6    6    0    0  0.61611575218E+02  0.47773434625E+02  0.30889838278E+02  0.83859819732E+02  0.00000000000E+00 0.  1.
</event>
<event>
12    1  0.1348628E-002  0.1743257E+03  0.7818608E-02  0.1173410E+00
          1   -1    0    0  502    0  0.00000000000E+00  0.00000000000E+00  0.15007463447E+04  0.15007463447E+04  0.00000000000E+00 0.  1.
         -1   -1    0    0    0  501 -0.00000000000E+00 -0.00000000000E+00 -0.29691771715E+02  0.29691771715E+02  0.00000000000E+00 0. -1.
          6    2    1    2  502    0  0.28156061091E+02 -0.20370364160E+02  0.30535080641E+03  0.35184044069E+03  0.17130343026E+03 0.  0.
         24    2    3    3    0    0  0.50883607103E+02 -0.46389406812E+02  0.29812285039E+03  0.31623334482E+03  0.79907295747E+02 0.  0.
         -6    2    1    2    0  501 -0.28156061091E+02  0.20370364160E+02  0.11657037666E+04  0.11785976757E+04  0.17035109128E+03 0.  0.
        -24    2    5    5    0    0 -0.44614900061E+02  0.13897833189E+02  0.29620578254E+03  0.30890714382E+03  0.74176268570E+02 0.  0.
          5    1    3    3  502    0 -0.22727546011E+02  0.26019042653E+02  0.72279560162E+01  0.35607095872E+02  0.47000000000E+01 0. -1.
        -13    1    4    4    0    0  0.18297857689E+02 -0.55245649989E+02  0.10382681295E+03  0.11902478954E+03  0.00000000000E+00 0.  1.
         14    1    4    4    0    0  0.32585749414E+02  0.88562431765E+01  0.19429603744E+03  0.19720855527E+03  0.00000000000E+00 0. -1.
         -5    1    5    5    0  501  0.16458838970E+02  0.64725309710E+01  0.86949798402E+03  0.86969053189E+03  0.47000000000E+01 0.  1.
         13    1    6    6    0    0 -0.19148675407E+02 -0.16632788167E+02  0.28037286527E+02  0.37807550144E+02  0.00000000000E+00 0. -1.
        -14    1    6    6    0    0 -0.25466224654E+02  0.30530621355E+02  0.26816849601E+03  0.27109959367E+03  0.00000000000E+00 0.  1.
</event>
<event>
12    1  0.1348628E-002  0.1857955E+03  0.7818608E-02  0.1162309E+00
         -1   -1    0    0    0  501 -0.00000000000E+00  0.00000000000E+00  0.16280188825E+04  0.16280188825E+04  0.00000000000E+00 0. -1.
          1   -1    0    0  502    0  0.00000000000E+00 -0.00000000000E+00 -0.22847956023E+02  0.22847956023E+02  0.00000000000E+00 0.  1.
          6    2    1    2  502    0 -0.70933741859E+02 -0.87215958464E+01  0.58153181537E+03  0.61051997532E+03  0.17160339741E+03 0.  0.
         24    2    3    3    0    0 -0.43283729967E+02  0.54974727381E+02  0.25012470600E+03  0.27188372963E+03  0.80390869853E+02 0.  0.
         -6    2    1    2    0  501  0.70933741859E+02  0.87215958464E+01  0.10236391111E+04  0.10403468632E+04  0.17139691955E+03 0.  0.
        -24    2    5    5    0    0  0.10890174069E+02  0.36103053754E+02  0.27601427021E+03  0.28980041761E+03  0.79864750091E+02 0.  0.
          5    1    3    3  502    0 -0.27650011892E+02 -0.63696323228E+02  0.33140710937E+03  0.33863624569E+03  0.47000000000E+01 0. -1.
        -11    1    4    4    0    0  0.11128123939E+02  0.39739935423E+02  0.16220387815E+03  0.16737143035E+03  0.00000000000E+00 0.  1.
         12    1    4    4    0    0 -0.54411853907E+02  0.15234791958E+02  0.87920827851E+02  0.10451229928E+03  0.00000000000E+00 0. -1.
         -5    1    5    5    0  501  0.60043567790E+02 -0.27381457908E+02  0.74762484090E+03  0.75054644560E+03  0.47000000000E+01 0.  1.
         11    1    6    6    0    0 -0.79248738174E+01  0.21983491265E+02  0.26066826225E+03  0.26171362299E+03  0.00000000000E+00 0. -1.
        -12    1    6    6    0    0  0.18815047886E+02  0.14119562489E+02  0.15346007956E+02  0.28086794620E+02  0.00000000000E+00 0.  1.
</event>
<event>
12    1  0.1348628E-002  0.3224420E+03  0.7818608E-02  0.1074531E+00
          2   -1    0    0  502    0  0.00000000000E+00  0.00000000000E+00  0.53368348780E+03  0.53368348780E+03  0.00000000000E+00 0. -1.
         -2   -1    0    0    0  501 -0.00000000000E+00 -0.00000000000E+00 -0.31924154086E+03  0.31924154086E+03  0.00000000000E+00 0.  1.
          6    2    1    2  502    0  0.17912799819E+03 -0.20672549312E+03  0.37339117883E+03  0.49310883018E+03  0.17003845662E+03 0.  0.
         24    2    3    3    0    0  0.16976449121E+03 -0.13619054249E+03  0.20116321584E+03  0.30670224296E+03  0.78941624564E+02 0.  0.
         -6    2    1    2    0  501 -0.17912799819E+03  0.20672549312E+03 -0.15894923189E+03  0.35981619848E+03  0.17140761106E+03 0.  0.
        -24    2    5    5    0    0 -0.13695587998E+03  0.59354920103E+02 -0.73096983765E+02  0.18406275796E+03  0.79094944413E+02 0.  0.
          5    1    3    3  502    0  0.93635069746E+01 -0.70534950634E+02  0.17222796298E+03  0.18640658722E+03  0.47000000000E+01 0. -1.
        -13    1    4    4    0    0 -0.39319746886E+01 -0.13996745466E+02  0.32152359967E+02  0.35286591788E+02  0.00000000000E+00 0.  1.
         14    1    4    4    0    0  0.17369646590E+03 -0.12219379702E+03  0.16901085588E+03  0.27141565117E+03  0.00000000000E+00 0. -1.
         -5    1    5    5    0  501 -0.42172118205E+02  0.14737057302E+03 -0.85852248126E+02  0.17575344052E+03  0.47000000000E+01 0.  1.
         13    1    6    6    0    0 -0.11456427611E+03  0.46029002140E+02 -0.90191276846E+02  0.15289901510E+03  0.00000000000E+00 0. -1.
        -14    1    6    6    0    0 -0.22391603870E+02  0.13325917963E+02  0.17094293081E+02  0.31163742865E+02  0.00000000000E+00 0.  1.
</event>
<event>
12    1  0.1348628E-002  0.1760236E+03  0.7818608E-02  0.1171708E+00
         -2   -1    0    0    0  501 -0.00000000000E+00  0.00000000000E+00  0.10592498201E+02  0.10592498201E+02  0.00000000000E+00 0. -1.
          2   -1    0    0  502    0  0.00000000000E+00 -0.00000000000E+00 -0.29885857084E+04  0.29885857084E+04  0.00000000000E+00 0.  1.
          6    2    1    2  502    0 -0.24171714130E+02  0.29813581755E+02 -0.17047048694E+04  0.17137339375E+04  0.17144152178E+03 0.  0.
         24    2    3    3    0    0  0.79283958793E+01 -0.39929093851E+02 -0.66001538018E+03  0.66621655018E+03  0.81037014172E+02 0.  0.
         -6    2    1    2    0  501  0.24171714130E+02 -0.29813581755E+02 -0.12732883408E+04  0.12854442691E+04  0.17213555329E+03 0.  0.
        -24    2    5    5    0    0 -0.38758326742E+02  0.22139045922E+02 -0.76137441949E+03  0.76704556308E+03  0.81704001973E+02 0.  0.
          5    1    3    3  502    0 -0.32100110010E+02  0.69742675606E+02 -0.10446894892E+04  0.10475173873E+04  0.47000000000E+01 0. -1.
        -11    1    4    4    0    0  0.42298232369E+02 -0.94083370789E+01 -0.37864906576E+03  0.38112041702E+03  0.00000000000E+00 0.  1.
         12    1    4    4    0    0 -0.34369836489E+02 -0.30520756772E+02 -0.28136631442E+03  0.28509613316E+03  0.00000000000E+00 0. -1.
         -5    1    5    5    0  501  0.62930040872E+02 -0.51952627677E+02 -0.51191392133E+03  0.51839870604E+03  0.47000000000E+01 0.  1.
         13    1    6    6    0    0  0.20115934351E+02 -0.20962494137E+01 -0.73526598291E+02  0.76257496239E+02  0.00000000000E+00 0. -1.
        -14    1    6    6    0    0 -0.58874261093E+02  0.24235295336E+02 -0.68784782120E+03  0.69078806684E+03  0.00000000000E+00 0.  1.
</event>
<event>
12    1  0.1348628E-002  0.1738417E+03  0.7818608E-02  0.1173900E+00
          2   -1    0    0  502    0  0.00000000000E+00  0.00000000000E+00  0.14541986072E+04  0.14541986072E+04  0.00000000000E+00 0.  1.
         -2   -1    0    0    0  501 -0.00000000000E+00 -0.00000000000E+00 -0.24422675390E+02  0.24422675390E+02  0.00000000000E+00 0. -1.
          6    2    1    2  502    0  0.13309684236E+02 -0.28772324397E+02  0.99655949475E+03  0.10114257777E+04  0.16984193496E+03 0.  0.
         24    2    3    3    0    0 -0.16602945629E+02 -0.64097189585E+02  0.32566495808E+03  0.33891988118E+03  0.66520022687E+02 0.  0.
         -6    2    1    2    0  501 -0.13309684236E+02  0.28772324397E+02  0.43321643703E+03  0.46719550486E+03  0.17201791797E+03 0.  0.
        -24    2    5    5    0    0 -0.60557214098E+01 -0.33905879191E+02  0.11658654089E+03  0.14430580495E+03  0.77752578214E+02 0.  0.
          5    1    3    3  502    0  0.29912629865E+02  0.35324865188E+02  0.67089453666E+03  0.67250589652E+03  0.47000000000E+01 0. -1.
        -11    1    4    4    0    0 -0.30503005121E+02 -0.32898533351E+02  0.26932015646E+03  0.27303130497E+03  0.00000000000E+00 0.  1.
         12    1    4    4    0    0  0.13900059493E+02 -0.31198656235E+02  0.56344801622E+02  0.65888576207E+02  0.00000000000E+00 0. -1.
         -5    1    5    5    0  501 -0.72539628264E+01  0.62678203588E+02  0.31662989614E+03  0.32288969991E+03  0.47000000000E+01 0.  1.
         11    1    6    6    0    0  0.30441944268E+02 -0.19073597011E+02  0.22716065284E+02  0.42503337466E+02  0.00000000000E+00 0. -1.
        -12    1    6    6    0    0 -0.36497665678E+02 -0.14832282180E+02  0.93870475606E+02  0.10180246748E+03  0.00000000000E+00 0.  1.
</event>
<event>
12    1  0.1348628E-002  0.1914074E+03  0.7818608E-02  0.1157198E+00
         -2   -1    0    0    0  501 -0.00000000000E+00  0.00000000000E+00  0.25303805565E+02  0.25303805565E+02  0.00000000000E+00 0.  1.
          2   -1    0    0  502    0  0.00000000000E+00 -0.00000000000E+00 -0.17254407321E+04  0.17254407321E+04  0.00000000000E+00 0. -1.
          6    2    1    2  502    0 -0.78230964462E+02  0.30130003777E+02 -0.49976787333E+03  0.53524412412E+03  0.17230915319E+03 0.  0.
         24    2    3    3    0    0  0.12745647623E+00 -0.28831280535E+02 -0.14387898731E+03  0.16606196804E+03  0.77744165429E+02 0.  0.
         -6    2    1    2    0  501  0.78230964462E+02 -0.30130003777E+02 -0.12003690532E+04  0.12155004135E+04  0.17183564963E+03 0.  0.
        -24    2    5    5    0    0 -0.35869198065E+01 -0.57451889731E+02 -0.77794231846E+03  0.78433097136E+03  0.81653145424E+02 0.  0.
          5    1    3    3  502    0 -0.78358420938E+02  0.58961284312E+02 -0.35588888602E+03  0.36918215608E+03  0.47000000000E+01 0. -1.
        -11    1    4    4    0    0 -0.34429443994E+02 -0.32034228477E+02 -0.96313366537E+02  0.10718135557E+03  0.00000000000E+00 0.  1.
         12    1    4    4    0    0  0.34556900471E+02  0.32029479423E+01 -0.47565620769E+02  0.58880612470E+02  0.00000000000E+00 0. -1.
         -5    1    5    5    0  501  0.81817884269E+02  0.27321885954E+02 -0.42242673476E+03  0.43116944219E+03  0.47000000000E+01 0.  1.
         11    1    6    6    0    0  0.38555108524E+02 -0.33980319552E+02 -0.37219513411E+03  0.37572646482E+03  0.00000000000E+00 0. -1.
        -12    1    6    6    0    0 -0.42142028331E+02 -0.23471570179E+02 -0.40574718435E+03  0.40860450654E+03  0.00000000000E+00 0.  1.
</event>
<event>
12    1  0.1348628E-002  0.2765056E+03  0.7818608E-02  0.1097613E+00
          1   -1    0    0  502    0  0.00000000000E+00  0.00000000000E+00  0.16815824289E+04  0.16815824289E+04  0.00000000000E+00 0. -1.
         -1   -1    0    0    0  501 -0.00000000000E+00 -0.00000000000E+00 -0.52935452086E+02  0.52935452086E+02  0.00000000000E+00 0.  1.
          6    2    1    2  502    0  0.17699861086E+03 -0.12561391550E+03  0.11401954862E+04  0.11732533811E+04  0.17137790251E+03 0.  0.
         24    2    3    3    0    0  0.12028032390E+03 -0.15518203095E+03  0.87412431819E+03  0.89956159464E+03  0.81048873147E+02 0.  0.
         -6    2    1    2    0  501 -0.17699861086E+03  0.12561391550E+03  0.48845149063E+03  0.56126449991E+03  0.17124723693E+03 0.  0.
        -24    2    5    5    0    0 -0.23467219811E+02  0.19096293558E+02  0.91509407785E+02  0.12251286294E+03  0.75631019022E+02 0.  0.
          5    1    3    3  502    0  0.56718286951E+02  0.29568115455E+02  0.26607116803E+03  0.27369178647E+03  0.47000000000E+01 0. -1.
        -13    1    4    4    0    0  0.12711204028E+03 -0.11752762349E+03  0.67916609007E+03  0.70088286537E+03  0.00000000000E+00 0.  1.
         14    1    4    4    0    0 -0.68317163766E+01 -0.37654407465E+02  0.19495822813E+03  0.19867872927E+03  0.00000000000E+00 0. -1.
         -5    1    5    5    0  501 -0.15353139104E+03  0.10651762194E+03  0.39694208284E+03  0.43875163698E+03  0.47000000000E+01 0.  1.
         11    1    6    6    0    0 -0.10682434707E+02  0.27073609650E+02  0.10072716273E+03  0.10484777566E+03  0.00000000000E+00 0. -1.
        -12    1    6    6    0    0 -0.12784785105E+02 -0.79773160925E+01 -0.92177549408E+01  0.17665087273E+02  0.00000000000E+00 0.  1.
</event>
<event>
12    1  0.1348628E-002  0.1856233E+03  0.7818608E-02  0.1162469E+00
         -1   -1    0    0    0  501 -0.00000000000E+00  0.00000000000E+00  0.32897699062E+02  0.32897699062E+02  0.00000000000E+00 0.  1.
          1   -1    0    0  502    0  0.00000000000E+00 -0.00000000000E+00 -0.12100664205E+04  0.12100664205E+04  0.00000000000E+00 0. -1.
          6    2    1    2  502    0 -0.33277103094E+02 -0.56550914455E+02 -0.81982874185E+03  0.84085535409E+03  0.17496625111E+03 0.  0.
         24    2    3    3    0    0 -0.72533725320E+02  0.56311465968E+01 -0.56944661752E+03  0.57985537461E+03  0.81669787190E+02 0.  0.
         -6    2    1    2    0  501  0.33277103094E+02  0.56550914455E+02 -0.35733997964E+03  0.40210876552E+03  0.17232012867E+03 0.  0.
        -24    2    5    5    0    0  0.65476958923E+02  0.82792555010E+02 -0.32052394418E+03  0.34640450283E+03  0.78221745547E+02 0.  0.
          5    1    3    3  502    0  0.39256622226E+02 -0.62182061051E+02 -0.25038212433E+03  0.26099997948E+03  0.47000000000E+01 0. -1.
        -13    1    4    4    0    0 -0.28031431077E+02  0.39668995914E+02 -0.18164220477E+03  0.18802468167E+03  0.00000000000E+00 0.  1.
         14    1    4    4    0    0 -0.44502294243E+02 -0.34037849317E+02 -0.38780441275E+03  0.39183069294E+03  0.00000000000E+00 0. -1.
         -5    1    5    5    0  501 -0.32199855829E+02 -0.26241640555E+02 -0.36816035458E+02  0.55704262685E+02  0.47000000000E+01 0.  1.
         13    1    6    6    0    0  0.33635488159E+02  0.71423654587E+02 -0.12403900705E+03  0.14703183250E+03  0.00000000000E+00 0. -1.
        -14    1    6    6    0    0  0.31841470764E+02  0.11368900423E+02 -0.19648493713E+03  0.19937267034E+03  0.00000000000E+00 0.  1.
</event>
<event>
12    1  0.1348628E-002  0.1800106E+03  0.7818608E-02  0.1167793E+00
         -1   -1    0    0    0  501 -0.00000000000E+00  0.00000000000E+00  0.92143625665E+02  0.92143625665E+02  0.00000000000E+00 0. -1.
          1   -1    0    0  502    0  0.00000000000E+00 -0.00000000000E+00 -0.11445737383E+04  0.11445737383E+04  0.00000000000E+00 0.  1.
          6    2    1    2  502    0 -0.34907968686E+02  0.46383544674E+02 -0.89674966577E+01  0.17733623061E+03  0.16732520192E+03 0.  0.
         24    2    3    3    0    0 -0.58978513208E+02  0.35783803558E+02  0.48424814945E+02  0.11402972971E+03  0.76804107558E+02 0.  0.
         -6    2    1    2    0  501  0.34907968686E+02 -0.46383544674E+02 -0.10434626160E+04  0.10593811333E+04  0.17350549061E+03 0.  0.
        -24    2    5    5    0    0 -0.48839185680E+01  0.60600016713E+01 -0.86946954753E+03  0.87329137622E+03  0.81240121909E+02 0.  0.
          5    1    3    3  502    0  0.24070544522E+02  0.10599741116E+02 -0.57392311602E+02  0.63306500901E+02  0.47000000000E+01 0. -1.
        -13    1    4    4    0    0  0.85251376259E+01 -0.15237803369E+02  0.15111561560E+02  0.23091728299E+02  0.00000000000E+00 0.  1.
         14    1    4    4    0    0 -0.67503650833E+02  0.51021606927E+02  0.33313253385E+02  0.90938001410E+02  0.00000000000E+00 0. -1.
         -5    1    5    5    0  501  0.39791887254E+02 -0.52443546345E+02 -0.17399306843E+03  0.18608975712E+03  0.47000000000E+01 0.  1.
         11    1    6    6    0    0  0.19325421086E+02  0.37190567680E+02 -0.48296252114E+03  0.48477768828E+03  0.00000000000E+00 0. -1.
        -12    1    6    6    0    0 -0.24209339654E+02 -0.31130566009E+02 -0.38650702639E+03  0.38851368794E+03  0.00000000000E+00 0.  1.
</event>
<event>
12    1  0.1348628E-002  0.2465915E+03  0.7818608E-02  0.1115478E+00
         -1   -1    0    0    0  501 -0.00000000000E+00  0.00000000000E+00  0.33211379563E+02  0.33211379563E+02  0.00000000000E+00 0. -1.
          1   -1    0    0  502    0  0.00000000000E+00 -0.00000000000E+00 -0.24906135453E+04  0.24906135453E+04  0.00000000000E+00 0.  1.
          6    2    1    2  502    0  0.13053244347E+03 -0.12165800826E+03 -0.58037077421E+03  0.63070487117E+03  0.17064292889E+03 0.  0.
         24    2    3    3    0    0  0.50221122764E+02 -0.13098799600E+03 -0.32376565909E+03  0.36162266809E+03  0.79162717260E+02 0.  0.
         -6    2    1    2    0  501 -0.13053244347E+03  0.12165800826E+03 -0.18770313916E+04  0.18931200537E+04  0.16975659979E+03 0.  0.
        -24    2    5    5    0    0 -0.14546363747E+02  0.63364135732E+01 -0.58147627593E+03  0.58727282357E+03  0.80764862398E+02 0.  0.
          5    1    3    3  502    0  0.80311320704E+02  0.93299877375E+01 -0.25660511513E+03  0.26908220308E+03  0.47000000000E+01 0. -1.
        -11    1    4    4    0    0  0.12503534667E+02 -0.19709798805E+02 -0.79495119074E+01  0.24657844343E+02  0.00000000000E+00 0.  1.
         12    1    4    4    0    0  0.37717588098E+02 -0.11127819720E+03 -0.31581614718E+03  0.33696482375E+03  0.00000000000E+00 0. -1.
         -5    1    5    5    0  501 -0.11598607972E+03  0.11532159469E+03 -0.12955551156E+04  0.13058472302E+04  0.47000000000E+01 0.  1.
         11    1    6    6    0    0 -0.19586577573E+02  0.34903587884E+02 -0.16489620456E+03  0.16968397905E+03  0.00000000000E+00 0. -1.
        -12    1    6    6    0    0  0.50402138268E+01 -0.28567174310E+02 -0.41658007138E+03  0.41758884452E+03  0.00000000000E+00 0.  1.
</event>
<event>
12    1  0.1348628E-002  0.2362776E+03  0.7818608E-02  0.1122298E+00
         -2   -1    0    0    0  501 -0.00000000000E+00  0.00000000000E+00  0.32998694616E+02  0.32998694616E+02  0.00000000000E+00 0.  1.
          2   -1    0    0  502    0  0.00000000000E+00 -0.00000000000E+00 -0.17905279613E+04  0.17905279613E+04  0.00000000000E+00 0. -1.
          6    2    1    2  502    0 -0.13318059960E+03 -0.90197739892E+02 -0.66549013095E+03  0.70626850279E+03  0.17339371166E+03 0.  0.
         24    2    3    3    0    0 -0.73160287135E+02  0.41140324532E+01 -0.45820414886E+03  0.47071231696E+03  0.79054983551E+02 0.  0.
         -6    2    1    2    0  501  0.13318059960E+03  0.90197739892E+02 -0.10920391357E+04  0.11172581531E+04  0.17275300975E+03 0.  0.
        -24    2    5    5    0    0  0.51454192575E+02  0.80658115438E+02 -0.89337207924E+03  0.90217468241E+03  0.81561143368E+02 0.  0.
          5    1    3    3  502    0 -0.60020312460E+02 -0.94311772346E+02 -0.20728598209E+03  0.23555618583E+03  0.47000000000E+01 0. -1.
        -11    1    4    4    0    0 -0.41793240802E+02 -0.11834778704E+01 -0.41478499120E+03  0.41688687257E+03  0.00000000000E+00 0.  1.
         12    1    4    4    0    0 -0.31367046333E+02  0.52975103236E+01 -0.43419157657E+02  0.53825444383E+02  0.00000000000E+00 0. -1.
         -5    1    5    5    0  501  0.81726407020E+02  0.95396244541E+01 -0.19866705648E+03  0.21508347070E+03  0.47000000000E+01 0.  1.
         13    1    6    6    0    0 -0.11002889569E+02 -0.50634181976E+01 -0.30631896362E+02  0.32939563711E+02  0.00000000000E+00 0. -1.
        -14    1    6    6    0    0  0.62457082144E+02  0.85721533636E+02 -0.86274018288E+03  0.86923511870E+03  0.00000000000E+00 0.  1.
</event>
<event>
12    1  0.1348628E-002  0.3464940E+03  0.7818608E-02  0.1064063E+00
          1   -1    0    0  502    0  0.00000000000E+00  0.00000000000E+00  0.12311346414E+03  0.12311346414E+03  0.00000000000E+00 0. -1.
         -1   -1    0    0    0  501 -0.00000000000E+00 -0.00000000000E+00 -0.12811530359E+04  0.12811530359E+04  0.00000000000E+00 0.  1.
          6    2    1    2  502    0 -0.82840303530E+02 -0.28876739376E+03 -0.23565690650E+03  0.41888598342E+03  0.17228512976E+03 0.  0.
         24    2    3    3    0    0 -0.94740270833E+02 -0.28597179232E+03 -0.25136128121E+03  0.39843746283E+03  0.69385395975E+02 0.  0.
         -6    2    1    2    0  501  0.82840303530E+02  0.28876739376E+03 -0.92238266529E+03  0.98538051665E+03  0.17301981902E+03 0.  0.
        -24    2    5    5    0    0  0.34805021152E+02  0.28095091083E+03 -0.83704117510E+03  0.88702531492E+03  0.77660650985E+02 0.  0.
          5    1    3    3  502    0  0.11899967303E+02 -0.27956014442E+01  0.15704374713E+02  0.20448520591E+02  0.47000000000E+01 0. -1.
        -11    1    4    4    0    0 -0.69363265019E+02 -0.11125819348E+03 -0.12660516833E+03  0.18225947657E+03  0.00000000000E+00 0.  1.
         12    1    4    4    0    0 -0.25377005814E+02 -0.17471359884E+03 -0.12475611288E+03  0.21617798626E+03  0.00000000000E+00 0. -1.
         -5    1    5    5    0  501  0.48035282377E+02  0.78164829332E+01 -0.85341490195E+02  0.98355201730E+02  0.47000000000E+01 0.  1.
         13    1    6    6    0    0  0.43785866438E+02  0.26153512999E+03 -0.70420388432E+03  0.75247653586E+03  0.00000000000E+00 0. -1.
        -14    1    6    6    0    0 -0.89808452858E+01  0.19415780835E+02 -0.13283729078E+03  0.13454877907E+03  0.00000000000E+00 0.  1.
</event>
<event>
12    1  0.1348628E-002  0.1745132E+03  0.7818608E-02  0.1173221E+00
          2   -1    0    0  502    0  0.00000000000E+00  0.00000000000E+00  0.12730643528E+03  0.12730643528E+03  0.00000000000E+00 0. -1.
         -2   -1    0    0    0  501 -0.00000000000E+00 -0.00000000000E+00 -0.23924512716E+03  0.23924512716E+03  0.00000000000E+00 0.  1.
          6    2    1    2  502    0 -0.26522467592E+02 -0.23634660246E+02 -0.54491299766E+02  0.18324325297E+03  0.17130893017E+03 0.  0.
         24    2    3    3    0    0 -0.68917942674E+02  0.24294778790E+02 -0.62893524463E+02  0.11853394287E+03  0.68954920743E+02 0.  0.
         -6    2    1    2    0  501  0.26522467592E+02  0.23634660246E+02 -0.57447392105E+02  0.18330830947E+03  0.17041037236E+03 0.  0.
        -24    2    5    5    0    0 -0.14510837062E+02  0.61913933239E+02 -0.50969642604E+00  0.10322693822E+03  0.81312000728E+02 0.  0.
          5    1    3    3  502    0  0.42395475082E+02 -0.47929439036E+02  0.84022246966E+01  0.64709310100E+02  0.47000000000E+01 0. -1.
        -11    1    4    4    0    0 -0.11039999228E+02 -0.14308086873E+02  0.74965082087E+01  0.19565289883E+02  0.00000000000E+00 0.  1.
         12    1    4    4    0    0 -0.57877943446E+02  0.38602865663E+02 -0.70390032672E+02  0.98968652989E+02  0.00000000000E+00 0. -1.
         -5    1    5    5    0  501  0.41033304655E+02 -0.38279272993E+02 -0.56937695679E+02  0.80081371248E+02  0.47000000000E+01 0.  1.
         11    1    6    6    0    0  0.33565393380E+02  0.20453472028E+02  0.44054977134E+01  0.39552352153E+02  0.00000000000E+00 0. -1.
        -12    1    6    6    0    0 -0.48076230442E+02  0.41460461211E+02 -0.49151941394E+01  0.63674586067E+02  0.00000000000E+00 0.  1.
</event>
<event>
12    1  0.1348628E-002  0.1924837E+03  0.7818608E-02  0.1156240E+00
          2   -1    0    0  502    0  0.00000000000E+00  0.00000000000E+00  0.23141315937E+03  0.23141315937E+03  0.00000000000E+00 0. -1.
         -2   -1    0    0    0  501 -0.00000000000E+00 -0.00000000000E+00 -0.18316042477E+03  0.18316042477E+03  0.00000000000E+00 0.  1.
          6    2    1    2  502    0  0.77336381453E+02 -0.39451767132E+02 -0.49446966574E+02  0.19848832868E+03  0.17150876448E+03 0.  0.
         24    2    3    3    0    0  0.72129553877E+02 -0.25404472457E+01  0.26797021541E+02  0.11348955038E+03  0.83382679659E+02 0.  0.
         -6    2    1    2    0  501 -0.77336381453E+02  0.39451767132E+02  0.97699701174E+02  0.21608525545E+03  0.17207628595E+03 0.  0.
        -24    2    5    5    0    0 -0.28472491802E+02  0.79697019282E+02  0.10096938680E+03  0.15252315293E+03  0.76851788773E+02 0.  0.
          5    1    3    3  502    0  0.52068275762E+01 -0.36911319887E+02 -0.76243988115E+02  0.84998778302E+02  0.47000000000E+01 0. -1.
        -11    1    4    4    0    0  0.25760572566E+01  0.14561800065E+02 -0.22224703634E+02  0.26694934796E+02  0.00000000000E+00 0.  1.
         12    1    4    4    0    0  0.69553496620E+02 -0.17102247311E+02  0.49021725175E+02  0.86794615584E+02  0.00000000000E+00 0. -1.
         -5    1    5    5    0  501 -0.48863889651E+02 -0.40245252150E+02 -0.32696856281E+01  0.63562102518E+02  0.47000000000E+01 0.  1.
         11    1    6    6    0    0  0.10078128829E+02  0.16447702733E+01  0.51279812934E+02  0.52286644227E+02  0.00000000000E+00 0. -1.
        -12    1    6    6    0    0 -0.38550620632E+02  0.78052249009E+02  0.49689573868E+02  0.10023650871E+03  0.00000000000E+00 0.  1.
</event>
<event>
12    1  0.1348628E-002  0.2188085E+03  0.7818608E-02  0.1134775E+00
          2   -1    0    0  502    0  0.00000000000E+00  0.00000000000E+00  0.85396351808E+03  0.85396351808E+03  0.00000000000E+00 0.  1.
         -2   -1    0    0    0  501 -0.00000000000E+00 -0.00000000000E+00 -0.82099922828E+02  0.82099922828E+02  0.00000000000E+00 0. -1.
          6    2    1    2  502    0 -0.95632709729E+02 -0.96646651521E+02  0.12272528913E+03  0.25113393394E+03  0.17181549920E+03 0.  0.
         24    2    3    3    0    0 -0.75606089460E+02 -0.13470879825E+03  0.74694128080E+02  0.18648971560E+03  0.73051079159E+02 0.  0.
         -6    2    1    2    0  501  0.95632709729E+02  0.96646651521E+02  0.64913830612E+03  0.68492950697E+03  0.17106051158E+03 0.  0.
        -24    2    5    5    0    0  0.77671854245E+02  0.10641122129E+03  0.32042179614E+03  0.35554436297E+03  0.79908708154E+02 0.  0.
          5    1    3    3  502    0 -0.20026620269E+02  0.38062146727E+02  0.48031161052E+02  0.64644218341E+02  0.47000000000E+01 0. -1.
        -11    1    4    4    0    0 -0.41708662095E+02 -0.17359053659E+02  0.37763355096E+02  0.58881408150E+02  0.00000000000E+00 0.  1.
         12    1    4    4    0    0 -0.33897427366E+02 -0.11734974459E+03  0.36930772984E+02  0.12760830745E+03  0.00000000000E+00 0. -1.
         -5    1    5    5    0  501  0.17960855484E+02 -0.97645697730E+01  0.32871650998E+03  0.32938514400E+03  0.47000000000E+01 0.  1.
         13    1    6    6    0    0  0.34408799730E+02  0.64783765260E+01  0.32714644927E+02  0.47918502210E+02  0.00000000000E+00 0. -1.
        -14    1    6    6    0    0  0.43263054514E+02  0.99932844768E+02  0.28770715122E+03  0.30762586076E+03  0.00000000000E+00 0.  1.
</event>
<event>
12    1  0.1348628E-002  0.2039993E+03  0.7818608E-02  0.1146408E+00
          1   -1    0    0  502    0  0.00000000000E+00  0.00000000000E+00  0.21024214809E+04  0.21024214809E+04  0.00000000000E+00 0. -1.
         -1   -1    0    0    0  501 -0.00000000000E+00 -0.00000000000E+00 -0.21390266649E+02  0.21390266649E+02  0.00000000000E+00 0.  1.
          6    2    1    2  502    0  0.78088287773E+01  0.10711392839E+03  0.75575564588E+03  0.78309574489E+03  0.17475118860E+03 0.  0.
         24    2    3    3    0    0  0.68969538809E+02  0.81502144538E+02  0.57690897526E+03  0.59229527970E+03  0.81180883044E+02 0.  0.
         -6    2    1    2    0  501 -0.78088287773E+01 -0.10711392839E+03  0.13252755684E+04  0.13407160026E+04  0.17213278656E+03 0.  0.
        -24    2    5    5    0    0 -0.38760090477E+00 -0.13700854097E+03  0.12373802308E+04  0.12474612824E+04  0.79235881852E+02 0.  0.
          5    1    3    3  502    0 -0.61160710032E+02  0.25611783848E+02  0.17884667062E+03  0.19080046519E+03  0.47000000000E+01 0. -1.
        -13    1    4    4    0    0 -0.11093860606E+02  0.12164571416E+02  0.20324332944E+03  0.20390905204E+03  0.00000000000E+00 0.  1.
         14    1    4    4    0    0  0.80063399414E+02  0.69337573123E+02  0.37366564582E+03  0.38838622767E+03  0.00000000000E+00 0. -1.
         -5    1    5    5    0  501 -0.74212278725E+01  0.29894612578E+02  0.87895337508E+02  0.93254720203E+02  0.47000000000E+01 0.  1.
         13    1    6    6    0    0 -0.39326260938E+02 -0.74193765079E+02  0.70187924777E+03  0.70688453656E+03  0.00000000000E+00 0. -1.
        -14    1    6    6    0    0  0.38938660033E+02 -0.62814775886E+02  0.53550098308E+03  0.54057674588E+03  0.00000000000E+00 0.  1.
</event>
<event>
12    1  0.1348628E-002  0.2495131E+03  0.7818608E-02  0.1113613E+00
          2   -1    0    0  502    0  0.00000000000E+00  0.00000000000E+00  0.53394611832E+03  0.53394611832E+03  0.00000000000E+00 0.  1.
         -2   -1    0    0    0  501 -0.00000000000E+00 -0.00000000000E+00 -0.12989019230E+03  0.12989019230E+03  0.00000000000E+00 0. -1.
          6    2    1    2  502    0 -0.15742557369E+03 -0.88819882539E+02  0.30815163286E+03  0.39645250954E+03  0.17188769793E+03 0.  0.
         24    2    3    3    0    0 -0.12761876595E+03 -0.79666155669E+02  0.32035624332E+03  0.36264010028E+03  0.79034637425E+02 0.  0.
         -6    2    1    2    0  501  0.15742557369E+03  0.88819882539E+02  0.95904293167E+02  0.26738380109E+03  0.17211821766E+03 0.  0.
        -24    2    5    5    0    0  0.17851339578E+03  0.72241873887E+02  0.11067844617E+03  0.23640167385E+03  0.80932763043E+02 0.  0.
          5    1    3    3  502    0 -0.29806807742E+02 -0.91537268699E+01 -0.12204610464E+02  0.33812409259E+02  0.47000000000E+01 0. -1.
        -13    1    4    4    0    0 -0.12338682959E+03 -0.93233497411E+02  0.28022931722E+03  0.32007071872E+03  0.00000000000E+00 0.  1.
         14    1    4    4    0    0 -0.42319363556E+01  0.13567341742E+02  0.40126926105E+02  0.42569381554E+02  0.00000000000E+00 0. -1.
         -5    1    5    5    0  501 -0.21087822094E+02  0.16578008652E+02 -0.14774153001E+02  0.30982127242E+02  0.47000000000E+01 0.  1.
         11    1    6    6    0    0  0.80845535190E+02  0.75986541726E+02  0.53642154368E+02  0.12323731500E+03  0.00000000000E+00 0. -1.
        -12    1    6    6    0    0  0.97667860595E+02 -0.37446678387E+01  0.57036291800E+02  0.11316435884E+03  0.00000000000E+00 0.  1.
</event>
<event>
12    1  0.1348628E-002  0.2434441E+03  0.7818608E-02  0.1117520E+00
         -1   -1    0    0    0  501 -0.00000000000E+00  0.00000000000E+00  0.96524158198E+02  0.96524158198E+02  0.00000000000E+00 0. -1.
          1   -1    0    0  502    0  0.00000000000E+00 -0.00000000000E+00 -0.74103640790E+03  0.74103640790E+03  0.00000000000E+00 0.  1.
          6    2    1    2  502    0  0.34850771291E+02  0.16860029424E+03 -0.49554872310E+03  0.55207487469E+03  0.17198108856E+03 0.  0.
         24    2    3    3    0    0  0.44026741714E+02  0.14051417273E+03 -0.49436106914E+03  0.52213277762E+03  0.80914671506E+02 0.  0.
         -6    2    1    2    0  501 -0.34850771291E+02 -0.16860029424E+03 -0.14896352660E+03  0.28548569141E+03  0.17225362772E+03 0.  0.
        -24    2    5    5    0    0 -0.60700317382E+01 -0.18466326648E+03 -0.96416272049E+02  0.22327914828E+03  0.80125609326E+02 0.  0.
          5    1    3    3  502    0 -0.91759704234E+01  0.28086121511E+02 -0.11876539590E+01  0.29942097065E+02  0.47000000000E+01 0. -1.
        -13    1    4    4    0    0  0.38423130214E+02  0.14773791794E+03 -0.41388384188E+03  0.44113791937E+03  0.00000000000E+00 0.  1.
         14    1    4    4    0    0  0.56036115002E+01 -0.72237452151E+01 -0.80477227255E+02  0.80994858253E+02  0.00000000000E+00 0. -1.
         -5    1    5    5    0  501 -0.28780739553E+02  0.16062972241E+02 -0.52547254552E+02  0.62206543124E+02  0.47000000000E+01 0.  1.
         13    1    6    6    0    0  0.34437997005E+02 -0.12099155434E+03 -0.64080556087E+02  0.14117807736E+03  0.00000000000E+00 0. -1.
        -14    1    6    6    0    0 -0.40508028744E+02 -0.63671712141E+02 -0.32335715961E+02  0.82101070921E+02  0.00000000000E+00 0.  1.
</event>
<event>
12    1  0.1348628E-002  0.2007589E+03  0.7818608E-02  0.1149100E+00
         -2   -1    0    0    0  501 -0.00000000000E+00  0.00000000000E+00  0.70777700231E+02  0.70777700231E+02  0.00000000000E+00 0. -1.
          2   -1    0    0  502    0  0.00000000000E+00 -0.00000000000E+00 -0.57402337741E+03  0.57402337741E+03  0.00000000000E+00 0.  1.
          6    2    1    2  502    0  0.93199937748E+02  0.45600403523E+02 -0.27942512390E+03  0.34361925767E+03  0.17096832799E+03 0.  0.
         24    2    3    3    0    0  0.42689861925E+02  0.26580396213E+02 -0.47080508858E+02  0.10504193566E+03  0.79298752569E+02 0.  0.
         -6    2    1    2    0  501 -0.93199937748E+02 -0.45600403523E+02 -0.22382055328E+03  0.30118181997E+03  0.17276927798E+03 0.  0.
        -24    2    5    5    0    0 -0.18078397979E+02 -0.32494618525E+02 -0.22443071776E+02  0.85798470119E+02  0.73992954378E+02 0.  0.
          5    1    3    3  502    0  0.50510075823E+02  0.19020007310E+02 -0.23234461505E+03  0.23857732201E+03  0.47000000000E+01 0. -1.
        -13    1    4    4    0    0  0.30608093299E+02  0.37265246881E+02 -0.64998353720E+02  0.80934170699E+02  0.00000000000E+00 0.  1.
         14    1    4    4    0    0  0.12081768626E+02 -0.10684850668E+02  0.17917844862E+02  0.24107764961E+02  0.00000000000E+00 0. -1.
         -5    1    5    5    0  501 -0.75121539769E+02 -0.13105784999E+02 -0.20137748150E+03  0.21538334985E+03  0.47000000000E+01 0.  1.
         11    1    6    6    0    0 -0.12670078135E+02  0.83181559277E+01  0.21031488568E+02  0.25923852132E+02  0.00000000000E+00 0. -1.
        -12    1    6    6    0    0 -0.54083198435E+01 -0.40812774452E+02 -0.43474560344E+02  0.59874617987E+02  0.00000000000E+00 0.  1.
</event>
<event>
12    1  0.1348628E-002  0.1819863E+03  0.7818608E-02  0.1165894E+00
         -2   -1    0    0    0  501 -0.00000000000E+00  0.00000000000E+00  0.70858624404E+02  0.70858624404E+02  0.00000000000E+00 0.  1.
          2   -1    0    0  502    0  0.00000000000E+00 -0.00000000000E+00 -0.46908574363E+03  0.46908574363E+03  0.00000000000E+00 0. -1.
          6    2    1    2  502    0  0.44420493491E+02  0.46910875835E+02 -0.21273312885E+03  0.27860476515E+03  0.16790300932E+03 0.  0.
         24    2    3    3    0    0 -0.11820753727E+02  0.47221066992E+02 -0.52036093501E+02  0.10828506201E+03  0.81537354881E+02 0.  0.
         -6    2    1    2    0  501 -0.44420493491E+02 -0.46910875835E+02 -0.18549399037E+03  0.26133960288E+03  0.17238490960E+03 0.  0.
        -24    2    5    5    0    0 -0.38467823470E+01 -0.64844783020E+02 -0.19134685365E+03  0.21634852520E+03  0.77287918412E+02 0.  0.
          5    1    3    3  502    0  0.56241247218E+02 -0.31019115629E+00 -0.16069703535E+03  0.17031970314E+03  0.47000000000E+01 0. -1.
        -11    1    4    4    0    0  0.28618025836E+02  0.57625111044E+00 -0.17756150463E+01  0.28678847203E+02  0.00000000000E+00 0.  1.
         12    1    4    4    0    0 -0.40438779563E+02  0.46644815881E+02 -0.50260478455E+02  0.79606214806E+02  0.00000000000E+00 0. -1.
         -5    1    5    5    0  501 -0.40573711144E+02  0.17933907185E+02  0.58528632799E+01  0.44991077687E+02  0.47000000000E+01 0.  1.
         11    1    6    6    0    0  0.20233105120E+02 -0.27630288871E+02 -0.15583023037E+03  0.15954896459E+03  0.00000000000E+00 0. -1.
        -12    1    6    6    0    0 -0.24079887467E+02 -0.37214494149E+02 -0.35516623283E+02  0.56799560602E+02  0.00000000000E+00 0.  1.
</event>
<event>
12    1  0.1348628E-002  0.2135299E+03  0.7818608E-02  0.1138801E+00
         -2   -1    0    0    0  501 -0.00000000000E+00  0.00000000000E+00  0.15311114329E+03  0.15311114329E+03  0.00000000000E+00 0. -1.
          2   -1    0    0  502    0  0.00000000000E+00 -0.00000000000E+00 -0.49899279711E+03  0.49899279711E+03  0.00000000000E+00 0.  1.
          6    2    1    2  502    0 -0.13907161493E+02 -0.12657165296E+03 -0.38020770810E+03  0.43629569694E+03  0.17199488770E+03 0.  0.
         24    2    3    3    0    0  0.54252209334E+02 -0.98556240695E+02 -0.21506965860E+03  0.25540006805E+03  0.79483343637E+02 0.  0.
         -6    2    1    2    0  501  0.13907161493E+02  0.12657165296E+03  0.34326054288E+02  0.21580824346E+03  0.17082484441E+03 0.  0.
        -24    2    5    5    0    0  0.39459673644E+02  0.81847040439E+02  0.83664284946E+02  0.14432696726E+03  0.74662956213E+02 0.  0.
          5    1    3    3  502    0 -0.68159370827E+02 -0.28015412268E+02 -0.16513804951E+03  0.18089562889E+03  0.47000000000E+01 0. -1.
        -13    1    4    4    0    0  0.58832178242E+02 -0.37927298703E+02 -0.15430596538E+03  0.16944036159E+03  0.00000000000E+00 0.  1.
         14    1    4    4    0    0 -0.45799689079E+01 -0.60628941993E+02 -0.60763693218E+02  0.85959706466E+02  0.00000000000E+00 0. -1.
         -5    1    5    5    0  501 -0.25552512150E+02  0.44724612524E+02 -0.49338230658E+02  0.71481276199E+02  0.47000000000E+01 0.  1.
         11    1    6    6    0    0  0.16832098611E+02  0.90100693754E+02  0.75945947177E+02  0.11903462291E+03  0.00000000000E+00 0. -1.
        -12    1    6    6    0    0  0.22627575033E+02 -0.82536533143E+01  0.77183377691E+01  0.25292344352E+02  0.00000000000E+00 0.  1.
</event>
<event>
12    1  0.1348628E-002  0.2372086E+03  0.7818608E-02  0.1121666E+00
          2   -1    0    0  502    0  0.00000000000E+00  0.00000000000E+00  0.17078967348E+04  0.17078967348E+04  0.00000000000E+00 0.  1.
         -2   -1    0    0    0  501 -0.00000000000E+00 -0.00000000000E+00 -0.49853476396E+02  0.49853476396E+02  0.00000000000E+00 0. -1.
          6    2    1    2  502    0 -0.46210427179E+02 -0.15645311336E+03  0.13408473557E+04  0.13616679332E+04  0.17220612312E+03 0.  0.
         24    2    3    3    0    0 -0.62827039250E+02 -0.17548915953E+03  0.10193110174E+04  0.10391060171E+04  0.77476981957E+02 0.  0.
         -6    2    1    2    0  501  0.46210427179E+02  0.15645311336E+03  0.31719590267E+03  0.39608227793E+03  0.17220612637E+03 0.  0.
        -24    2    5    5    0    0  0.11934071375E+01  0.14889541064E+03  0.16091445848E+03  0.23320308724E+03  0.79491819814E+02 0.  0.
          5    1    3    3  502    0  0.16616612071E+02  0.19036046173E+02  0.32153633833E+03  0.32256191610E+03  0.47000000000E+01 0. -1.
        -13    1    4    4    0    0 -0.30479769786E+01 -0.83334167442E+02  0.29678659298E+03  0.30827934637E+03  0.00000000000E+00 0.  1.
         14    1    4    4    0    0 -0.59779062271E+02 -0.92154992088E+02  0.72252442440E+03  0.73082667077E+03  0.00000000000E+00 0. -1.
         -5    1    5    5    0  501  0.45017020042E+02  0.75577027159E+01  0.15628144418E+03  0.16287919069E+03  0.47000000000E+01 0.  1.
         11    1    6    6    0    0  0.30640002285E+01  0.13380541146E+03  0.16931927125E+03  0.21582931184E+03  0.00000000000E+00 0. -1.
        -12    1    6    6    0    0 -0.18705930910E+01  0.15089999178E+02 -0.84048127685E+01  0.17373775392E+02  0.00000000000E+00 0.  1.
</event>
<event>
12    1  0.1348628E-002  0.2041068E+03  0.7818608E-02  0.1146320E+00
         -2   -1    0    0    0  501 -0.00000000000E+00  0.00000000000E+00  0.33127752499E+02  0.33127752499E+02  0.00000000000E+00 0.  1.
          2   -1    0    0  502    0  0.00000000000E+00 -0.00000000000E+00 -0.16536642908E+04  0.16536642908E+04  0.00000000000E+00 0. -1.
          6    2    1    2  502    0  0.61329078628E+02  0.92806725295E+02 -0.39587370201E+03  0.44514879796E+03  0.17049082155E+03 0.  0.
         24    2    3    3    0    0  0.67425392059E+02  0.12961395890E+03 -0.32397866590E+03  0.36401357934E+03  0.78725778162E+02 0.  0.
         -6    2    1    2    0  501 -0.61329078628E+02 -0.92806725295E+02 -0.12246628362E+04  0.12416432453E+04  0.17176886204E+03 0.  0.
        -24    2    5    5    0    0 -0.98653683758E+02 -0.10539486507E+03 -0.10203681596E+04  0.10335327162E+04  0.78727806072E+02 0.  0.
          5    1    3    3  502    0 -0.60963134305E+01 -0.36807233605E+02 -0.71895036113E+02  0.81135218622E+02  0.47000000000E+01 0. -1.
        -11    1    4    4    0    0 -0.17902242242E+01  0.16077743647E+02 -0.28268889886E+01  0.16422242384E+02  0.00000000000E+00 0.  1.
         12    1    4    4    0    0  0.69215616283E+02  0.11353621525E+03 -0.32115177691E+03  0.34759133695E+03  0.00000000000E+00 0. -1.
         -5    1    5    5    0  501  0.37324605130E+02  0.12588139777E+02 -0.20429467664E+03  0.20811052908E+03  0.47000000000E+01 0.  1.
         11    1    6    6    0    0 -0.50654623321E+01  0.11708389608E+02 -0.47512976749E+02  0.49195815425E+02  0.00000000000E+00 0. -1.
        -12    1    6    6    0    0 -0.93588221426E+02 -0.11710325468E+03 -0.97285518285E+03  0.98433690079E+03  0.00000000000E+00 0.  1.
</event>
<event>
12    1  0.1348628E-002  0.2205065E+03  0.7818608E-02  0.1133506E+00
          2   -1    0    0  502    0  0.00000000000E+00  0.00000000000E+00  0.16971392357E+04  0.16971392357E+04  0.00000000000E+00 0. -1.
         -2   -1    0    0    0  501 -0.00000000000E+00 -0.00000000000E+00 -0.29595247444E+02  0.29595247444E+02  0.00000000000E+00 0.  1.
          6    2    1    2  502    0 -0.81378886130E+02 -0.11185347867E+03  0.98854962590E+03  0.10128731519E+04  0.17189512865E+03 0.  0.
         24    2    3    3    0    0 -0.63655186624E+02 -0.11309490298E+03  0.47041603348E+03  0.49441372223E+03  0.79443340258E+02 0.  0.
         -6    2    1    2    0  501  0.81378886130E+02  0.11185347867E+03  0.67899436236E+03  0.71386133121E+03  0.17155445865E+03 0.  0.
        -24    2    5    5    0    0 -0.13623613538E+02  0.58961556829E+02  0.21590728349E+03  0.23815684000E+03  0.80253706118E+02 0.  0.
          5    1    3    3  502    0 -0.17723699507E+02  0.12414243134E+01  0.51813359242E+03  0.51845942971E+03  0.47000000000E+01 0. -1.
        -13    1    4    4    0    0 -0.77089268692E+02 -0.97896681627E+02  0.44372997153E+03  0.46089348363E+03  0.00000000000E+00 0.  1.
         14    1    4    4    0    0  0.13434082069E+02 -0.15198221352E+02  0.26686061952E+02  0.33520238600E+02  0.00000000000E+00 0. -1.
         -5    1    5    5    0  501  0.95002499669E+02  0.52891921837E+02  0.46308707887E+03  0.47570449121E+03  0.47000000000E+01 0.  1.
         13    1    6    6    0    0  0.79530940615E+01  0.19905935378E+02  0.17892235359E+03  0.18020184956E+03  0.00000000000E+00 0. -1.
        -14    1    6    6    0    0 -0.21576707600E+02  0.39055621451E+02  0.36984929893E+02  0.57954990440E+02  0.00000000000E+00 0.  1.
</event>
<event>
12    1  0.1348628E-002  0.2011309E+03  0.7818608E-02  0.1148788E+00
         -2   -1    0    0    0  501 -0.00000000000E+00  0.00000000000E+00  0.14842043273E+03  0.14842043273E+03  0.00000000000E+00 0. -1.
          2   -1    0    0  502    0  0.00000000000E+00 -0.00000000000E+00 -0.28838044066E+03  0.28838044066E+03  0.00000000000E+00 0.  1.
          6    2    1    2  502    0 -0.10449927094E+03 -0.61904077316E+01 -0.18897682372E+02  0.20222635185E+03  0.17198824438E+03 0.  0.
         24    2    3    3    0    0 -0.48659328902E+02 -0.61806510689E+02 -0.19581686532E+02  0.12327188461E+03  0.92869478487E+02 0.  0.
         -6    2    1    2    0  501  0.10449927094E+03  0.61904077316E+01 -0.12106232555E+03  0.23457452154E+03  0.17149548307E+03 0.  0.
        -24    2    5    5    0    0  0.12486344988E+03  0.38281391361E+02 -0.12312788960E+03  0.19622236947E+03  0.79286789844E+02 0.  0.
          5    1    3    3  502    0 -0.55839942041E+02  0.55616102957E+02  0.68400416061E+00  0.78954467239E+02  0.47000000000E+01 0. -1.
        -13    1    4    4    0    0  0.12520196788E+02  0.64904081016E+01  0.19110472191E+02  0.23750597304E+02  0.00000000000E+00 0.  1.
         14    1    4    4    0    0 -0.61179525690E+02 -0.68296918791E+02 -0.38692158723E+02  0.99521287304E+02  0.00000000000E+00 0. -1.
         -5    1    5    5    0  501 -0.20364178933E+02 -0.32090983630E+02  0.20655640410E+01  0.38352152075E+02  0.47000000000E+01 0.  1.
         11    1    6    6    0    0  0.77217526075E+02  0.19686497455E+02 -0.21637530011E+02  0.82572920623E+02  0.00000000000E+00 0. -1.
        -12    1    6    6    0    0  0.47645923802E+02  0.18594893906E+02 -0.10149035958E+03  0.11364944885E+03  0.00000000000E+00 0.  1.
</event>
<event>
12    1  0.1348628E-002  0.3474788E+03  0.7818608E-02  0.1063655E+00
          1   -1    0    0  502    0  0.00000000000E+00  0.00000000000E+00  0.55920431264E+03  0.55920431264E+03  0.00000000000E+00 0.  1.
         -1   -1    0    0    0  501 -0.00000000000E+00 -0.00000000000E+00 -0.21630546794E+03  0.21630546794E+03  0.00000000000E+00 0. -1.
          6    2    1    2  502    0 -0.24697099363E+03  0.17285497208E+03  0.18790664919E+03  0.39506522077E+03  0.17289912316E+03 0.  0.
         24    2    3    3    0    0 -0.21893584778E+03  0.12612630583E+03  0.20833232924E+03  0.33667998242E+03  0.78168412351E+02 0.  0.
         -6    2    1    2    0  501  0.24697099363E+03 -0.17285497208E+03  0.15499219551E+03  0.38044455981E+03  0.17274828321E+03 0.  0.
        -24    2    5    5    0    0  0.69384741108E+02 -0.15644030934E+02  0.74586552241E+02  0.12996638797E+03  0.79177839217E+02 0.  0.
          5    1    3    3  502    0 -0.28035145851E+02  0.46728666253E+02 -0.20425680051E+02  0.58385238359E+02  0.47000000000E+01 0. -1.
        -13    1    4    4    0    0 -0.21056747728E+02 -0.10038092851E+02  0.27234052983E+02  0.35858661086E+02  0.00000000000E+00 0.  1.
         14    1    4    4    0    0 -0.19787910005E+03  0.13616439868E+03  0.18109827626E+03  0.30082132133E+03  0.00000000000E+00 0. -1.
         -5    1    5    5    0  501  0.17758625252E+03 -0.15721094115E+03  0.80405643271E+02  0.25047817184E+03  0.47000000000E+01 0.  1.
         11    1    6    6    0    0  0.11359593890E+01 -0.34461425646E+02  0.33693396226E+02  0.48209181808E+02  0.00000000000E+00 0. -1.
        -12    1    6    6    0    0  0.68248781719E+02  0.18817394713E+02  0.40893156015E+02  0.81757206158E+02  0.00000000000E+00 0.  1.
</event>
<event>
12    1  0.1348628E-002  0.1729009E+03  0.7818608E-02  0.1174856E+00
          1   -1    0    0  502    0  0.00000000000E+00  0.00000000000E+00  0.87365550215E+03  0.87365550215E+03  0.00000000000E+00 0.  1.
         -1   -1    0    0    0  501 -0.00000000000E+00 -0.00000000000E+00 -0.35665354135E+02  0.35665354135E+02  0.00000000000E+00 0. -1.
          6    2    1    2  502    0  0.53944720614E+01 -0.11747841777E+02  0.50974368380E+03  0.53815338513E+03  0.17205618455E+03 0.  0.
         24    2    3    3    0    0  0.58937884104E+01  0.19596833275E+02  0.49759100951E+03  0.50420466699E+03  0.78782998511E+02 0.  0.
         -6    2    1    2    0  501 -0.53944720614E+01  0.11747841777E+02  0.32824646422E+03  0.37116747116E+03  0.17277858159E+03 0.  0.
        -24    2    5    5    0    0  0.56980757152E+01  0.72621788611E+02  0.22112935302E+03  0.24737390294E+03  0.83601823201E+02 0.  0.
          5    1    3    3  502    0 -0.49931634906E+00 -0.31344675052E+02  0.12152674288E+02  0.33948718139E+02  0.47000000000E+01 0. -1.
        -11    1    4    4    0    0 -0.74900673029E-01 -0.30723853992E+02  0.18776939397E+03  0.19026640830E+03  0.00000000000E+00 0.  1.
         12    1    4    4    0    0  0.59686890835E+01  0.50320687267E+02  0.30982161554E+03  0.31393825869E+03  0.00000000000E+00 0. -1.
         -5    1    5    5    0  501 -0.11092547777E+02 -0.60873946834E+02  0.10711711120E+03  0.12379356822E+03  0.47000000000E+01 0.  1.
         11    1    6    6    0    0  0.40601757705E+02  0.39336519621E+02  0.15880496735E+03  0.16856714437E+03  0.00000000000E+00 0. -1.
        -12    1    6    6    0    0 -0.34903681990E+02  0.33285268990E+02  0.62324385662E+02  0.78806758570E+02  0.00000000000E+00 0.  1.
</event>
<event>
12    1  0.1348628E-002  0.1798077E+03  0.7818608E-02  0.1167989E+00
          2   -1    0    0  502    0  0.00000000000E+00  0.00000000000E+00  0.12289250237E+04  0.12289250237E+04  0.00000000000E+00 0.  1.
         -2   -1    0    0    0  501 -0.00000000000E+00 -0.00000000000E+00 -0.38105214111E+02  0.38105214111E+02  0.00000000000E+00 0. -1.
          6    2    1    2  502    0 -0.46480097090E+02  0.33116251597E+02  0.94939545485E+03  0.96639494270E+03  0.17120271626E+03 0.  0.
         24    2    3    3    0    0  0.33374456612E+02 -0.24800232403E+02  0.52221794927E+03  0.52795021399E+03  0.65505236672E+02 0.  0.
         -6    2    1    2    0  501  0.46480097090E+02 -0.33116251597E+02  0.24142435473E+03  0.30063529510E+03  0.16981983410E+03 0.  0.
        -24    2    5    5    0    0 -0.15594241635E+02  0.28144217583E+02  0.87985286312E+02  0.12408018662E+03  0.81358495243E+02 0.  0.
          5    1    3    3  502    0 -0.79854553702E+02  0.57916484000E+02  0.42717750557E+03  0.43844472871E+03  0.47000000000E+01 0. -1.
        -13    1    4    4    0    0 -0.12339665640E+01 -0.32308578435E+02  0.12348097993E+03  0.12764372024E+03  0.00000000000E+00 0.  1.
         14    1    4    4    0    0  0.34608423176E+02  0.75083460317E+01  0.39873696935E+03  0.40030649375E+03  0.00000000000E+00 0. -1.
         -5    1    5    5    0  501  0.62074338725E+02 -0.61260469180E+02  0.15343906842E+03  0.17655510848E+03  0.47000000000E+01 0.  1.
         11    1    6    6    0    0  0.22028035927E+02  0.32470650099E+01 -0.30552058056E+01  0.22474698675E+02  0.00000000000E+00 0. -1.
        -12    1    6    6    0    0 -0.37622277562E+02  0.24897152573E+02  0.91040492118E+02  0.10160548794E+03  0.00000000000E+00 0.  1.
</event>
<event>
12    1  0.1348628E-002  0.2837246E+03  0.7818608E-02  0.1093672E+00
         -1   -1    0    0    0  501 -0.00000000000E+00  0.00000000000E+00  0.30797112183E+03  0.30797112183E+03  0.00000000000E+00 0.  1.
          1   -1    0    0  502    0  0.00000000000E+00 -0.00000000000E+00 -0.27291569076E+03  0.27291569076E+03  0.00000000000E+00 0. -1.
          6    2    1    2  502    0 -0.21252119787E+03 -0.72285018883E+02  0.77192287710E+02  0.29357672638E+03  0.17273755090E+03 0.  0.
         24    2    3    3    0    0 -0.81019922231E+02  0.23428393400E+02  0.18661710893E+02  0.12065604743E+03  0.84240755649E+02 0.  0.
         -6    2    1    2    0  501  0.21252119787E+03  0.72285018883E+02 -0.42136856638E+02  0.28731008622E+03  0.17430200073E+03 0.  0.
        -24    2    5    5    0    0  0.14603579722E+03  0.89367534230E+01 -0.83951928498E+02  0.18629572353E+03  0.79068645324E+02 0.  0.
          5    1    3    3  502    0 -0.13150127563E+03 -0.95713412283E+02  0.58530576817E+02  0.17292067895E+03  0.47000000000E+01 0. -1.
        -11    1    4    4    0    0 -0.17648928284E+02 -0.30445279014E+02  0.12134564756E+02  0.37224284354E+02  0.00000000000E+00 0.  1.
         12    1    4    4    0    0 -0.63370993947E+02  0.53873672415E+02  0.65271461367E+01  0.83431763076E+02  0.00000000000E+00 0. -1.
         -5    1    5    5    0  501  0.66485400641E+02  0.63348265460E+02  0.41815071860E+02  0.10101436269E+03  0.47000000000E+01 0.  1.
         13    1    6    6    0    0  0.12214611811E+03  0.23028262239E+02 -0.33517415139E+02  0.12873768737E+03  0.00000000000E+00 0. -1.
        -14    1    6    6    0    0  0.23889679115E+02 -0.14091508816E+02 -0.50434513359E+02  0.57558036161E+02  0.00000000000E+00 0.  1.
</event>
<event>
12    1  0.1348628E-002  0.2271344E+03  0.7818608E-02  0.1128673E+00
          1   -1    0    0  502    0  0.00000000000E+00  0.00000000000E+00  0.14509435909E+04  0.14509435909E+04  0.00000000000E+00 0.  1.
         -1   -1    0    0    0  501 -0.00000000000E+00 -0.00000000000E+00 -0.80658043071E+02  0.80658043071E+02  0.00000000000E+00 0. -1.
          6    2    1    2  502    0  0.34531823856E+02  0.13697779238E+03  0.11872920510E+03  0.26040388823E+03  0.18373404256E+03 0.  0.
         24    2    3    3    0    0  0.84694871395E+02  0.60386629012E+02  0.10446995639E+03  0.16762482907E+03  0.79776847058E+02 0.  0.
         -6    2    1    2    0  501 -0.34531823856E+02 -0.13697779238E+03  0.12515563427E+04  0.12711977457E+04  0.17203216935E+03 0.  0.
        -24    2    5    5    0    0  0.61585741034E+01 -0.50871450534E+02  0.29044847003E+03  0.30537144482E+03  0.79155372867E+02 0.  0.
          5    1    3    3  502    0 -0.50163047540E+02  0.76591163370E+02  0.14259248705E+02  0.92779059159E+02  0.47000000000E+01 0. -1.
        -13    1    4    4    0    0  0.25219149560E+02  0.64276021403E+02  0.71978401386E+02  0.99741178547E+02  0.00000000000E+00 0.  1.
         14    1    4    4    0    0  0.59475721836E+02 -0.38893923909E+01  0.32491555008E+02  0.67883650520E+02  0.00000000000E+00 0. -1.
         -5    1    5    5    0  501 -0.40690397959E+02 -0.86106341847E+02  0.96110787268E+03  0.96582630090E+03  0.47000000000E+01 0.  1.
         11    1    6    6    0    0 -0.22240418937E+02 -0.48661513431E+02  0.10601043392E+03  0.11874675247E+03  0.00000000000E+00 0. -1.
        -12    1    6    6    0    0  0.28398993040E+02 -0.22099371039E+01  0.18443803611E+03  0.18662469234E+03  0.00000000000E+00 0.  1.
</event>
<event>
12    1  0.1348628E-002  0.2068515E+03  0.7818608E-02  0.1144084E+00
          2   -1    0    0  502    0  0.00000000000E+00  0.00000000000E+00  0.32695614910E+03  0.32695614910E+03  0.00000000000E+00 0.  1.
         -2   -1    0    0    0  501 -0.00000000000E+00 -0.00000000000E+00 -0.15711164403E+03  0.15711164403E+03  0.00000000000E+00 0. -1.
          6    2    1    2  502    0 -0.16264409527E+02 -0.11537919861E+03  0.18370586825E+03  0.27634787210E+03  0.17042127184E+03 0.  0.
         24    2    3    3    0    0  0.16984958505E+02 -0.13006827983E+03  0.18391874789E+03  0.23969511096E+03  0.80133601925E+02 0.  0.
         -6    2    1    2    0  501  0.16264409527E+02  0.11537919861E+03 -0.13861363179E+02  0.20771992103E+03  0.17140168528E+03 0.  0.
        -24    2    5    5    0    0 -0.31216281632E+02  0.19421185172E+02 -0.40856482197E+02  0.97206651120E+02  0.80176319522E+02 0.  0.
          5    1    3    3  502    0 -0.33249368032E+02  0.14689081217E+02 -0.21287964350E+00  0.36652761141E+02  0.47000000000E+01 0. -1.
        -11    1    4    4    0    0 -0.30079452423E+02 -0.63260092545E+02  0.10400991632E+03  0.12539806801E+03  0.00000000000E+00 0.  1.
         12    1    4    4    0    0  0.47064410927E+02 -0.66808187283E+02  0.79908831573E+02  0.11429704295E+03  0.00000000000E+00 0. -1.
         -5    1    5    5    0  501  0.47480691160E+02  0.95958013439E+02  0.26995119017E+02  0.11051326991E+03  0.47000000000E+01 0.  1.
         11    1    6    6    0    0 -0.50063902565E+02 -0.18206186715E+01 -0.34140156605E+01  0.50213190452E+02  0.00000000000E+00 0. -1.
        -12    1    6    6    0    0  0.18847620933E+02  0.21241803843E+02 -0.37442466536E+02  0.46993460669E+02  0.00000000000E+00 0.  1.
</event>
<event>
12    1  0.1348628E-002  0.1720837E+03  0.7818608E-02  0.1175692E+00
         -2   -1    0    0    0  501 -0.00000000000E+00  0.00000000000E+00  0.18451848666E+03  0.18451848666E+03  0.00000000000E+00 0.  1.
          2   -1    0    0  502    0  0.00000000000E+00 -0.00000000000E+00 -0.35609613661E+03  0.35609613661E+03  0.00000000000E+00 0. -1.
          6    2    1    2  502    0 -0.11995308074E+02  0.13294937080E+01  0.11464849411E+03  0.20641683875E+03  0.17122493728E+03 0.  0.
         24    2    3    3    0    0 -0.19166685554E+02 -0.29963768472E+02  0.13986586038E+03  0.16532301349E+03  0.80647694523E+02 0.  0.
         -6    2    1    2    0  501  0.11995308074E+02 -0.13294937080E+01 -0.28622614406E+03  0.33419778452E+03  0.17209619017E+03 0.  0.
        -24    2    5    5    0    0  0.98785563141E+01  0.60712794349E+02 -0.15519179760E+03  0.18912602264E+03  0.88884920682E+02 0.  0.
          5    1    3    3  502    0  0.71713774806E+01  0.31293262180E+02 -0.25217366268E+02  0.41093825258E+02  0.47000000000E+01 0. -1.
        -13    1    4    4    0    0  0.14237622529E+02  0.21483358909E+02  0.30515468082E+02  0.39942939270E+02  0.00000000000E+00 0.  1.
         14    1    4    4    0    0 -0.33404308084E+02 -0.51447127381E+02  0.10935039230E+03  0.12538007422E+03  0.00000000000E+00 0. -1.
         -5    1    5    5    0  501  0.21167517595E+01 -0.62042288057E+02 -0.13103434645E+03  0.14507176188E+03  0.47000000000E+01 0.  1.
         13    1    6    6    0    0  0.78848817998E+01  0.33159794208E+02 -0.15774304525E+03  0.16138343049E+03  0.00000000000E+00 0. -1.
        -14    1    6    6    0    0  0.19936745142E+01  0.27553000141E+02  0.25512476428E+01  0.27742592153E+02  0.00000000000E+00 0.  1.
</event>
<event>
12    1  0.1348628E-002  0.2531803E+03  0.7818608E-02  0.1111311E+00
          1   -1    0    0  502    0  0.00000000000E+00  0.00000000000E+00  0.18405536419E+04  0.18405536419E+04  0.00000000000E+00 0.  1.
         -1   -1    0    0    0  501 -0.00000000000E+00 -0.00000000000E+00 -0.48096394187E+02  0.48096394187E+02  0.00000000000E+00 0. -1.
          6    2    1    2  502    0 -0.23332689897E+02  0.18429059507E+03  0.39863619652E+03  0.47191074172E+03  0.17111836000E+03 0.  0.
         24    2    3    3    0    0  0.28657522582E+02  0.10393532488E+03  0.13115573203E+03  0.18778429008E+03  0.80232837401E+02 0.  0.
         -6    2    1    2    0  501  0.23332689897E+02 -0.18429059507E+03  0.13938210512E+04  0.14167392944E+04  0.17293255216E+03 0.  0.
        -24    2    5    5    0    0 -0.45330703853E+02 -0.13576505412E+03  0.82264969456E+03  0.83939347217E+03  0.85684645832E+02 0.  0.
          5    1    3    3  502    0 -0.51990212479E+02  0.80355270184E+02  0.26748046449E+03  0.28412645164E+03  0.47000000000E+01 0. -1.
        -13    1    4    4    0    0  0.32462815881E+01  0.87576470446E+02  0.13094118639E+03  0.15756195865E+03  0.00000000000E+00 0.  1.
         14    1    4    4    0    0  0.25411240994E+02  0.16358854437E+02  0.21454564064E+00  0.30222331432E+02  0.00000000000E+00 0. -1.
         -5    1    5    5    0  501  0.68663393749E+02 -0.48525540946E+02  0.57117135667E+03  0.57734582223E+03  0.47000000000E+01 0.  1.
         13    1    6    6    0    0 -0.20887748578E+01 -0.10742619626E+03  0.42386709287E+03  0.43727344196E+03  0.00000000000E+00 0. -1.
        -14    1    6    6    0    0 -0.43241928995E+02 -0.28338857860E+02  0.39878260169E+03  0.40212003021E+03  0.00000000000E+00 0.  1.
</event>
<event>
12    1  0.1348628E-002  0.1994629E+03  0.7818608E-02  0.1150193E+00
          2   -1    0    0  502    0  0.00000000000E+00  0.00000000000E+00  0.26590651424E+04  0.26590651424E+04  0.00000000000E+00 0. -1.
         -2   -1    0    0    0  501 -0.00000000000E+00 -0.00000000000E+00 -0.15545956548E+02  0.15545956548E+02  0.00000000000E+00 0.  1.
          6    2    1    2  502    0  0.91387570268E+02  0.44662718581E+02  0.15841550399E+04  0.15967272743E+04  0.17217535117E+03 0.  0.
         24    2    3    3    0    0  0.11286022642E+03  0.77795070397E+02  0.13137734910E+04  0.13234378679E+04  0.81838258949E+02 0.  0.
         -6    2    1    2    0  501 -0.91387570268E+02 -0.44662718581E+02  0.10593641459E+04  0.10778838247E+04  0.17098157599E+03 0.  0.
        -24    2    5    5    0    0 -0.54308779630E+02 -0.69517432931E+02  0.96853445159E+03  0.97656888541E+03  0.88575882686E+02 0.  0.
          5    1    3    3  502    0 -0.21472656149E+02 -0.33132351816E+02  0.27038154886E+03  0.27328940642E+03  0.47000000000E+01 0. -1.
        -11    1    4    4    0    0  0.75932253383E+02  0.77547241151E+01  0.79515504834E+03  0.79880998601E+03  0.00000000000E+00 0.  1.
         12    1    4    4    0    0  0.36927973034E+02  0.70040346282E+02  0.51861844270E+03  0.52462788185E+03  0.00000000000E+00 0. -1.
         -5    1    5    5    0  501 -0.37078790638E+02  0.24854714349E+02  0.90829694339E+02  0.10131493925E+03  0.47000000000E+01 0.  1.
         13    1    6    6    0    0 -0.28413986678E+02  0.22532213726E+01  0.57500717149E+03  0.57571319154E+03  0.00000000000E+00 0. -1.
        -14    1    6    6    0    0 -0.25894792952E+02 -0.71770654303E+02  0.39352728010E+03  0.40085569387E+03  0.00000000000E+00 0.  1.
</event>
<event>
12    1  0.1348628E-002  0.3090036E+03  0.7818608E-02  0.1080824E+00
          1   -1    0    0  502    0  0.00000000000E+00  0.00000000000E+00  0.35876931696E+03  0.35876931696E+03  0.00000000000E+00 0.  1.
         -1   -1    0    0    0  501 -0.00000000000E+00 -0.00000000000E+00 -0.34110304764E+03  0.34110304764E+03  0.00000000000E+00 0. -1.
          6    2    1    2  502    0  0.25302885252E+03  0.38358509415E+02 -0.15521578099E+03  0.34569814437E+03  0.17297483315E+03 0.  0.
         24    2    3    3    0    0  0.13627233164E+03  0.69091941913E+02 -0.14337255556E+03  0.22429393922E+03  0.80051462655E+02 0.  0.
         -6    2    1    2    0  501 -0.25302885252E+03 -0.38358509415E+02  0.17288205031E+03  0.35417422022E+03  0.17336723882E+03 0.  0.
        -24    2    5    5    0    0 -0.23570685277E+03  0.77619032390E+00  0.17887813452E+03  0.31070446723E+03  0.94771071720E+02 0.  0.
          5    1    3    3  502    0  0.11675652088E+03 -0.30733432497E+02 -0.11843225427E+02  0.12140420516E+03  0.47000000000E+01 0. -1.
        -13    1    4    4    0    0  0.14444159141E+02 -0.10728865116E+02  0.24902054775E+01  0.18164344284E+02  0.00000000000E+00 0.  1.
         14    1    4    4    0    0  0.12182817250E+03  0.79820807028E+02 -0.14586276104E+03  0.20612959493E+03  0.00000000000E+00 0. -1.
         -5    1    5    5    0  501 -0.17321999754E+02 -0.39134699739E+02 -0.59960842075E+01  0.43469752990E+02  0.47000000000E+01 0.  1.
         11    1    6    6    0    0 -0.40821975400E+02 -0.15935418016E+02  0.80739420164E+02  0.91865255627E+02  0.00000000000E+00 0. -1.
        -12    1    6    6    0    0 -0.19488487737E+03  0.16711608340E+02  0.98138714353E+02  0.21883921160E+03  0.00000000000E+00 0.  1.
</event>
<event>
12    1  0.1348628E-002  0.2315754E+03  0.7818608E-02  0.1125536E+00
          2   -1    0    0  502    0  0.00000000000E+00  0.00000000000E+00  0.98305696064E+03  0.98305696064E+03  0.00000000000E+00 0. -1.
         -2   -1    0    0    0  501 -0.00000000000E+00 -0.00000000000E+00 -0.10360462916E+03  0.10360462916E+03  0.00000000000E+00 0.  1.
          6    2    1    2  502    0 -0.97894445318E+02 -0.11951473426E+03  0.66848361365E+02  0.24197104734E+03  0.17382229490E+03 0.  0.
         24    2    3    3    0    0  0.42006234986E+00 -0.28801042684E+02 -0.13783523230E+02  0.85707465307E+02  0.79536831623E+02 0.  0.
         -6    2    1    2    0  501  0.97894445318E+02  0.11951473426E+03  0.81260397011E+03  0.84469054246E+03  0.17120106934E+03 0.  0.
        -24    2    5    5    0    0  0.11019207334E+03  0.32963437060E+02  0.57756941606E+03  0.59388047427E+03  0.76672721018E+02 0.  0.
          5    1    3    3  502    0 -0.98314507668E+02 -0.90713691578E+02  0.80631884595E+02  0.15626358204E+03  0.47000000000E+01 0. -1.
        -11    1    4    4    0    0 -0.30466314228E+02  0.62079318594E-01 -0.27726266832E+02  0.41194004769E+02  0.00000000000E+00 0.  1.
         12    1    4    4    0    0  0.30886376578E+02 -0.28863122003E+02  0.13942743602E+02  0.44513460537E+02  0.00000000000E+00 0. -1.
         -5    1    5    5    0  501 -0.12297628018E+02  0.86551297202E+02  0.23503455405E+03  0.25081006818E+03  0.47000000000E+01 0.  1.
         11    1    6    6    0    0  0.60082394078E+02  0.42880269545E+00  0.43742724019E+03  0.44153444759E+03  0.00000000000E+00 0. -1.
        -12    1    6    6    0    0  0.50109679259E+02  0.32534634364E+02  0.14014217587E+03  0.15234602668E+03  0.00000000000E+00 0.  1.
</event>
<event>
12    1  0.1348628E-002  0.1866321E+03  0.7818608E-02  0.1161535E+00
          1   -1    0    0  502    0  0.00000000000E+00  0.00000000000E+00  0.85457470459E+03  0.85457470459E+03  0.00000000000E+00 0.  1.
         -1   -1    0    0    0  501 -0.00000000000E+00 -0.00000000000E+00 -0.43517709449E+02  0.43517709449E+02  0.00000000000E+00 0. -1.
          6    2    1    2  502    0  0.64168603270E+02 -0.36903127970E+02  0.29184950075E+03  0.34625763857E+03  0.17099348140E+03 0.  0.
         24    2    3    3    0    0 -0.98844227184E+01 -0.65527072226E+02  0.12906506713E+03  0.16508357124E+03  0.78760998812E+02 0.  0.
         -6    2    1    2    0  501 -0.64168603270E+02  0.36903127970E+02  0.51920749439E+03  0.55183477547E+03  0.17165589616E+03 0.  0.
        -24    2    5    5    0    0 -0.97577841105E+02 -0.22851912912E+01  0.29088759976E+03  0.31773230683E+03  0.82532211501E+02 0.  0.
          5    1    3    3  502    0  0.74053025988E+02  0.28623944256E+02  0.16278443362E+03  0.18117406733E+03  0.47000000000E+01 0. -1.
        -11    1    4    4    0    0 -0.17355620187E+02 -0.61209957370E+01  0.93816189986E+02  0.95604192609E+02  0.00000000000E+00 0.  1.
         12    1    4    4    0    0  0.74711974683E+01 -0.59406076489E+02  0.35248877144E+02  0.69479378634E+02  0.00000000000E+00 0. -1.
         -5    1    5    5    0  501  0.33409237835E+02  0.39188319261E+02  0.22831989463E+03  0.23410246864E+03  0.47000000000E+01 0.  1.
         11    1    6    6    0    0 -0.43890086476E+02 -0.25780166868E+02  0.56140527956E+02  0.75780707135E+02  0.00000000000E+00 0. -1.
        -12    1    6    6    0    0 -0.53687754628E+02  0.23494975577E+02  0.23474707180E+03  0.24195159969E+03  0.00000000000E+00 0.  1.
</event>
<event>
12    1  0.1348628E-002  0.1754087E+03  0.7818608E-02  0.1172322E+00
          1   -1    0    0  502    0  0.00000000000E+00  0.00000000000E+00  0.49694742106E+03  0.49694742106E+03  0.00000000000E+00 0. -1.
         -1   -1    0    0    0  501 -0.00000000000E+00 -0.00000000000E+00 -0.72247519762E+02  0.72247519762E+02  0.00000000000E+00 0.  1.
          6    2    1    2  502    0 -0.32968361303E+02 -0.91878712105E+01  0.32331295685E+03  0.36945078981E+03  0.17547446594E+03 0.  0.
         24    2    3    3    0    0  0.19492528513E+02  0.48796581325E+02  0.13211464079E+03  0.16282739384E+03  0.79356265397E+02 0.  0.
         -6    2    1    2    0  501  0.32968361303E+02  0.91878712105E+01  0.10138694445E+03  0.19974415101E+03  0.16866263230E+03 0.  0.
        -24    2    5    5    0    0  0.64415166112E+02 -0.58508533187E+01  0.11417220561E+02  0.10314339540E+03  0.79527737177E+02 0.  0.
          5    1    3    3  502    0 -0.52460889815E+02 -0.57984452535E+02  0.19119831606E+03  0.20662339596E+03  0.47000000000E+01 0. -1.
        -11    1    4    4    0    0 -0.19705874186E+02 -0.18392120752E+01  0.48752198327E+01  0.20383128978E+02  0.00000000000E+00 0.  1.
         12    1    4    4    0    0  0.39198402699E+02  0.50635793400E+02  0.12723942096E+03  0.14244426487E+03  0.00000000000E+00 0. -1.
         -5    1    5    5    0  501 -0.31446804809E+02  0.15038724529E+02  0.89969723887E+02  0.96600755610E+02  0.47000000000E+01 0.  1.
         13    1    6    6    0    0 -0.44319418623E+01  0.24636141436E+02  0.12194739669E+02  0.27844088226E+02  0.00000000000E+00 0. -1.
        -14    1    6    6    0    0  0.68847107974E+02 -0.30486994755E+02 -0.77751910753E+00  0.75299307178E+02  0.00000000000E+00 0.  1.
</event>
<event>
12    1  0.1348628E-002  0.1835881E+03  0.7818608E-02  0.1164375E+00
         -2   -1    0    0    0  501 -0.00000000000E+00  0.00000000000E+00  0.15239431245E+03  0.15239431245E+03  0.00000000000E+00 0.  1.
          2   -1    0    0  502    0  0.00000000000E+00 -0.00000000000E+00 -0.22205195918E+03  0.22205195918E+03  0.00000000000E+00 0. -1.
          6    2    1    2  502    0 -0.68611667864E+02  0.16878089477E+02 -0.46061807432E+02  0.18726702472E+03  0.16719694247E+03 0.  0.
         24    2    3    3    0    0  0.52395292374E+01  0.40580275799E+02  0.11737398649E+02  0.90423691581E+02  0.79777603508E+02 0.  0.
         -6    2    1    2    0  501  0.68611667864E+02 -0.16878089477E+02 -0.23595839299E+02  0.18717924691E+03  0.17171743059E+03 0.  0.
        -24    2    5    5    0    0  0.29518782115E+02 -0.61440149008E+02 -0.59555776406E+02  0.11768652828E+03  0.75212884711E+02 0.  0.
          5    1    3    3  502    0 -0.73851197102E+02 -0.23702186321E+02 -0.57799206081E+02  0.96843333139E+02  0.47000000000E+01 0. -1.
        -13    1    4    4    0    0  0.23874364714E+02 -0.37929004849E+01  0.30369228882E+02  0.38815737111E+02  0.00000000000E+00 0.  1.
         14    1    4    4    0    0 -0.18634835477E+02  0.44373176284E+02 -0.18631830233E+02  0.51607954470E+02  0.00000000000E+00 0. -1.
         -5    1    5    5    0  501  0.39092885749E+02  0.44562059531E+02  0.35959937107E+02  0.69492718630E+02  0.47000000000E+01 0.  1.
         11    1    6    6    0    0  0.44987741258E+02 -0.26188260389E+02 -0.59676635250E+02  0.79189788739E+02  0.00000000000E+00 0. -1.
        -12    1    6    6    0    0 -0.15468959142E+02 -0.35251888619E+02  0.12085884421E+00  0.38496739537E+02  0.00000000000E+00 0.  1.
</event>
<event>
12    1  0.1348628E-002  0.2026719E+03  0.7818608E-02  0.1147504E+00
          2   -1    0    0  502    0  0.00000000000E+00  0.00000000000E+00  0.10085650174E+03  0.10085650174E+03  0.00000000000E+00 0. -1.
         -2   -1    0    0    0  501 -0.00000000000E+00 -0.00000000000E+00 -0.42206980090E+03  0.42206980090E+03  0.00000000000E+00 0.  1.
          6    2    1    2  502    0 -0.97523523224E+02 -0.48479243588E+02 -0.11116778956E+03  0.23060182317E+03  0.17017005839E+03 0.  0.
         24    2    3    3    0    0 -0.28809011313E+02  0.33752105952E+02 -0.15043407216E+02  0.86568265010E+02  0.72791459782E+02 0.  0.
         -6    2    1    2    0  501  0.97523523224E+02  0.48479243588E+02 -0.21004550960E+03  0.29232447947E+03  0.17167821805E+03 0.  0.
        -24    2    5    5    0    0  0.32208395695E+02 -0.25347570687E+02 -0.40127848668E+02  0.95828764791E+02  0.76766059100E+02 0.  0.
          5    1    3    3  502    0 -0.68714511911E+02 -0.82231349540E+02 -0.96124382341E+02  0.14403355815E+03  0.47000000000E+01 0. -1.
        -11    1    4    4    0    0  0.90998439456E+01  0.96647510690E+01  0.23757872560E+02  0.27214905505E+02  0.00000000000E+00 0.  1.
         12    1    4    4    0    0 -0.37908855258E+02  0.24087354883E+02 -0.38801279776E+02  0.59353359505E+02  0.00000000000E+00 0. -1.
         -5    1    5    5    0  501  0.65315127529E+02  0.73826814275E+02 -0.16991766093E+03  0.19649571468E+03  0.47000000000E+01 0.  1.
         11    1    6    6    0    0  0.35616693185E+02 -0.49360550306E+02 -0.37354937270E+02  0.71417113484E+02  0.00000000000E+00 0. -1.
        -12    1    6    6    0    0 -0.34082974898E+01  0.24012979618E+02 -0.27729113973E+01  0.24411651307E+02  0.00000000000E+00 0.  1.
</event>
<event>
12    1  0.1348628E-002  0.1842361E+03  0.7818608E-02  0.1163765E+00
         -2   -1    0    0    0  501 -0.00000000000E+00  0.00000000000E+00  0.73657100802E+02  0.73657100802E+02  0.00000000000E+00 0.  1.
          2   -1    0    0  502    0  0.00000000000E+00 -0.00000000000E+00 -0.69045974199E+03  0.69045974199E+03  0.00000000000E+00 0. -1.
          6    2    1    2  502    0 -0.11659693191E+02  0.68496086381E+02 -0.87574530050E+02  0.20359122982E+03  0.17015413086E+03 0.  0.
         24    2    3    3    0    0 -0.17867676661E+02  0.53746973229E+01 -0.99749442600E+02  0.13883655963E+03  0.94749658312E+02 0.  0.
         -6    2    1    2    0  501  0.11659693191E+02 -0.68496086381E+02 -0.52922811113E+03  0.56052561297E+03  0.17111080296E+03 0.  0.
        -24    2    5    5    0    0 -0.86053840484E+01 -0.70005083320E+02 -0.16685696276E+03  0.19755469182E+03  0.78815264473E+02 0.  0.
          5    1    3    3  502    0  0.62079834708E+01  0.63121389058E+02  0.12174912549E+02  0.64754670186E+02  0.47000000000E+01 0. -1.
        -11    1    4    4    0    0 -0.23681825743E+02  0.12832391536E+02  0.99620323760E+01  0.28718308309E+02  0.00000000000E+00 0.  1.
         12    1    4    4    0    0  0.58141490819E+01 -0.74576942136E+01 -0.10971147498E+03  0.11011825132E+03  0.00000000000E+00 0. -1.
         -5    1    5    5    0  501  0.20265077239E+02  0.15089969391E+01 -0.36237114837E+03  0.36297092115E+03  0.47000000000E+01 0.  1.
         13    1    6    6    0    0 -0.12045650535E+02 -0.69127411215E+02 -0.17506918117E+03  0.18860783354E+03  0.00000000000E+00 0. -1.
        -14    1    6    6    0    0  0.34402664868E+01 -0.87767210472E+00  0.82122184108E+01  0.89468582782E+01  0.00000000000E+00 0.  1.
</event>
<event>
12    1  0.1348628E-002  0.1821435E+03  0.7818608E-02  0.1165745E+00
         -1   -1    0    0    0  501 -0.00000000000E+00  0.00000000000E+00  0.29389312715E+02  0.29389312715E+02  0.00000000000E+00 0. -1.
          1   -1    0    0  502    0  0.00000000000E+00 -0.00000000000E+00 -0.13977348722E+04  0.13977348722E+04  0.00000000000E+00 0.  1.
          6    2    1    2  502    0  0.51846154074E+02  0.13031865205E+02 -0.99081566267E+03  0.10070515606E+04  0.17198638084E+03 0.  0.
         24    2    3    3    0    0  0.40556002682E+02  0.53506148441E+02 -0.36956032851E+03  0.38435908812E+03  0.81543699523E+02 0.  0.
         -6    2    1    2    0  501 -0.51846154074E+02 -0.13031865205E+02 -0.37752989686E+03  0.42007262432E+03  0.17627913511E+03 0.  0.
        -24    2    5    5    0    0 -0.47353400309E+01 -0.67591559445E+02 -0.27867834178E+03  0.29763934054E+03  0.79602239325E+02 0.  0.
          5    1    3    3  502    0  0.11290151392E+02 -0.40474283236E+02 -0.62125533416E+03  0.62269247253E+03  0.47000000000E+01 0. -1.
        -11    1    4    4    0    0  0.13802631336E+02  0.23242499998E+01 -0.26115441355E+03  0.26152923830E+03  0.00000000000E+00 0.  1.
         12    1    4    4    0    0  0.26753371347E+02  0.51181898441E+02 -0.10840591496E+03  0.12282984981E+03  0.00000000000E+00 0. -1.
         -5    1    5    5    0  501 -0.47110814043E+02  0.54559694239E+02 -0.98851555083E+02  0.12243328378E+03  0.47000000000E+01 0.  1.
         13    1    6    6    0    0  0.59574289551E+01  0.16319781237E+02 -0.26820725533E+02  0.31955868593E+02  0.00000000000E+00 0. -1.
        -14    1    6    6    0    0 -0.10692768986E+02 -0.83911340682E+02 -0.25185761624E+03  0.26568347194E+03  0.00000000000E+00 0.  1.
</event>
<event>
12    1  0.1348628E-002  0.1887562E+03  0.7818608E-02  0.1159588E+00
          1   -1    0    0  502    0  0.00000000000E+00  0.00000000000E+00  0.10477256720E+04  0.10477256720E+04  0.00000000000E+00 0.  1.
         -1   -1    0    0    0  501 -0.00000000000E+00 -0.00000000000E+00 -0.52310528687E+02  0.52310528687E+02  0.00000000000E+00 0. -1.
          6    2    1    2  502    0 -0.11427849479E+02  0.75551286226E+02  0.17275922637E+03  0.25605661392E+03  0.17286019392E+03 0.  0.
         24    2    3    3    0    0 -0.33392989276E+02 -0.62228030342E+01  0.31853049309E+02  0.91599598947E+02  0.78880002324E+02 0.  0.
         -6    2    1    2    0  501  0.11427849479E+02 -0.75551286226E+02  0.82265591691E+03  0.84397958673E+03  0.17233743817E+03 0.  0.
        -24    2    5    5    0    0 -0.42055699623E+02 -0.64329221834E+02  0.71127432098E+03  0.71982494660E+03  0.79560438723E+02 0.  0.
          5    1    3    3  502    0  0.21965139797E+02  0.81774089261E+02  0.14090617706E+03  0.16445701497E+03  0.47000000000E+01 0. -1.
        -13    1    4    4    0    0  0.17243249082E+02  0.16181062586E+02  0.27187648260E+02  0.36032272246E+02  0.00000000000E+00 0.  1.
         14    1    4    4    0    0 -0.50636238358E+02 -0.22403865620E+02  0.46654010491E+01  0.55567326701E+02  0.00000000000E+00 0. -1.
         -5    1    5    5    0  501  0.53483549102E+02 -0.11222064392E+02  0.11138159593E+03  0.12415464013E+03  0.47000000000E+01 0.  1.
         11    1    6    6    0    0 -0.27641212998E+02 -0.82161902821E+02  0.51923156501E+03  0.52641811618E+03  0.00000000000E+00 0. -1.
        -12    1    6    6    0    0 -0.14414486625E+02  0.17832680986E+02  0.19204275597E+03  0.19340683043E+03  0.00000000000E+00 0.  1.
</event>
<event>
12    1  0.1348628E-002  0.2133154E+03  0.7818608E-02  0.1138967E+00
          1   -1    0    0  502    0  0.00000000000E+00  0.00000000000E+00  0.11433000487E+04  0.11433000487E+04  0.00000000000E+00 0.  1.
         -1   -1    0    0    0  501 -0.00000000000E+00 -0.00000000000E+00 -0.50795578243E+02  0.50795578243E+02  0.00000000000E+00 0. -1.
          6    2    1    2  502    0 -0.91127400423E+02 -0.86959580586E+02  0.82659586478E+03  0.85400064247E+03  0.17375327882E+03 0.  0.
         24    2    3    3    0    0 -0.55447962882E+02 -0.12075067046E+03  0.71642858683E+03  0.73327873415E+03  0.82295691983E+02 0.  0.
         -6    2    1    2    0  501  0.91127400423E+02  0.86959580586E+02  0.26590860563E+03  0.34009498443E+03  0.17056095720E+03 0.  0.
        -24    2    5    5    0    0  0.12954168691E+01  0.43583564856E+01  0.55289826520E+02  0.96630186959E+02  0.79118611837E+02 0.  0.
          5    1    3    3  502    0 -0.35679437541E+02  0.33791089875E+02  0.11016727795E+03  0.12072190833E+03  0.47000000000E+01 0. -1.
        -13    1    4    4    0    0  0.35270082101E+01 -0.87603760416E+02  0.36342769721E+03  0.37385364747E+03  0.00000000000E+00 0.  1.
         14    1    4    4    0    0 -0.58974971092E+02 -0.33146910045E+02  0.35300088962E+03  0.35942508668E+03  0.00000000000E+00 0. -1.
         -5    1    5    5    0  501  0.89831983554E+02  0.82601224101E+02  0.21061877911E+03  0.24346479747E+03  0.47000000000E+01 0.  1.
         13    1    6    6    0    0 -0.49455095512E+01  0.39421940948E+02  0.14053624970E+02  0.42143230389E+02  0.00000000000E+00 0. -1.
        -14    1    6    6    0    0  0.62409264204E+01 -0.35063584463E+02  0.41236201550E+02  0.54486956570E+02  0.00000000000E+00 0.  1.
</event>
<event>
12    1  0.1348628E-002  0.2412150E+03  0.7818608E-02  0.1118986E+00
         -2   -1    0    0    0  501 -0.00000000000E+00  0.00000000000E+00  0.49508522891E+02  0.49508522891E+02  0.00000000000E+00 0.  1.
          2   -1    0    0  502    0  0.00000000000E+00 -0.00000000000E+00 -0.12584182334E+04  0.12584182334E+04  0.00000000000E+00 0. -1.
          6    2    1    2  502    0 -0.45819970250E+02  0.16184168945E+03 -0.77375770580E+03  0.81063575199E+03  0.17360049825E+03 0.  0.
         24    2    3    3    0    0  0.94129158651E+01  0.13166761675E+03 -0.35303362774E+03  0.38520422256E+03  0.79527268746E+02 0.  0.
         -6    2    1    2    0  501  0.45819970250E+02 -0.16184168945E+03 -0.43515200470E+03  0.49729100430E+03  0.17218848290E+03 0.  0.
        -24    2    5    5    0    0  0.97756632305E+01 -0.18013190312E+03 -0.36937825178E+03  0.41994761054E+03  0.85864058809E+02 0.  0.
          5    1    3    3  502    0 -0.55232886115E+02  0.30174072698E+02 -0.42072407806E+03  0.42543152943E+03  0.47000000000E+01 0. -1.
        -11    1    4    4    0    0 -0.30703079425E+02  0.23267468434E+02 -0.88675050305E+02  0.96681532467E+02  0.00000000000E+00 0.  1.
         12    1    4    4    0    0  0.40115995290E+02  0.10840014832E+03 -0.26435857744E+03  0.28852269009E+03  0.00000000000E+00 0. -1.
         -5    1    5    5    0  501  0.36044307020E+02  0.18290213677E+02 -0.65773752922E+02  0.77343393760E+02  0.47000000000E+01 0.  1.
         13    1    6    6    0    0  0.98930883793E+00 -0.11580832654E+03 -0.14070500977E+03  0.18223733701E+03  0.00000000000E+00 0. -1.
        -14    1    6    6    0    0  0.87863543926E+01 -0.64323576589E+02 -0.22867324201E+03  0.23771027353E+03  0.00000000000E+00 0.  1.
</event>
<event>
12    1  0.1348628E-002  0.2346709E+03  0.7818608E-02  0.1123395E+00
          1   -1    0    0  502    0  0.00000000000E+00  0.00000000000E+00  0.14850639726E+04  0.14850639726E+04  0.00000000000E+00 0.  1.
         -1   -1    0    0    0  501 -0.00000000000E+00 -0.00000000000E+00 -0.46181423281E+02  0.46181423281E+02  0.00000000000E+00 0. -1.
          6    2    1    2  502    0 -0.14343039483E+03 -0.73082528587E+02  0.10577182297E+04  0.10833020383E+04  0.16988854761E+03 0.  0.
         24    2    3    3    0    0 -0.10632649595E+03  0.96374317988E+01  0.78247165110E+03  0.79347094924E+03  0.77045821935E+02 0.  0.
         -6    2    1    2    0  501  0.14343039483E+03  0.73082528587E+02  0.38116431963E+03  0.44794335759E+03  0.17162074147E+03 0.  0.
        -24    2    5    5    0    0  0.90380195135E+02  0.10731726943E+03  0.32409163727E+03  0.36270415158E+03  0.82663996024E+02 0.  0.
          5    1    3    3  502    0 -0.37103898878E+02 -0.82719960385E+02  0.27524657864E+03  0.28983108910E+03  0.47000000000E+01 0. -1.
        -11    1    4    4    0    0 -0.95437847548E+02 -0.54222931097E+01  0.42944257312E+03  0.43995307433E+03  0.00000000000E+00 0.  1.
         12    1    4    4    0    0 -0.10888648402E+02  0.15059724909E+02  0.35302907798E+03  0.35351787490E+03  0.00000000000E+00 0. -1.
         -5    1    5    5    0  501  0.53050199693E+02 -0.34234740847E+02  0.57072682364E+02  0.85239206006E+02  0.47000000000E+01 0.  1.
         11    1    6    6    0    0  0.69316340314E+02  0.28855220159E+02  0.10538452632E+03  0.12939581582E+03  0.00000000000E+00 0. -1.
        -12    1    6    6    0    0  0.21063854820E+02  0.78462049274E+02  0.21870711095E+03  0.23330833576E+03  0.00000000000E+00 0.  1.
</event>
<event>
12    1  0.1348628E-002  0.1740127E+03  0.7818608E-02  0.1173727E+00
         -2   -1    0    0    0  501 -0.00000000000E+00  0.00000000000E+00  0.64876095719E+02  0.64876095719E+02  0.00000000000E+00 0.  1.
          2   -1    0    0  502    0  0.00000000000E+00 -0.00000000000E+00 -0.46945545611E+03  0.46945545611E+03  0.00000000000E+00 0. -1.
          6    2    1    2  502    0 -0.25489000096E+02 -0.47884234082E+02 -0.18822428186E+03  0.25938362533E+03  0.17002616213E+03 0.  0.
         24    2    3    3    0    0  0.20103151684E+01  0.78163477274E+01 -0.17696788385E+03  0.19607830446E+03  0.84047206423E+02 0.  0.
         -6    2    1    2    0  501  0.25489000096E+02  0.47884234082E+02 -0.21635507854E+03  0.27494792651E+03  0.16076147947E+03 0.  0.
        -24    2    5    5    0    0 -0.96890596562E+00  0.51264551881E+02 -0.22529362997E+03  0.24642714385E+03  0.85674526352E+02 0.  0.
          5    1    3    3  502    0 -0.27499315265E+02 -0.55700581810E+02 -0.11256398008E+02  0.63305320867E+02  0.47000000000E+01 0. -1.
        -13    1    4    4    0    0  0.27878527849E+01  0.23375040761E+02 -0.58551731124E+01  0.24257941089E+02  0.00000000000E+00 0.  1.
         14    1    4    4    0    0 -0.77753761654E+00 -0.15558693033E+02 -0.17111271073E+03  0.17182036337E+03  0.00000000000E+00 0. -1.
         -5    1    5    5    0  501  0.26457906062E+02 -0.33803177987E+01  0.89385514274E+01  0.28520782654E+02  0.47000000000E+01 0.  1.
         11    1    6    6    0    0  0.42246155342E+02  0.22232812868E+02 -0.10408233025E+03  0.11450837122E+03  0.00000000000E+00 0. -1.
        -12    1    6    6    0    0 -0.43215061308E+02  0.29031739013E+02 -0.12121129971E+03  0.13191877263E+03  0.00000000000E+00 0.  1.
</event>
<event>
12    1  0.1348628E-002  0.1744407E+03  0.7818608E-02  0.1173294E+00
          2   -1    0    0  502    0  0.00000000000E+00  0.00000000000E+00  0.10482581673E+04  0.10482581673E+04  0.00000000000E+00 0. -1.
         -2   -1    0    0    0  501 -0.00000000000E+00 -0.00000000000E+00 -0.29256046572E+02  0.29256046572E+02  0.00000000000E+00 0.  1.
          6    2    1    2  502    0 -0.70153414305E+01  0.26011883399E+02  0.55655886815E+03  0.58321105859E+03  0.17219620221E+03 0.  0.
         24    2    3    3    0    0 -0.10200547600E+02  0.80638222817E+02  0.30742541693E+03  0.32809589046E+03  0.80808119703E+02 0.  0.
         -6    2    1    2    0  501  0.70153414305E+01 -0.26011883399E+02  0.46244325258E+03  0.49430315528E+03  0.17249931701E+03 0.  0.
        -24    2    5    5    0    0  0.48776492532E+01  0.19151707523E+02  0.10195208455E+03  0.13095718805E+03  0.79780813451E+02 0.  0.
          5    1    3    3  502    0  0.31852061699E+01 -0.54626339418E+02  0.24913345121E+03  0.25511516813E+03  0.47000000000E+01 0. -1.
        -11    1    4    4    0    0  0.22366688079E+02  0.70179561508E+02  0.25558920202E+03  0.26599112726E+03  0.00000000000E+00 0.  1.
         12    1    4    4    0    0 -0.32567235679E+02  0.10458661309E+02  0.51836214905E+02  0.62104763198E+02  0.00000000000E+00 0. -1.
         -5    1    5    5    0  501  0.21376921773E+01 -0.45163590923E+02  0.36049116803E+03  0.36334596723E+03  0.47000000000E+01 0.  1.
         13    1    6    6    0    0  0.27262573412E+02  0.12785461946E+02  0.10334544512E+03  0.10764291418E+03  0.00000000000E+00 0. -1.
        -14    1    6    6    0    0 -0.22384924159E+02  0.63662455775E+01 -0.13933605723E+01  0.23314273869E+02  0.00000000000E+00 0.  1.
</event>
<event>
12    1  0.1348628E-002  0.2709248E+03  0.7818608E-02  0.1100751E+00
          1   -1    0    0  502    0  0.00000000000E+00  0.00000000000E+00  0.38595113267E+03  0.38595113267E+03  0.00000000000E+00 0.  1.
         -1   -1    0    0    0  501 -0.00000000000E+00 -0.00000000000E+00 -0.19642679483E+03  0.19642679483E+03  0.00000000000E+00 0. -1.
          6    2    1    2  502    0  0.19823241173E+03  0.84198226806E+02  0.14495995171E+03  0.30338003988E+03  0.15697334341E+03 0.  0.
         24    2    3    3    0    0  0.15623863409E+03  0.98961925622E+02  0.65952343853E+02  0.21257400340E+03  0.81449504321E+02 0.  0.
         -6    2    1    2    0  501 -0.19823241173E+03 -0.84198226806E+02  0.44564386133E+02  0.27899788762E+03  0.17166364300E+03 0.  0.
        -24    2    5    5    0    0 -0.13658850478E+03 -0.15987781321E+02 -0.27277856883E+02  0.16222445734E+03  0.81612892947E+02 0.  0.
          5    1    3    3  502    0  0.41993777636E+02 -0.14763698816E+02  0.79007607858E+02  0.90806036486E+02  0.47000000000E+01 0. -1.
        -11    1    4    4    0    0  0.94369044593E+02  0.78814501277E+02  0.79090405806E+02  0.14619348303E+03  0.00000000000E+00 0.  1.
         12    1    4    4    0    0  0.61869589499E+02  0.20147424345E+02 -0.13138061953E+02  0.66380520368E+02  0.00000000000E+00 0. -1.
         -5    1    5    5    0  501 -0.61643906950E+02 -0.68210445485E+02  0.71842243016E+02  0.11677343028E+03  0.47000000000E+01 0.  1.
         13    1    6    6    0    0 -0.11553038207E+02 -0.10578321643E+02 -0.33433051551E+02  0.36920759968E+02  0.00000000000E+00 0. -1.
        -14    1    6    6    0    0 -0.12503546657E+03 -0.54094596779E+01  0.61551946680E+01  0.12530369738E+03  0.00000000000E+00 0.  1.
</event>
<event>
12    1  0.1348628E-002  0.4205988E+03  0.7818608E-02  0.1036872E+00
         -1   -1    0    0    0  501 -0.00000000000E+00  0.00000000000E+00  0.15912647444E+04  0.15912647444E+04  0.00000000000E+00 0.  1.
          1   -1    0    0  502    0  0.00000000000E+00 -0.00000000000E+00 -0.11147964870E+03  0.11147964870E+03  0.00000000000E+00 0. -1.
          6    2    1    2  502    0  0.27287209211E+03  0.26935778618E+03  0.69466885021E+03  0.81193781383E+03  0.17223648410E+03 0.  0.
         24    2    3    3    0    0  0.13189238449E+03  0.20242107663E+03  0.51695501490E+03  0.57537894525E+03  0.73814293003E+02 0.  0.
         -6    2    1    2    0  501 -0.27287209211E+03 -0.26935778618E+03  0.78511624550E+03  0.89080657928E+03  0.17353975660E+03 0.  0.
        -24    2    5    5    0    0 -0.12217120701E+03 -0.18310316873E+03  0.55588124184E+03  0.60319330994E+03  0.79910198989E+02 0.  0.
          5    1    3    3  502    0  0.14097970763E+03  0.66936709547E+02  0.17771383530E+03  0.23655886858E+03  0.47000000000E+01 0. -1.
        -11    1    4    4    0    0  0.69169164802E+01  0.30528237748E+02  0.27078215333E+02  0.41388969294E+02  0.00000000000E+00 0.  1.
         12    1    4    4    0    0  0.12497546801E+03  0.17189283888E+03  0.48987679957E+03  0.53398997595E+03  0.00000000000E+00 0. -1.
         -5    1    5    5    0  501 -0.15070088510E+03 -0.86254617447E+02  0.22923500366E+03  0.28761326935E+03  0.47000000000E+01 0.  1.
         11    1    6    6    0    0 -0.52500672566E+02 -0.47770250405E+02  0.27165227481E+03  0.28077264086E+03  0.00000000000E+00 0. -1.
        -12    1    6    6    0    0 -0.69670534443E+02 -0.13533291833E+03  0.28422896703E+03  0.32242066908E+03  0.00000000000E+00 0.  1.
</event>
<event>
12    1  0.1348628E-002  0.2435530E+03  0.7818608E-02  0.1117448E+00
          2   -1    0    0  502    0  0.00000000000E+00  0.00000000000E+00  0.95409953363E+02  0.95409953363E+02  0.00000000000E+00 0. -1.
         -2   -1    0    0    0  501 -0.00000000000E+00 -0.00000000000E+00 -0.66203635914E+03  0.66203635914E+03  0.00000000000E+00 0.  1.
          6    2    1    2  502    0  0.17143183329E+03 -0.21289862642E+02 -0.37573016271E+03  0.44724963049E+03  0.17034360888E+03 0.  0.
         24    2    3    3    0    0  0.12615311515E+03  0.21874789346E+02 -0.15134428714E+03  0.21425937178E+03  0.81294958481E+02 0.  0.
         -6    2    1    2    0  501 -0.17143183329E+03  0.21289862642E+02 -0.19089624307E+03  0.31019668201E+03  0.17302737991E+03 0.  0.
        -24    2    5    5    0    0 -0.16762845793E+03  0.63547585078E+02 -0.18052613151E+03  0.26626707943E+03  0.78554935895E+02 0.  0.
          5    1    3    3  502    0  0.45278718138E+02 -0.43164651988E+02 -0.22438587557E+03  0.23299025871E+03  0.47000000000E+01 0. -1.
        -11    1    4    4    0    0  0.12824183475E+03  0.24189163338E+02 -0.15917299500E+03  0.20583276255E+03  0.00000000000E+00 0.  1.
         12    1    4    4    0    0 -0.20887195933E+01 -0.23143739923E+01  0.78287078545E+01  0.84266092343E+01  0.00000000000E+00 0. -1.
         -5    1    5    5    0  501 -0.38033753583E+01 -0.42257722436E+02 -0.10370111561E+02  0.43929602586E+02  0.47000000000E+01 0.  1.
         13    1    6    6    0    0 -0.11618503875E+03  0.54302793501E+02 -0.75161132620E+02  0.14865043716E+03  0.00000000000E+00 0. -1.
        -14    1    6    6    0    0 -0.51443419184E+02  0.92447915761E+01 -0.10536499889E+03  0.11761664227E+03  0.00000000000E+00 0.  1.
</event>
<event>
12    1  0.1348628E-002  0.2409498E+03  0.7818608E-02  0.1119162E+00
          1   -1    0    0  502    0  0.00000000000E+00  0.00000000000E+00  0.16850361194E+04  0.16850361194E+04  0.00000000000E+00 0. -1.
         -1   -1    0    0    0  501 -0.00000000000E+00 -0.00000000000E+00 -0.35118102781E+02  0.35118102781E+02  0.00000000000E+00 0.  1.
          6    2    1    2  502    0 -0.16567469466E+03 -0.20138041270E+02  0.94760224094E+03  0.97808752944E+03  0.17564613018E+03 0.  0.
         24    2    3    3    0    0 -0.14942109814E+03  0.20354867221E+02  0.88640860150E+03  0.90278409960E+03  0.80981087172E+02 0.  0.
         -6    2    1    2    0  501  0.16567469466E+03  0.20138041270E+02  0.70231577568E+03  0.74206669274E+03  0.17193569309E+03 0.  0.
        -24    2    5    5    0    0  0.13094908848E+03  0.68876749233E+02  0.40435456254E+03  0.43811882894E+03  0.80955701858E+02 0.  0.
          5    1    3    3  502    0 -0.16253596521E+02 -0.40492908491E+02  0.61193639438E+02  0.75303429840E+02  0.47000000000E+01 0. -1.
        -13    1    4    4    0    0 -0.33067856584E+02  0.34835921898E+02  0.37747882621E+03  0.38052238939E+03  0.00000000000E+00 0.  1.
         14    1    4    4    0    0 -0.11635324155E+03 -0.14481054678E+02  0.50892977529E+03  0.52226171020E+03  0.00000000000E+00 0. -1.
         -5    1    5    5    0  501  0.34725606176E+02 -0.48738707962E+02  0.29796121314E+03  0.30394786381E+03  0.47000000000E+01 0.  1.
         11    1    6    6    0    0 -0.40625409327E+01  0.24089263985E+02  0.86565080729E+02  0.89946151000E+02  0.00000000000E+00 0. -1.
        -12    1    6    6    0    0  0.13501162941E+03  0.44787485247E+02  0.31778948181E+03  0.34817267794E+03  0.00000000000E+00 0.  1.
</event>
<event>
12    1  0.1348628E-002  0.1737825E+03  0.7818608E-02  0.1173960E+00
          2   -1    0    0  502    0  0.00000000000E+00  0.00000000000E+00  0.45917157042E+02  0.45917157042E+02  0.00000000000E+00 0. -1.
         -2   -1    0    0    0  501 -0.00000000000E+00 -0.00000000000E+00 -0.65861177964E+03  0.65861177964E+03  0.00000000000E+00 0.  1.
          6    2    1    2  502    0  0.76284881276E+01  0.25061311907E+02 -0.29204192148E+03  0.33943143446E+03  0.17099401044E+03 0.  0.
         24    2    3    3    0    0 -0.28388616203E+02 -0.10751918002E+02 -0.64670475911E+02  0.10640850961E+03  0.78860530005E+02 0.  0.
         -6    2    1    2    0  501 -0.76284881276E+01 -0.25061311907E+02 -0.32065270112E+03  0.36509750223E+03  0.17260292064E+03 0.  0.
        -24    2    5    5    0    0  0.45345210173E+01  0.16665268504E+02 -0.64605676940E+02  0.10534528396E+03  0.81396819995E+02 0.  0.
          5    1    3    3  502    0  0.36017104331E+02  0.35813229909E+02 -0.22737144557E+03  0.23302292484E+03  0.47000000000E+01 0. -1.
        -13    1    4    4    0    0 -0.50533689199E+01 -0.13885325382E+02 -0.77976417032E+02  0.79364100269E+02  0.00000000000E+00 0.  1.
         14    1    4    4    0    0 -0.23335247283E+02  0.31334073805E+01  0.13305941121E+02  0.27044409343E+02  0.00000000000E+00 0. -1.
         -5    1    5    5    0  501 -0.12163009145E+02 -0.41726580411E+02 -0.25604702418E+03  0.25975221826E+03  0.47000000000E+01 0.  1.
         11    1    6    6    0    0 -0.37533335057E+02  0.16604819106E+02 -0.29339624257E+02  0.50450815747E+02  0.00000000000E+00 0. -1.
        -12    1    6    6    0    0  0.42067856075E+02  0.60449398743E-01 -0.35266052684E+02  0.54894468216E+02  0.00000000000E+00 0.  1.
</event>
<event>
12    1  0.1348628E-002  0.1803260E+03  0.7818608E-02  0.1167488E+00
          1   -1    0    0  502    0  0.00000000000E+00  0.00000000000E+00  0.10890552207E+04  0.10890552207E+04  0.00000000000E+00 0. -1.
         -1   -1    0    0    0  501 -0.00000000000E+00 -0.00000000000E+00 -0.29920645364E+02  0.29920645364E+02  0.00000000000E+00 0.  1.
          6    2    1    2  502    0 -0.28007924938E+02 -0.50710462678E+02  0.50772516084E+03  0.53918955729E+03  0.17200158387E+03 0.  0.
         24    2    3    3    0    0 -0.69709606639E+02 -0.64934536970E+01  0.20846184028E+03  0.23378032499E+03  0.79342972599E+02 0.  0.
         -6    2    1    2    0  501  0.28007924938E+02  0.50710462678E+02  0.55140941447E+03  0.57978630875E+03  0.16954004413E+03 0.  0.
        -24    2    5    5    0    0  0.99101156617E+01  0.40705642176E+02  0.55094416166E+03  0.55857467058E+03  0.81920898739E+02 0.  0.
          5    1    3    3  502    0  0.41701681701E+02 -0.44217008981E+02  0.29926332056E+03  0.30540923230E+03  0.47000000000E+01 0. -1.
        -11    1    4    4    0    0  0.41672236262E+01 -0.25438966413E+02  0.29093412339E+02  0.38870726858E+02  0.00000000000E+00 0.  1.
         12    1    4    4    0    0 -0.73876830265E+02  0.18945512716E+02  0.17936842794E+03  0.19490959814E+03  0.00000000000E+00 0. -1.
         -5    1    5    5    0  501  0.18097809276E+02  0.10004820503E+02  0.46525281480E+00  0.21211638175E+02  0.47000000000E+01 0.  1.
         13    1    6    6    0    0  0.30234965738E+01  0.34072327248E+02  0.73877777860E+02  0.81412474948E+02  0.00000000000E+00 0. -1.
        -14    1    6    6    0    0  0.68866190879E+01  0.66333149275E+01  0.47706638380E+03  0.47716219563E+03  0.00000000000E+00 0.  1.
</event>
<event>
12    1  0.1348628E-002  0.1841150E+03  0.7818608E-02  0.1163879E+00
         -3   -1    0    0    0  501 -0.00000000000E+00  0.00000000000E+00  0.46786662268E+03  0.46786662268E+03  0.00000000000E+00 0.  1.
          3   -1    0    0  502    0  0.00000000000E+00 -0.00000000000E+00 -0.72722379796E+02  0.72722379796E+02  0.00000000000E+00 0. -1.
          6    2    1    2  502    0 -0.40764114984E+02  0.62533799509E+02  0.21573682030E+03  0.28480037568E+03  0.17028414254E+03 0.  0.
         24    2    3    3    0    0  0.30187948079E+02  0.18757745438E+02  0.16654366056E+03  0.18788497376E+03  0.79377624500E+02 0.  0.
         -6    2    1    2    0  501  0.40764114984E+02 -0.62533799509E+02  0.17940742258E+03  0.25578862679E+03  0.16633883842E+03 0.  0.
        -24    2    5    5    0    0  0.74155702685E+02 -0.83315058774E+02  0.16434028358E+03  0.21340976952E+03  0.78073898718E+02 0.  0.
          5    1    3    3  502    0 -0.70952063063E+02  0.43776054070E+02  0.49193159744E+02  0.96915401916E+02  0.47000000000E+01 0. -1.
        -11    1    4    4    0    0  0.92920260991E+01  0.25527787758E+02  0.16346262033E+03  0.16570467085E+03  0.00000000000E+00 0.  1.
         12    1    4    4    0    0  0.20895921980E+02 -0.67700423194E+01  0.30810402273E+01  0.22180302912E+02  0.00000000000E+00 0. -1.
         -5    1    5    5    0  501 -0.33391587700E+02  0.20781259265E+02  0.15067138997E+02  0.42378857268E+02  0.47000000000E+01 0.  1.
         11    1    6    6    0    0 -0.15297932469E+02 -0.10793474057E+02  0.11249011319E+02  0.21841842314E+02  0.00000000000E+00 0. -1.
        -12    1    6    6    0    0  0.89453635153E+02 -0.72521584717E+02  0.15309127226E+03  0.19156792721E+03  0.00000000000E+00 0.  1.
</event>
<event>
12    1  0.1348628E-002  0.2275703E+03  0.7818608E-02  0.1128362E+00
         -1   -1    0    0    0  501 -0.00000000000E+00  0.00000000000E+00  0.51373700029E+03  0.51373700029E+03  0.00000000000E+00 0. -1.
          1   -1    0    0  502    0  0.00000000000E+00 -0.00000000000E+00 -0.14635616103E+03  0.14635616103E+03  0.00000000000E+00 0.  1.
          6    2    1    2  502    0  0.45307189280E+02  0.14344312063E+03  0.36841341017E+03  0.43360633330E+03  0.17221306929E+03 0.  0.
         24    2    3    3    0    0  0.56609650400E+02  0.16723550903E+03  0.35254411492E+03  0.40249768652E+03  0.80899114273E+02 0.  0.
         -6    2    1    2    0  501 -0.45307189280E+02 -0.14344312063E+03 -0.10325709072E+01  0.22648682801E+03  0.16931198068E+03 0.  0.
        -24    2    5    5    0    0 -0.50856040195E+02 -0.10656720166E+03 -0.62841788923E+02  0.15414671066E+03  0.76610786949E+02 0.  0.
          5    1    3    3  502    0 -0.11302461120E+02 -0.23792388398E+02  0.15869295245E+02  0.31108646782E+02  0.47000000000E+01 0. -1.
        -11    1    4    4    0    0  0.76211903825E+02  0.12220254961E+03  0.24349071293E+03  0.28289475905E+03  0.00000000000E+00 0.  1.
         12    1    4    4    0    0 -0.19602253425E+02  0.45032959426E+02  0.10905340199E+03  0.11960292747E+03  0.00000000000E+00 0. -1.
         -5    1    5    5    0  501  0.55488509155E+01 -0.36875918973E+02  0.61809218016E+02  0.72340117350E+02  0.47000000000E+01 0.  1.
         11    1    6    6    0    0 -0.40525606643E+02 -0.52200321348E+02  0.53783855213E+01  0.66303283278E+02  0.00000000000E+00 0. -1.
        -12    1    6    6    0    0 -0.10330433552E+02 -0.54366880314E+02 -0.68220174444E+02  0.87843427379E+02  0.00000000000E+00 0.  1.
</event>
<event>
12    1  0.1348628E-002  0.2474402E+03  0.7818608E-02  0.1114933E+00
          2   -1    0    0  502    0  0.00000000000E+00  0.00000000000E+00  0.90627422405E+03  0.90627422405E+03  0.00000000000E+00 0. -1.
         -2   -1    0    0    0  501 -0.00000000000E+00 -0.00000000000E+00 -0.71529385509E+02  0.71529385509E+02  0.00000000000E+00 0.  1.
          6    2    1    2  502    0 -0.72506011102E+02  0.16809748146E+03  0.30755458169E+03  0.39680071576E+03  0.17130995999E+03 0.  0.
         24    2    3    3    0    0 -0.36135497238E+02  0.15993579351E+03  0.15541211694E+03  0.24008809021E+03  0.81265815463E+02 0.  0.
         -6    2    1    2    0  501  0.72506011102E+02 -0.16809748146E+03  0.52719025686E+03  0.58100289380E+03  0.16161964842E+03 0.  0.
        -24    2    5    5    0    0  0.29871176067E+01 -0.15379495064E+03  0.36890381269E+03  0.40746866851E+03  0.79239403607E+02 0.  0.
          5    1    3    3  502    0 -0.36370513864E+02  0.81616879555E+01  0.15214246474E+03  0.15671262555E+03  0.47000000000E+01 0. -1.
        -13    1    4    4    0    0 -0.55110688012E+02  0.13189038215E+03  0.14732798860E+03  0.20527493043E+03  0.00000000000E+00 0.  1.
         14    1    4    4    0    0  0.18975190774E+02  0.28045411359E+02  0.80841283452E+01  0.34813159786E+02  0.00000000000E+00 0. -1.
         -5    1    5    5    0  501  0.69518893495E+02 -0.14302530829E+02  0.15828644416E+03  0.17353422529E+03  0.47000000000E+01 0.  1.
         11    1    6    6    0    0 -0.37547071767E+02 -0.66624343276E+02  0.14938998174E+03  0.16782715025E+03  0.00000000000E+00 0. -1.
        -12    1    6    6    0    0  0.40534189374E+02 -0.87170607360E+02  0.21951383095E+03  0.23964151826E+03  0.00000000000E+00 0.  1.
</event>
<event>
12    1  0.1348628E-002  0.2187709E+03  0.7818608E-02  0.1134803E+00
         -1   -1    0    0    0  501 -0.00000000000E+00  0.00000000000E+00  0.70144085857E+02  0.70144085857E+02  0.00000000000E+00 0. -1.
          1   -1    0    0  502    0  0.00000000000E+00 -0.00000000000E+00 -0.73769993796E+03  0.73769993796E+03  0.00000000000E+00 0.  1.
          6    2    1    2  502    0  0.58659300328E+02  0.12188376482E+03 -0.22312949174E+03  0.31249727122E+03  0.17196281225E+03 0.  0.
         24    2    3    3    0    0  0.24898669270E+02  0.38735708116E+02 -0.20017198889E+03  0.21974751931E+03  0.78100885348E+02 0.  0.
         -6    2    1    2    0  501 -0.58659300328E+02 -0.12188376482E+03 -0.44442636036E+03  0.49534675259E+03  0.17192163877E+03 0.  0.
        -24    2    5    5    0    0 -0.14135300178E+02 -0.52830445940E+02 -0.11344925690E+03  0.15429150713E+03  0.89130648788E+02 0.  0.
          5    1    3    3  502    0  0.33760631058E+02  0.83148056705E+02 -0.22957502852E+02  0.92749751916E+02  0.47000000000E+01 0. -1.
        -11    1    4    4    0    0  0.40917906258E+02  0.42035260184E+02 -0.19330298174E+03  0.20200812087E+03  0.00000000000E+00 0.  1.
         12    1    4    4    0    0 -0.16019236989E+02 -0.32995520680E+01 -0.68690071526E+01  0.17739398434E+02  0.00000000000E+00 0. -1.
         -5    1    5    5    0  501 -0.44524000150E+02 -0.69053318881E+02 -0.33097710346E+03  0.34105524546E+03  0.47000000000E+01 0.  1.
         11    1    6    6    0    0  0.92647142126E+01 -0.57721666244E+02 -0.11634925728E+03  0.13021050400E+03  0.00000000000E+00 0. -1.
        -12    1    6    6    0    0 -0.23400014391E+02  0.48912203042E+01  0.29000003809E+01  0.24081003130E+02  0.00000000000E+00 0.  1.
</event>
<event>
12    1  0.1348628E-002  0.1725375E+03  0.7818608E-02  0.1175227E+00
         -1   -1    0    0    0  501 -0.00000000000E+00  0.00000000000E+00  0.85173427389E+02  0.85173427389E+02  0.00000000000E+00 0. -1.
          1   -1    0    0  502    0  0.00000000000E+00 -0.00000000000E+00 -0.58642356801E+03  0.58642356801E+03  0.00000000000E+00 0.  1.
          6    2    1    2  502    0  0.51174568975E+01  0.21445558878E+02 -0.46405023769E+03  0.49508377244E+03  0.17111171282E+03 0.  0.
         24    2    3    3    0    0 -0.88389900378E+01  0.78702502440E+02 -0.27989403746E+03  0.30167039110E+03  0.79950866306E+02 0.  0.
         -6    2    1    2    0  501 -0.51174568975E+01 -0.21445558878E+02 -0.37199902923E+02  0.17651322296E+03  0.17113440549E+03 0.  0.
        -24    2    5    5    0    0 -0.62341447790E+02  0.16181339390E+01  0.10696580031E+02  0.98265653414E+02  0.75184089717E+02 0.  0.
          5    1    3    3  502    0  0.13956446935E+02 -0.57256943562E+02 -0.18415620023E+03  0.19341338134E+03  0.47000000000E+01 0. -1.
        -11    1    4    4    0    0 -0.77675908929E+01  0.39036056403E+02 -0.24683343691E+03  0.25002178854E+03  0.00000000000E+00 0.  1.
         12    1    4    4    0    0 -0.10713991449E+01  0.39666446037E+02 -0.33060600552E+02  0.51648602558E+02  0.00000000000E+00 0. -1.
         -5    1    5    5    0  501  0.57223990892E+02 -0.23063692817E+02 -0.47896482955E+02  0.78247569543E+02  0.47000000000E+01 0.  1.
         13    1    6    6    0    0 -0.31882882924E+02 -0.30357306717E+02  0.26474616521E+02  0.51371097075E+02  0.00000000000E+00 0. -1.
        -14    1    6    6    0    0 -0.30458564866E+02  0.31975440656E+02 -0.15778036490E+02  0.46894556340E+02  0.00000000000E+00 0.  1.
</event>
<event>
12    1  0.1348628E-002  0.1733383E+03  0.7818608E-02  0.1174411E+00
         -1   -1    0    0    0  501 -0.00000000000E+00  0.00000000000E+00  0.10319663201E+03  0.10319663201E+03  0.00000000000E+00 0. -1.
          1   -1    0    0  502    0  0.00000000000E+00 -0.00000000000E+00 -0.44749312900E+03  0.44749312900E+03  0.00000000000E+00 0.  1.
          6    2    1    2  502    0  0.16271892386E+02  0.18041489604E+02 -0.93682695274E+01  0.17354261438E+03  0.17157798432E+03 0.  0.
         24    2    3    3    0    0  0.18391069551E+02  0.64115673253E+02 -0.46667594298E+02  0.11403924524E+03  0.79862595130E+02 0.  0.
         -6    2    1    2    0  501 -0.16271892386E+02 -0.18041489604E+02 -0.33492822746E+03  0.37714714663E+03  0.17167638985E+03 0.  0.
        -24    2    5    5    0    0 -0.40122806030E+02 -0.47154262508E+02 -0.11352030471E+03  0.15251416177E+03  0.80872405207E+02 0.  0.
          5    1    3    3  502    0 -0.21191771653E+01 -0.46074183649E+02  0.37299324771E+02  0.59503369141E+02  0.47000000000E+01 0. -1.
        -13    1    4    4    0    0  0.42418137851E+02  0.49435980927E+02 -0.54369321853E+02  0.84848322245E+02  0.00000000000E+00 0.  1.
         14    1    4    4    0    0 -0.24027068300E+02  0.14679692326E+02  0.77017275543E+01  0.29190922993E+02  0.00000000000E+00 0. -1.
         -5    1    5    5    0  501  0.23850913644E+02  0.29112772904E+02 -0.22140792275E+03  0.22463298485E+03  0.47000000000E+01 0.  1.
         13    1    6    6    0    0  0.19942011074E+02  0.11760605789E+01 -0.45538013138E+02  0.49727030523E+02  0.00000000000E+00 0. -1.
        -14    1    6    6    0    0 -0.60064817104E+02 -0.48330323087E+02 -0.67982291573E+02  0.10278713125E+03  0.00000000000E+00 0.  1.
</event>
<event>
12    1  0.1348628E-002  0.1892385E+03  0.7818608E-02  0.1159150E+00
         -1   -1    0    0    0  501 -0.00000000000E+00  0.00000000000E+00  0.12589299294E+03  0.12589299294E+03  0.00000000000E+00 0. -1.
          1   -1    0    0  502    0  0.00000000000E+00 -0.00000000000E+00 -0.55889335830E+03  0.55889335830E+03  0.00000000000E+00 0.  1.
          6    2    1    2  502    0 -0.58567563482E+02  0.65048128234E+02 -0.45863476934E+03  0.49766853431E+03  0.17224023894E+03 0.  0.
         24    2    3    3    0    0  0.61628618294E+01  0.19100565211E+02 -0.36579325849E+03  0.37542761380E+03  0.82087592183E+02 0.  0.
         -6    2    1    2    0  501  0.58567563482E+02 -0.65048128234E+02  0.25634403977E+02  0.18711781694E+03  0.16338462679E+03 0.  0.
        -24    2    5    5    0    0  0.87450105976E+02 -0.21248350812E+02 -0.10786649708E+02  0.12307716646E+03  0.83262378319E+02 0.  0.
          5    1    3    3  502    0 -0.64730425311E+02  0.45947563022E+02 -0.92841510847E+02  0.12224092050E+03  0.47000000000E+01 0. -1.
        -11    1    4    4    0    0  0.25405349761E+02 -0.16323433767E+02 -0.26734903920E+03  0.26904905696E+03  0.00000000000E+00 0.  1.
         12    1    4    4    0    0 -0.19242487932E+02  0.35423998978E+02 -0.98444219289E+02  0.10637855685E+03  0.00000000000E+00 0. -1.
         -5    1    5    5    0  501 -0.28882542494E+02 -0.43799777422E+02  0.36421053686E+02  0.64040650486E+02  0.47000000000E+01 0.  1.
         13    1    6    6    0    0 -0.62245680022E+01  0.82980828865E+01  0.17953624269E+02  0.20734899344E+02  0.00000000000E+00 0. -1.
        -14    1    6    6    0    0  0.93674673978E+02 -0.29546433699E+02 -0.28740273977E+02  0.10234226711E+03  0.00000000000E+00 0.  1.
</event>
<event>
12    1  0.1348628E-002  0.2224605E+03  0.7818608E-02  0.1132062E+00
         -1   -1    0    0    0  501 -0.00000000000E+00  0.00000000000E+00  0.25327395260E+03  0.25327395260E+03  0.00000000000E+00 0.  1.
          1   -1    0    0  502    0  0.00000000000E+00 -0.00000000000E+00 -0.35660242943E+03  0.35660242943E+03  0.00000000000E+00 0. -1.
          6    2    1    2  502    0  0.12859234037E+03  0.59319190545E+02  0.15329626777E+03  0.27058848490E+03  0.17223131562E+03 0.  0.
         24    2    3    3    0    0  0.82302180257E+02  0.50585271606E+02  0.17990899165E+03  0.21628022277E+03  0.71255672813E+02 0.  0.
         -6    2    1    2    0  501 -0.12859234037E+03 -0.59319190545E+02 -0.25662474461E+03  0.33928789713E+03  0.17089546871E+03 0.  0.
        -24    2    5    5    0    0 -0.98932795329E+02 -0.62088343707E+02 -0.95277389747E+02  0.17514644672E+03  0.89195495324E+02 0.  0.
          5    1    3    3  502    0  0.46290160112E+02  0.87339189393E+01 -0.26612723877E+02  0.54308262128E+02  0.47000000000E+01 0. -1.
        -11    1    4    4    0    0  0.78732425905E+02  0.60902632845E+02  0.12249944571E+03  0.15784181884E+03  0.00000000000E+00 0.  1.
         12    1    4    4    0    0  0.35697543527E+01 -0.10317361239E+02  0.57409545935E+02  0.58438403927E+02  0.00000000000E+00 0. -1.
         -5    1    5    5    0  501 -0.29659545040E+02  0.27691531625E+01 -0.16134735486E+03  0.16414145041E+03  0.47000000000E+01 0.  1.
         11    1    6    6    0    0 -0.84596192140E+02 -0.43427001093E+02 -0.11151625992E+03  0.14655475555E+03  0.00000000000E+00 0. -1.
        -12    1    6    6    0    0 -0.14336603190E+02 -0.18661342614E+02  0.16238870176E+02  0.28591691167E+02  0.00000000000E+00 0.  1.
</event>
<event>
12    1  0.1348628E-002  0.1771429E+03  0.7818608E-02  0.1170597E+00
         -1   -1    0    0    0  501 -0.00000000000E+00  0.00000000000E+00  0.23278418844E+02  0.23278418844E+02  0.00000000000E+00 0. -1.
          1   -1    0    0  502    0  0.00000000000E+00 -0.00000000000E+00 -0.17181328442E+04  0.17181328442E+04  0.00000000000E+00 0.  1.
          6    2    1    2  502    0 -0.29788544549E+01 -0.36467720704E+02 -0.12469057283E+04  0.12592545818E+04  0.17207393254E+03 0.  0.
         24    2    3    3    0    0 -0.50686688884E+02 -0.66270619126E+02 -0.76789804124E+03  0.77693238192E+03  0.83639637431E+02 0.  0.
         -6    2    1    2    0  501  0.29788544549E+01  0.36467720704E+02 -0.44794869702E+03  0.48215668122E+03  0.17458024475E+03 0.  0.
        -24    2    5    5    0    0  0.40609231494E+02  0.78584550852E+02 -0.26192910032E+03  0.28769523770E+03  0.79605620961E+02 0.  0.
          5    1    3    3  502    0  0.47707834429E+02  0.29802898422E+02 -0.47900768708E+03  0.48232219989E+03  0.47000000000E+01 0. -1.
        -11    1    4    4    0    0 -0.60401556078E+02 -0.13592358406E+02 -0.32870920630E+03  0.33448892730E+03  0.00000000000E+00 0.  1.
         12    1    4    4    0    0  0.97148671933E+01 -0.52678260721E+02 -0.43918883494E+03  0.44244345462E+03  0.00000000000E+00 0. -1.
         -5    1    5    5    0  501 -0.37630377039E+02 -0.42116830148E+02 -0.18601959670E+03  0.19446144352E+03  0.47000000000E+01 0.  1.
         13    1    6    6    0    0 -0.15984311595E+02  0.50273665873E+02 -0.87860261386E+02  0.10248104814E+03  0.00000000000E+00 0. -1.
        -14    1    6    6    0    0  0.56593543089E+02  0.28310884979E+02 -0.17406883893E+03  0.18521418956E+03  0.00000000000E+00 0.  1.
</event>
<event>
12    1  0.1348628E-002  0.2631676E+03  0.7818608E-02  0.1105255E+00
         -4   -1    0    0    0  501 -0.00000000000E+00  0.00000000000E+00  0.21920165607E+03  0.21920165607E+03  0.00000000000E+00 0.  1.
          4   -1    0    0  502    0  0.00000000000E+00 -0.00000000000E+00 -0.33737961838E+03  0.33737961838E+03  0.00000000000E+00 0. -1.
          6    2    1    2  502    0 -0.19705163945E+03 -0.34262826087E+02  0.10974725425E+02  0.26372584185E+03  0.17154470321E+03 0.  0.
         24    2    3    3    0    0 -0.14738063304E+03 -0.55023249640E+02  0.64993564342E+02  0.18731688281E+03  0.78197456365E+02 0.  0.
         -6    2    1    2    0  501  0.19705163945E+03  0.34262826087E+02 -0.12915268773E+03  0.29285543261E+03  0.17053034275E+03 0.  0.
        -24    2    5    5    0    0  0.35962081914E+02  0.81201121911E+01 -0.56770324995E+01  0.88156594139E+02  0.79875833858E+02 0.  0.
          5    1    3    3  502    0 -0.49671006404E+02  0.20760423553E+02 -0.54018838917E+02  0.76408959038E+02  0.47000000000E+01 0. -1.
        -11    1    4    4    0    0  0.24317653649E+01 -0.11728802917E+02 -0.87333149310E+01  0.14823936398E+02  0.00000000000E+00 0.  1.
         12    1    4    4    0    0 -0.14981239841E+03 -0.43294446723E+02  0.73726879273E+02  0.17249294641E+03  0.00000000000E+00 0. -1.
         -5    1    5    5    0  501  0.16108955753E+03  0.26142713896E+02 -0.12347565523E+03  0.20469883847E+03  0.47000000000E+01 0.  1.
         13    1    6    6    0    0  0.11301209030E+02 -0.29754167498E+02 -0.23510729179E+02  0.39569965827E+02  0.00000000000E+00 0. -1.
        -14    1    6    6    0    0  0.24660872884E+02  0.37874279690E+02  0.17833696679E+02  0.48586628311E+02  0.00000000000E+00 0.  1.
</event>
<event>
12    1  0.1348628E-002  0.1939274E+03  0.7818608E-02  0.1154966E+00
          2   -1    0    0  502    0  0.00000000000E+00  0.00000000000E+00  0.11258130537E+04  0.11258130537E+04  0.00000000000E+00 0. -1.
         -2   -1    0    0    0  501 -0.00000000000E+00 -0.00000000000E+00 -0.40037724143E+02  0.40037724143E+02  0.00000000000E+00 0.  1.
          6    2    1    2  502    0 -0.86683753399E+02 -0.23233084416E+02  0.30587639238E+03  0.36222825942E+03  0.17203225044E+03 0.  0.
         24    2    3    3    0    0 -0.56886382742E+02  0.48317865920E+02  0.22424509064E+03  0.24956424025E+03  0.80160917073E+02 0.  0.
         -6    2    1    2    0  501  0.86683753399E+02  0.23233084416E+02  0.77989893715E+03  0.80362251840E+03  0.17179333687E+03 0.  0.
        -24    2    5    5    0    0  0.10292395439E+03 -0.22729747627E+02  0.67288419144E+03  0.68593406588E+03  0.81378288411E+02 0.  0.
          5    1    3    3  502    0 -0.29797370657E+02 -0.71550950335E+02  0.81631301741E+02  0.11266401917E+03  0.47000000000E+01 0. -1.
        -11    1    4    4    0    0 -0.67636623558E+02  0.44732143594E+02  0.12075787135E+03  0.14545838240E+03  0.00000000000E+00 0.  1.
         12    1    4    4    0    0  0.10750240817E+02  0.35857223251E+01  0.10348721929E+03  0.10410585785E+03  0.00000000000E+00 0. -1.
         -5    1    5    5    0  501 -0.16240200991E+02  0.45962832043E+02  0.10701474571E+03  0.11768845252E+03  0.47000000000E+01 0.  1.
         11    1    6    6    0    0  0.69872943981E+02 -0.17392096279E+02  0.61391993305E+03  0.61812814004E+03  0.00000000000E+00 0. -1.
        -12    1    6    6    0    0  0.33051010408E+02 -0.53376513480E+01  0.58964258388E+02  0.67805925834E+02  0.00000000000E+00 0.  1.
</event>
<event>
12    1  0.1348628E-002  0.1744029E+03  0.7818608E-02  0.1173333E+00
         -1   -1    0    0    0  501 -0.00000000000E+00  0.00000000000E+00  0.87803510568E+02  0.87803510568E+02  0.00000000000E+00 0.  1.
          1   -1    0    0  502    0  0.00000000000E+00 -0.00000000000E+00 -0.39558704108E+03  0.39558704108E+03  0.00000000000E+00 0. -1.
          6    2    1    2  502    0  0.24178801243E+02  0.10288183237E+02 -0.23913460662E+03  0.29599785781E+03  0.17244973356E+03 0.  0.
         24    2    3    3    0    0  0.51700295966E+02  0.38918756291E+02 -0.74708341136E+02  0.12677838740E+03  0.79396681816E+02 0.  0.
         -6    2    1    2    0  501 -0.24178801243E+02 -0.10288183237E+02 -0.68648923899E+02  0.18739269384E+03  0.17237426086E+03 0.  0.
        -24    2    5    5    0    0 -0.71953341493E+02 -0.25903245584E+02 -0.84620321450E+02  0.13444543321E+03  0.71180855751E+02 0.  0.
          5    1    3    3  502    0 -0.27521494722E+02 -0.28630573054E+02 -0.16442626548E+03  0.16921947041E+03  0.47000000000E+01 0. -1.
        -11    1    4    4    0    0 -0.32741980781E+01 -0.35584517408E+01  0.13590651504E+02  0.14425281979E+02  0.00000000000E+00 0.  1.
         12    1    4    4    0    0  0.54974494044E+02  0.42477208032E+02 -0.88298992640E+02  0.11235310543E+03  0.00000000000E+00 0. -1.
         -5    1    5    5    0  501  0.47774540249E+02  0.15615062347E+02  0.15971397551E+02  0.52947260627E+02  0.47000000000E+01 0.  1.
         11    1    6    6    0    0 -0.49936760017E+02 -0.28002896779E+02 -0.94287445268E+02  0.11030849724E+03  0.00000000000E+00 0. -1.
        -12    1    6    6    0    0 -0.22016581475E+02  0.20996511947E+01  0.96671238182E+01  0.24136935968E+02  0.00000000000E+00 0.  1.
</event>
<event>
12    1  0.1348628E-002  0.1733521E+03  0.7818608E-02  0.1174397E+00
         -2   -1    0    0    0  501 -0.00000000000E+00  0.00000000000E+00  0.21040526786E+03  0.21040526786E+03  0.00000000000E+00 0.  1.
          2   -1    0    0  502    0  0.00000000000E+00 -0.00000000000E+00 -0.20168961565E+03  0.20168961565E+03  0.00000000000E+00 0. -1.
          6    2    1    2  502    0 -0.70679133633E+01 -0.16203927035E+02 -0.10694630126E+03  0.20414898363E+03  0.17299356495E+03 0.  0.
         24    2    3    3    0    0  0.17611102348E+02 -0.74378276222E+02 -0.73964967147E+02  0.13271252851E+03  0.79369515307E+02 0.  0.
         -6    2    1    2    0  501  0.70679133633E+01  0.16203927035E+02  0.11566195347E+03  0.20794589988E+03  0.17190487819E+03 0.  0.
        -24    2    5    5    0    0  0.32181920180E+02  0.25715132318E+02  0.58320718089E+00  0.89681855420E+02  0.79658967130E+02 0.  0.
          5    1    3    3  502    0 -0.24679015712E+02  0.58174349187E+02 -0.32981334113E+02  0.71436455118E+02  0.47000000000E+01 0. -1.
        -13    1    4    4    0    0 -0.25177841372E+02 -0.43431129744E+02 -0.12608775273E+02  0.51760679486E+02  0.00000000000E+00 0.  1.
         14    1    4    4    0    0  0.42788943720E+02 -0.30947146478E+02 -0.61356191874E+02  0.80951849028E+02  0.00000000000E+00 0. -1.
         -5    1    5    5    0  501 -0.25114006816E+02 -0.95112052839E+01  0.11507874629E+03  0.11826404446E+03  0.47000000000E+01 0.  1.
         13    1    6    6    0    0 -0.82257379221E+01 -0.98305588174E+01  0.26882854460E+02  0.29782385985E+02  0.00000000000E+00 0. -1.
        -14    1    6    6    0    0  0.40407658102E+02  0.35545691136E+02 -0.26299647279E+02  0.59899469435E+02  0.00000000000E+00 0.  1.
</event>
<event>
12    1  0.1348628E-002  0.2134468E+03  0.7818608E-02  0.1138865E+00
          1   -1    0    0  502    0  0.00000000000E+00  0.00000000000E+00  0.30949145905E+02  0.30949145905E+02  0.00000000000E+00 0. -1.
         -1   -1    0    0    0  501 -0.00000000000E+00 -0.00000000000E+00 -0.14970440523E+04  0.14970440523E+04  0.00000000000E+00 0.  1.
          6    2    1    2  502    0  0.11844728493E+02 -0.12732552736E+03 -0.63443554890E+03  0.66938355713E+03  0.17092042982E+03 0.  0.
         24    2    3    3    0    0  0.24679513990E+02 -0.14002552055E+03 -0.37222222129E+03  0.40650727307E+03  0.80514323044E+02 0.  0.
         -6    2    1    2    0  501 -0.11844728493E+02  0.12732552736E+03 -0.83165935748E+03  0.85860964106E+03  0.17088341445E+03 0.  0.
        -24    2    5    5    0    0 -0.72409688611E+02  0.91082630060E+02 -0.49309237001E+03  0.51273197916E+03  0.78833930449E+02 0.  0.
          5    1    3    3  502    0 -0.12834785497E+02  0.12699993186E+02 -0.26221332761E+03  0.26287628406E+03  0.47000000000E+01 0. -1.
        -11    1    4    4    0    0  0.11949561451E+02 -0.10570334243E+03 -0.34460787320E+03  0.36065298403E+03  0.00000000000E+00 0.  1.
         12    1    4    4    0    0  0.12729952538E+02 -0.34322178115E+02 -0.27614348097E+02  0.45854289036E+02  0.00000000000E+00 0. -1.
         -5    1    5    5    0  501  0.60564960119E+02  0.36242897304E+02 -0.33856698747E+03  0.34587766190E+03  0.47000000000E+01 0.  1.
         11    1    6    6    0    0 -0.67372731677E+00  0.51395895954E+02 -0.11675489457E+03  0.12756840296E+03  0.00000000000E+00 0. -1.
        -12    1    6    6    0    0 -0.71735961295E+02  0.39686734105E+02 -0.37633747544E+03  0.38516357620E+03  0.00000000000E+00 0.  1.
</event>
<event>
12    1  0.1348628E-002  0.1982144E+03  0.7818608E-02  0.1151254E+00
          2   -1    0    0  502    0  0.00000000000E+00  0.00000000000E+00  0.16882373055E+04  0.16882373055E+04  0.00000000000E+00 0.  1.
         -2   -1    0    0    0  501 -0.00000000000E+00 -0.00000000000E+00 -0.25545897792E+02  0.25545897792E+02  0.00000000000E+00 0. -1.
          6    2    1    2  502    0  0.47498357809E+02 -0.85201564375E+02  0.57605664860E+03  0.60923474021E+03  0.17265661213E+03 0.  0.
         24    2    3    3    0    0  0.65976820908E+02  0.90249247597E+01  0.28688852215E+03  0.30450472821E+03  0.77354477570E+02 0.  0.
         -6    2    1    2    0  501 -0.47498357809E+02  0.85201564375E+02  0.10866347591E+04  0.11045484631E+04  0.17244363438E+03 0.  0.
        -24    2    5    5    0    0  0.28533491517E+02  0.84327179945E+02  0.57321847348E+03  0.58551091241E+03  0.79488218008E+02 0.  0.
          5    1    3    3  502    0 -0.18478463099E+02 -0.94226489135E+02  0.28916812646E+03  0.30473001200E+03  0.47000000000E+01 0. -1.
        -13    1    4    4    0    0  0.71582483659E+02  0.13357083073E+02  0.28823711454E+03  0.29729294951E+03  0.00000000000E+00 0.  1.
         14    1    4    4    0    0 -0.56056627517E+01 -0.43321583136E+01 -0.13485923901E+01  0.72117786970E+01  0.00000000000E+00 0. -1.
         -5    1    5    5    0  501 -0.76031849326E+02  0.87438443091E+00  0.51341628564E+03  0.51903755069E+03  0.47000000000E+01 0.  1.
         13    1    6    6    0    0 -0.13952833886E+02  0.33075871607E+02  0.78321817256E+02  0.86156844849E+02  0.00000000000E+00 0. -1.
        -14    1    6    6    0    0  0.42486325403E+02  0.51251308337E+02  0.49489665622E+03  0.49935406756E+03  0.00000000000E+00 0.  1.
</event>
<event>
12    1  0.1348628E-002  0.1813487E+03  0.7818608E-02  0.1166504E+00
         -2   -1    0    0    0  501 -0.00000000000E+00  0.00000000000E+00  0.43103612195E+03  0.43103612195E+03  0.00000000000E+00 0.  1.
          2   -1    0    0  502    0  0.00000000000E+00 -0.00000000000E+00 -0.76445637945E+02  0.76445637945E+02  0.00000000000E+00 0. -1.
          6    2    1    2  502    0 -0.22406595969E+02 -0.26180723013E+01  0.16768378853E+03  0.24141311299E+03  0.17220199866E+03 0.  0.
         24    2    3    3    0    0  0.39098244704E+02 -0.28449885327E+02  0.14289860530E+03  0.17009324691E+03  0.78572466757E+02 0.  0.
         -6    2    1    2    0  501  0.22406595969E+02  0.26180723013E+01  0.18690669547E+03  0.26606864690E+03  0.18801463295E+03 0.  0.
        -24    2    5    5    0    0  0.90154834429E+02  0.58597055528E+01  0.15628872800E+03  0.19150403108E+03  0.63917111159E+02 0.  0.
          5    1    3    3  502    0 -0.61504840673E+02  0.25831813026E+02  0.24785183223E+02  0.71319866081E+02  0.47000000000E+01 0. -1.
        -11    1    4    4    0    0  0.34026725055E+02 -0.19993793810E+02  0.15638204495E+02  0.42451422223E+02  0.00000000000E+00 0.  1.
         12    1    4    4    0    0  0.50715196488E+01 -0.84560915165E+01  0.12726040081E+03  0.12764182469E+03  0.00000000000E+00 0. -1.
         -5    1    5    5    0  501 -0.67748238460E+02 -0.32416332515E+01  0.30617967475E+02  0.74564615823E+02  0.47000000000E+01 0.  1.
         13    1    6    6    0    0  0.41129959620E+02 -0.27295081247E+01  0.18840870277E+02  0.45322204114E+02  0.00000000000E+00 0. -1.
        -14    1    6    6    0    0  0.49024874809E+02  0.85892136775E+01  0.13744785772E+03  0.14618182696E+03  0.00000000000E+00 0.  1.
</event>
<event>
12    1  0.1348628E-002  0.2307988E+03  0.7818608E-02  0.1126079E+00
          2   -1    0    0  502    0  0.00000000000E+00  0.00000000000E+00  0.78538725251E+03  0.78538725251E+03  0.00000000000E+00 0. -1.
         -2   -1    0    0    0  501 -0.00000000000E+00 -0.00000000000E+00 -0.68914226241E+02  0.68914226241E+02  0.00000000000E+00 0.  1.
          6    2    1    2  502    0 -0.10398481969E+03 -0.11508728093E+03  0.41289090397E+03  0.47331997975E+03  0.17174102506E+03 0.  0.
         24    2    3    3    0    0 -0.25784584932E+02 -0.10432900182E+03  0.34133659527E+03  0.36667511874E+03  0.79941140782E+02 0.  0.
         -6    2    1    2    0  501  0.10398481969E+03  0.11508728093E+03  0.30358212229E+03  0.38098149900E+03  0.17007901883E+03 0.  0.
        -24    2    5    5    0    0  0.87217252956E+02  0.98635365565E+01  0.78094128717E+02  0.13154190126E+03  0.59164518762E+02 0.  0.
          5    1    3    3  502    0 -0.78200234760E+02 -0.10758279105E+02  0.71554308701E+02  0.10664486101E+03  0.47000000000E+01 0. -1.
        -11    1    4    4    0    0 -0.21219859108E+02 -0.31988547124E+02  0.35227250201E+02  0.52100947443E+02  0.00000000000E+00 0.  1.
         12    1    4    4    0    0 -0.45647258247E+01 -0.72340454699E+02  0.30610934507E+03  0.31457417130E+03  0.00000000000E+00 0. -1.
         -5    1    5    5    0  501  0.16767566737E+02  0.10522374437E+03  0.22548799358E+03  0.24943959774E+03  0.47000000000E+01 0.  1.
         11    1    6    6    0    0  0.82679450833E+02  0.19974979602E+02  0.83514983894E+02  0.11920421106E+03  0.00000000000E+00 0. -1.
        -12    1    6    6    0    0  0.45378021231E+01 -0.10111443046E+02 -0.54208551764E+01  0.12337690198E+02  0.00000000000E+00 0.  1.
</event>
<event>
12    1  0.1348628E-002  0.1983850E+03  0.7818608E-02  0.1151109E+00
         -1   -1    0    0    0  501 -0.00000000000E+00  0.00000000000E+00  0.74370992887E+03  0.74370992887E+03  0.00000000000E+00 0.  1.
          1   -1    0    0  502    0  0.00000000000E+00 -0.00000000000E+00 -0.97252137471E+02  0.97252137471E+02  0.00000000000E+00 0. -1.
          6    2    1    2  502    0 -0.98396278082E+02  0.36983649573E+01  0.38960573870E+02  0.20176189952E+03  0.17173943151E+03 0.  0.
         24    2    3    3    0    0 -0.53481384886E+02 -0.54489171880E+02  0.58528771122E+02  0.12555073618E+03  0.80672435961E+02 0.  0.
         -6    2    1    2    0  501  0.98396278082E+02 -0.36983649573E+01  0.60749721753E+03  0.63920016683E+03  0.17270923113E+03 0.  0.
        -24    2    5    5    0    0  0.13124156286E+03  0.19266372853E+02  0.52174431440E+03  0.54442758477E+03  0.81170958469E+02 0.  0.
          5    1    3    3  502    0 -0.44914893196E+02  0.58187536838E+02 -0.19568197252E+02  0.76211163341E+02  0.47000000000E+01 0. -1.
        -11    1    4    4    0    0 -0.11640232254E+02 -0.23681650868E+01 -0.19485307941E+02  0.22820614329E+02  0.00000000000E+00 0.  1.
         12    1    4    4    0    0 -0.41841152632E+02 -0.52121006794E+02  0.78014079063E+02  0.10273012185E+03  0.00000000000E+00 0. -1.
         -5    1    5    5    0  501 -0.32845284782E+02 -0.22964737810E+02  0.85752903132E+02  0.94772582061E+02  0.47000000000E+01 0.  1.
         13    1    6    6    0    0  0.66826807631E+02 -0.19791326667E+02  0.15385612177E+03  0.16890596507E+03  0.00000000000E+00 0. -1.
        -14    1    6    6    0    0  0.64414755232E+02  0.39057699519E+02  0.36788819263E+03  0.37552161970E+03  0.00000000000E+00 0.  1.
</event>
<event>
12    1  0.1348628E-002  0.2233519E+03  0.7818608E-02  0.1131408E+00
         -2   -1    0    0    0  501 -0.00000000000E+00  0.00000000000E+00  0.60186649643E+03  0.60186649643E+03  0.00000000000E+00 0.  1.
          2   -1    0    0  502    0  0.00000000000E+00 -0.00000000000E+00 -0.11288210855E+03  0.11288210855E+03  0.00000000000E+00 0. -1.
          6    2    1    2  502    0  0.11964298760E+03  0.78131241954E+02  0.61154245246E+02  0.23262937896E+03  0.17308278595E+03 0.  0.
         24    2    3    3    0    0  0.63929818525E+02  0.85784642498E+02 -0.18897863257E+02  0.13468571237E+03  0.79605811950E+02 0.  0.
         -6    2    1    2    0  501 -0.11964298760E+03 -0.78131241954E+02  0.42783014263E+03  0.48211922603E+03  0.17023918970E+03 0.  0.
        -24    2    5    5    0    0 -0.41514300143E+02  0.86261355630E+01  0.13981885685E+03  0.17130814982E+03  0.89438929623E+02 0.  0.
          5    1    3    3  502    0  0.55713169075E+02 -0.76534005444E+01  0.80052108503E+02  0.97943666585E+02  0.47000000000E+01 0. -1.
        -13    1    4    4    0    0 -0.12656706367E+02  0.85006208952E+01  0.14327239063E+02  0.20921819970E+02  0.00000000000E+00 0.  1.
         14    1    4    4    0    0  0.76586524892E+02  0.77284021603E+02 -0.33225102320E+02  0.11376389240E+03  0.00000000000E+00 0. -1.
         -5    1    5    5    0  501 -0.78128687457E+02 -0.86757377517E+02  0.28801128578E+03  0.31081107621E+03  0.47000000000E+01 0.  1.
         11    1    6    6    0    0 -0.37140490169E+02 -0.37048587641E+02  0.84207218136E+02  0.99211236472E+02  0.00000000000E+00 0. -1.
        -12    1    6    6    0    0 -0.43738099745E+01  0.45674723204E+02  0.55611638713E+02  0.72096913345E+02  0.00000000000E+00 0.  1.
</event>
<event>
12    1  0.1348628E-002  0.2754673E+03  0.7818608E-02  0.1098191E+00
         -2   -1    0    0    0  501 -0.00000000000E+00  0.00000000000E+00  0.27577227258E+02  0.27577227258E+02  0.00000000000E+00 0.  1.
          2   -1    0    0  502    0  0.00000000000E+00 -0.00000000000E+00 -0.27603718629E+04  0.27603718629E+04  0.00000000000E+00 0. -1.
          6    2    1    2  502    0 -0.41237010617E+01  0.21213182901E+03 -0.12779055055E+04  0.13068011257E+04  0.17224919004E+03 0.  0.
         24    2    3    3    0    0  0.29949314393E+02  0.79854255032E+02 -0.32887905288E+03  0.34798329908E+03  0.75214902348E+02 0.  0.
         -6    2    1    2    0  501  0.41237010617E+01 -0.21213182901E+03 -0.14548891302E+04  0.14811479645E+04  0.17910888782E+03 0.  0.
        -24    2    5    5    0    0  0.15567953733E+02 -0.79549378864E+02 -0.10200462062E+04  0.10263738057E+04  0.79865269174E+02 0.  0.
          5    1    3    3  502    0 -0.34073015455E+02  0.13227757397E+03 -0.94902645260E+03  0.95881782665E+03  0.47000000000E+01 0. -1.
        -13    1    4    4    0    0 -0.31616488642E+01  0.71998968131E+02 -0.15676431819E+03  0.17253665956E+03  0.00000000000E+00 0.  1.
         14    1    4    4    0    0  0.33110963257E+02  0.78552869012E+01 -0.17211473469E+03  0.17544663952E+03  0.00000000000E+00 0. -1.
         -5    1    5    5    0  501 -0.11444252671E+02 -0.13258245014E+03 -0.43484292397E+03  0.45477415882E+03  0.47000000000E+01 0.  1.
         11    1    6    6    0    0  0.34775207982E+02 -0.35020474040E+02 -0.25135515361E+03  0.25615456650E+03  0.00000000000E+00 0. -1.
        -12    1    6    6    0    0 -0.19207254249E+02 -0.44528904824E+02 -0.76869105262E+03  0.77021923915E+03  0.00000000000E+00 0.  1.
</event>
<event>
12    1  0.1348628E-002  0.1962025E+03  0.7818608E-02  0.1152983E+00
          1   -1    0    0  502    0  0.00000000000E+00  0.00000000000E+00  0.28115243613E+03  0.28115243613E+03  0.00000000000E+00 0.  1.
         -1   -1    0    0    0  501 -0.00000000000E+00 -0.00000000000E+00 -0.13701519280E+03  0.13701519280E+03  0.00000000000E+00 0. -1.
          6    2    1    2  502    0  0.91523004270E+02 -0.25158280045E+02  0.77514696526E+02  0.21080918508E+03  0.17153012846E+03 0.  0.
         24    2    3    3    0    0  0.79135812662E+02 -0.19896385039E+02  0.12018151293E+03  0.16582388440E+03  0.79972630339E+02 0.  0.
         -6    2    1    2    0  501 -0.91523004270E+02  0.25158280045E+02  0.66622546795E+02  0.20735844385E+03  0.17189985785E+03 0.  0.
        -24    2    5    5    0    0 -0.64147919723E+02 -0.19784214848E+02 -0.18778911053E+02  0.10693572678E+03  0.81093966484E+02 0.  0.
          5    1    3    3  502    0  0.12387191609E+02 -0.52618950058E+01 -0.42666816406E+02  0.44985300680E+02  0.47000000000E+01 0. -1.
        -11    1    4    4    0    0  0.15970342330E+02 -0.20336945590E+02  0.93921116990E+02  0.97415704107E+02  0.00000000000E+00 0.  1.
         12    1    4    4    0    0  0.63165470332E+02  0.44056055123E+00  0.26260395942E+02  0.68408180292E+02  0.00000000000E+00 0. -1.
         -5    1    5    5    0  501 -0.27375084548E+02  0.44942494892E+02  0.85401457848E+02  0.10042271707E+03  0.47000000000E+01 0.  1.
         13    1    6    6    0    0 -0.75849271851E+02 -0.51050706835E+01  0.55304991792E+01  0.76221783029E+02  0.00000000000E+00 0. -1.
        -14    1    6    6    0    0  0.11701352128E+02 -0.14679144164E+02 -0.24309410232E+02  0.30713943753E+02  0.00000000000E+00 0.  1.
</event>
<event>
12    1  0.1348628E-002  0.1760928E+03  0.7818608E-02  0.1171639E+00
          2   -1    0    0  502    0  0.00000000000E+00  0.00000000000E+00  0.13684284901E+03  0.13684284901E+03  0.00000000000E+00 0.  1.
         -2   -1    0    0    0  501 -0.00000000000E+00 -0.00000000000E+00 -0.22963387681E+03  0.22963387681E+03  0.00000000000E+00 0. -1.
          6    2    1    2  502    0 -0.23466107299E+02  0.21393525301E+02 -0.66812221490E+02  0.18643323312E+03  0.17112900500E+03 0.  0.
         24    2    3    3    0    0  0.39427055129E+02  0.16298019734E+02  0.68832055306E+01  0.89301260931E+02  0.78148695204E+02 0.  0.
         -6    2    1    2    0  501  0.23466107299E+02 -0.21393525301E+02 -0.25978806319E+02  0.18004349270E+03  0.17530664497E+03 0.  0.
        -24    2    5    5    0    0 -0.50044148878E+02 -0.38135267475E+02 -0.13281876842E+02  0.10344489146E+03  0.81029142006E+02 0.  0.
          5    1    3    3  502    0 -0.62893162428E+02  0.50955055672E+01 -0.73695427021E+02  0.97131972187E+02  0.47000000000E+01 0. -1.
        -11    1    4    4    0    0  0.54005273320E+02  0.23210056459E+02 -0.16352228262E+02  0.61013700399E+02  0.00000000000E+00 0.  1.
         12    1    4    4    0    0 -0.14578218191E+02 -0.69120367251E+01  0.23235433793E+02  0.28287560532E+02  0.00000000000E+00 0. -1.
         -5    1    5    5    0  501  0.73510256177E+02  0.16741742173E+02 -0.12696929477E+02  0.76598601243E+02  0.47000000000E+01 0.  1.
         11    1    6    6    0    0 -0.59746812457E+02  0.21735911312E+01  0.39330696932E+00  0.59787630724E+02  0.00000000000E+00 0. -1.
        -12    1    6    6    0    0  0.97026635793E+01 -0.40308858606E+02 -0.13675183811E+02  0.43657260735E+02  0.00000000000E+00 0.  1.
</event>
<event>
12    1  0.1348628E-002  0.1934326E+03  0.7818608E-02  0.1155401E+00
         -2   -1    0    0    0  501 -0.00000000000E+00  0.00000000000E+00  0.27321668285E+02  0.27321668285E+02  0.00000000000E+00 0.  1.
          2   -1    0    0  502    0  0.00000000000E+00 -0.00000000000E+00 -0.14067787217E+04  0.14067787217E+04  0.00000000000E+00 0. -1.
          6    2    1    2  502    0 -0.33605495988E+02 -0.81845323050E+02 -0.57518910171E+03  0.60704697531E+03  0.17272967679E+03 0.  0.
         24    2    3    3    0    0 -0.60441093081E+02 -0.11409397046E+03 -0.45566311808E+03  0.48028469664E+03  0.79837039151E+02 0.  0.
         -6    2    1    2    0  501  0.33605495988E+02  0.81845323050E+02 -0.80426795169E+03  0.82705341466E+03  0.17129631146E+03 0.  0.
        -24    2    5    5    0    0 -0.23576435502E+02  0.80746995896E+02 -0.68194778419E+03  0.69194126498E+03  0.81572104150E+02 0.  0.
          5    1    3    3  502    0  0.26835597092E+02  0.32248647411E+02 -0.11952598363E+03  0.12676227868E+03  0.47000000000E+01 0. -1.
        -11    1    4    4    0    0 -0.33189740839E+01 -0.10825478450E+02 -0.19687199824E+01  0.11492712082E+02  0.00000000000E+00 0.  1.
         12    1    4    4    0    0 -0.57122118997E+02 -0.10326849201E+03 -0.45369439810E+03  0.46879198456E+03  0.00000000000E+00 0. -1.
         -5    1    5    5    0  501  0.57181931491E+02  0.10983271541E+01 -0.12232016751E+03  0.13511214968E+03  0.47000000000E+01 0.  1.
         11    1    6    6    0    0  0.29799130733E+02  0.37750189287E+02 -0.24905968101E+03  0.25366077681E+03  0.00000000000E+00 0. -1.
        -12    1    6    6    0    0 -0.53375566235E+02  0.42996806608E+02 -0.43288810317E+03  0.43828048818E+03  0.00000000000E+00 0.  1.
</event>
<event>
12    1  0.1348628E-002  0.2292991E+03  0.7818608E-02  0.1127134E+00
          1   -1    0    0  502    0  0.00000000000E+00  0.00000000000E+00  0.54152545447E+02  0.54152545447E+02  0.00000000000E+00 0.  1.
         -1   -1    0    0    0  501 -0.00000000000E+00 -0.00000000000E+00 -0.97092957488E+03  0.97092957488E+03  0.00000000000E+00 0. -1.
          6    2    1    2  502    0 -0.10439665925E+03  0.10919247048E+03 -0.45880398263E+03  0.51280452461E+03  0.17217934809E+03 0.  0.
         24    2    3    3    0    0 -0.96621606711E+02  0.14051260543E+03 -0.32112795247E+03  0.37131890139E+03  0.75332844796E+02 0.  0.
         -6    2    1    2    0  501  0.10439665925E+03 -0.10919247048E+03 -0.45797304680E+03  0.51227759572E+03  0.17282177354E+03 0.  0.
        -24    2    5    5    0    0  0.12194762843E+03 -0.80962597277E+02 -0.44692676475E+03  0.47693537441E+03  0.79357747395E+02 0.  0.
          5    1    3    3  502    0 -0.77750525384E+01 -0.31320134955E+02 -0.13767603016E+03  0.14148562322E+03  0.47000000000E+01 0. -1.
        -11    1    4    4    0    0  0.96491876896E+01  0.13686868936E+02 -0.11699515335E+02  0.20428310341E+02  0.00000000000E+00 0.  1.
         12    1    4    4    0    0 -0.10627079440E+03  0.12682573650E+03 -0.30942843714E+03  0.35089059105E+03  0.00000000000E+00 0. -1.
         -5    1    5    5    0  501 -0.17550969186E+02 -0.28229873200E+02 -0.11046282053E+02  0.35342221315E+02  0.47000000000E+01 0.  1.
         13    1    6    6    0    0  0.12259399238E+03 -0.85936269261E+02 -0.36034848985E+03  0.39021194687E+03  0.00000000000E+00 0. -1.
        -14    1    6    6    0    0 -0.64636394229E+00  0.49736719843E+01 -0.86578274897E+02  0.86723427535E+02  0.00000000000E+00 0.  1.
</event>
<event>
12    1  0.1348628E-002  0.1945132E+03  0.7818608E-02  0.1154453E+00
         -2   -1    0    0    0  501 -0.00000000000E+00  0.00000000000E+00  0.15967697294E+03  0.15967697294E+03  0.00000000000E+00 0.  1.
          2   -1    0    0  502    0  0.00000000000E+00 -0.00000000000E+00 -0.34962646248E+03  0.34962646248E+03  0.00000000000E+00 0. -1.
          6    2    1    2  502    0  0.22861271903E+02 -0.90870239311E+02  0.50232830901E+02  0.19896148889E+03  0.16817341828E+03 0.  0.
         24    2    3    3    0    0  0.12448368869E+02 -0.11254282600E+03  0.79806224432E+02  0.16055829673E+03  0.81173170559E+02 0.  0.
         -6    2    1    2    0  501 -0.22861271903E+02  0.90870239311E+02 -0.24018232043E+03  0.31034194653E+03  0.17275571938E+03 0.  0.
        -24    2    5    5    0    0  0.18552121655E+02  0.10687095776E+03 -0.22819916227E+03  0.26411664787E+03  0.76923099188E+02 0.  0.
          5    1    3    3  502    0  0.10412903034E+02  0.21672586690E+02 -0.29573393531E+02  0.38403192164E+02  0.47000000000E+01 0. -1.
        -11    1    4    4    0    0  0.39728995167E+02 -0.81941631219E+02  0.29630496747E+02  0.95764243438E+02  0.00000000000E+00 0.  1.
         12    1    4    4    0    0 -0.27280626297E+02 -0.30601194783E+02  0.50175727684E+02  0.64794053291E+02  0.00000000000E+00 0. -1.
         -5    1    5    5    0  501 -0.41413393558E+02 -0.16000718447E+02 -0.11983158163E+02  0.46225298662E+02  0.47000000000E+01 0.  1.
         11    1    6    6    0    0  0.20297362405E+02  0.87738747014E+01 -0.10144601968E+03  0.10382802467E+03  0.00000000000E+00 0. -1.
        -12    1    6    6    0    0 -0.17452407507E+01  0.98097083057E+02 -0.12675314259E+03  0.16028862320E+03  0.00000000000E+00 0.  1.
</event>
<event>
12    1  0.1348628E-002  0.2110489E+03  0.7818608E-02  0.1140738E+00
          4   -1    0    0  502    0  0.00000000000E+00  0.00000000000E+00  0.31168112524E+03  0.31168112524E+03  0.00000000000E+00 0.  1.
         -4   -1    0    0    0  501 -0.00000000000E+00 -0.00000000000E+00 -0.20830587617E+03  0.20830587617E+03  0.00000000000E+00 0. -1.
          6    2    1    2  502    0  0.72854794220E+02 -0.98115149548E+02 -0.94070475332E+02  0.23062502642E+03  0.17147665984E+03 0.  0.
         24    2    3    3    0    0  0.17954953713E+02 -0.31981485184E+02  0.12490022429E+02  0.93640050114E+02  0.85248240848E+02 0.  0.
         -6    2    1    2    0  501 -0.72854794220E+02  0.98115149548E+02  0.19744572440E+03  0.28936197499E+03  0.17265901329E+03 0.  0.
        -24    2    5    5    0    0 -0.84545929827E+01 -0.10255176996E+02  0.11213307510E+03  0.13707326324E+03  0.77708456205E+02 0.  0.
          5    1    3    3  502    0  0.54899840507E+02 -0.66133664364E+02 -0.10656049776E+03  0.13698497630E+03  0.47000000000E+01 0. -1.
        -13    1    4    4    0    0 -0.29277766453E+02  0.51187780250E+01 -0.69264426762E+01  0.30518274936E+02  0.00000000000E+00 0.  1.
         14    1    4    4    0    0  0.47232720166E+02 -0.37100263209E+02  0.19416465105E+02  0.63121775178E+02  0.00000000000E+00 0. -1.
         -5    1    5    5    0  501 -0.64400201237E+02  0.10837032654E+03  0.85312649307E+02  0.15228871175E+03  0.47000000000E+01 0.  1.
         11    1    6    6    0    0  0.31314416082E+02 -0.10329178375E+02  0.77930827679E+02  0.84619728688E+02  0.00000000000E+00 0. -1.
        -12    1    6    6    0    0 -0.39769009065E+02  0.74001379289E-01  0.34202247418E+02  0.52453534548E+02  0.00000000000E+00 0.  1.
</event>
<event>
12    1  0.1348628E-002  0.1931879E+03  0.7818608E-02  0.1155617E+00
          2   -1    0    0  502    0  0.00000000000E+00  0.00000000000E+00  0.43592927919E+03  0.43592927919E+03  0.00000000000E+00 0. -1.
         -2   -1    0    0    0  501 -0.00000000000E+00 -0.00000000000E+00 -0.92953244361E+02  0.92953244361E+02  0.00000000000E+00 0.  1.
          6    2    1    2  502    0  0.24352637384E+02  0.87598154231E+02  0.98627628724E+02  0.21845096297E+03  0.17241498340E+03 0.  0.
         24    2    3    3    0    0  0.16296313637E+02  0.12878728808E+03  0.73923821846E+02  0.16952431201E+03  0.80137541261E+02 0.  0.
         -6    2    1    2    0  501 -0.24352637384E+02 -0.87598154231E+02  0.24434840610E+03  0.31043156058E+03  0.16850852402E+03 0.  0.
        -24    2    5    5    0    0 -0.53679823697E+02 -0.31504047489E+01  0.92074911166E+02  0.13379404047E+03  0.80818361016E+02 0.  0.
          5    1    3    3  502    0  0.80563237467E+01 -0.41189133846E+02  0.24703806878E+02  0.48926650954E+02  0.47000000000E+01 0. -1.
        -11    1    4    4    0    0  0.48892565093E+02  0.83096314977E+02  0.45470562764E+02  0.10659761987E+03  0.00000000000E+00 0.  1.
         12    1    4    4    0    0 -0.32596251456E+02  0.45690973100E+02  0.28453259082E+02  0.62926692144E+02  0.00000000000E+00 0. -1.
         -5    1    5    5    0  501  0.29327186314E+02 -0.84447749482E+02  0.15227349494E+03  0.17663752011E+03  0.47000000000E+01 0.  1.
         13    1    6    6    0    0 -0.66905792169E+01 -0.37983639119E+02  0.37609798243E+02  0.53870377898E+02  0.00000000000E+00 0. -1.
        -14    1    6    6    0    0 -0.46989244481E+02  0.34833234370E+02  0.54465112922E+02  0.79923662574E+02  0.00000000000E+00 0.  1.
</event>
<event>
12    1  0.1348628E-002  0.1994889E+03  0.7818608E-02  0.1150171E+00
          1   -1    0    0  502    0  0.00000000000E+00  0.00000000000E+00  0.38936018271E+03  0.38936018271E+03  0.00000000000E+00 0. -1.
         -1   -1    0    0    0  501 -0.00000000000E+00 -0.00000000000E+00 -0.10636267181E+03  0.10636267181E+03  0.00000000000E+00 0.  1.
          6    2    1    2  502    0  0.67315486659E+02  0.77974682783E+02  0.18982141417E+03  0.27468156766E+03  0.16972438963E+03 0.  0.
         24    2    3    3    0    0  0.32336564267E+02 -0.24661698676E+02  0.87191609127E+02  0.12530714316E+03  0.80284809615E+02 0.  0.
         -6    2    1    2    0  501 -0.67315486659E+02 -0.77974682783E+02  0.93176096734E+02  0.22104128686E+03  0.17194778159E+03 0.  0.
        -24    2    5    5    0    0 -0.66854696141E+02 -0.11498954692E+03  0.98467771653E+02  0.18335303513E+03  0.78932167969E+02 0.  0.
          5    1    3    3  502    0  0.34978922393E+02  0.10263638146E+03  0.10262980504E+03  0.14937442449E+03  0.47000000000E+01 0. -1.
        -13    1    4    4    0    0  0.40272435103E+02  0.12841835436E+02  0.17462103327E+02  0.45735181416E+02  0.00000000000E+00 0.  1.
         14    1    4    4    0    0 -0.79358708367E+01 -0.37503534113E+02  0.69729505800E+02  0.79571961745E+02  0.00000000000E+00 0. -1.
         -5    1    5    5    0  501 -0.46079051850E+00  0.37014864135E+02 -0.52916749187E+01  0.37688251728E+02  0.47000000000E+01 0.  1.
         13    1    6    6    0    0 -0.44241295535E+02 -0.72816593599E+02  0.10481941641E+03  0.13508019318E+03  0.00000000000E+00 0. -1.
        -14    1    6    6    0    0 -0.22613400606E+02 -0.42172953320E+02 -0.63516447541E+01  0.48272841948E+02  0.00000000000E+00 0.  1.
</event>
<event>
12    1  0.1348628E-002  0.1828226E+03  0.7818608E-02  0.1165099E+00
          2   -1    0    0  502    0  0.00000000000E+00  0.00000000000E+00  0.16432526748E+04  0.16432526748E+04  0.00000000000E+00 0.  1.
         -2   -1    0    0    0  501 -0.00000000000E+00 -0.00000000000E+00 -0.21692964304E+02  0.21692964304E+02  0.00000000000E+00 0. -1.
          6    2    1    2  502    0 -0.33501019245E+02 -0.51517762627E+02  0.10215329319E+04  0.10378868513E+04  0.17292538013E+03 0.  0.
         24    2    3    3    0    0 -0.14033406630E+02 -0.59833832891E+02  0.10063677920E+04  0.10114252483E+04  0.80174036644E+02 0.  0.
         -6    2    1    2    0  501  0.33501019245E+02  0.51517762627E+02  0.60002677865E+03  0.62705878781E+03  0.17144733919E+03 0.  0.
        -24    2    5    5    0    0  0.51146098767E+02 -0.34069713371E+02  0.19278548205E+03  0.21052052002E+03  0.58103170913E+02 0.  0.
          5    1    3    3  502    0 -0.19467612615E+02  0.83160702640E+01  0.15165139903E+02  0.26461603010E+02  0.47000000000E+01 0. -1.
        -13    1    4    4    0    0 -0.64448238111E-01 -0.74949939790E+02  0.62072117942E+03  0.62522978193E+03  0.00000000000E+00 0.  1.
         14    1    4    4    0    0 -0.13968958392E+02  0.15116106899E+02  0.38564661253E+03  0.38619546637E+03  0.00000000000E+00 0. -1.
         -5    1    5    5    0  501 -0.17645079521E+02  0.85587475998E+02  0.40724129660E+03  0.41653826779E+03  0.47000000000E+01 0.  1.
         11    1    6    6    0    0  0.40129978855E+02 -0.66851891571E+01  0.48767816289E+02  0.63509108500E+02  0.00000000000E+00 0. -1.
        -12    1    6    6    0    0  0.11016119912E+02 -0.27384524214E+02  0.14401766576E+03  0.14701141152E+03  0.00000000000E+00 0.  1.
</event>
<event>
12    1  0.1348628E-002  0.2306342E+03  0.7818608E-02  0.1126194E+00
         -2   -1    0    0    0  501 -0.00000000000E+00  0.00000000000E+00  0.29297380154E+02  0.29297380154E+02  0.00000000000E+00 0. -1.
          2   -1    0    0  502    0  0.00000000000E+00 -0.00000000000E+00 -0.18215701762E+04  0.18215701762E+04  0.00000000000E+00 0.  1.
          6    2    1    2  502    0 -0.10579992586E+03  0.10952925117E+03 -0.95072795956E+03  0.97840073181E+03  0.17376437420E+03 0.  0.
         24    2    3    3    0    0 -0.48596621703E+02  0.37863940866E+02 -0.76115985277E+03  0.76776765791E+03  0.79420056728E+02 0.  0.
         -6    2    1    2    0  501  0.10579992586E+03 -0.10952925117E+03 -0.84154483648E+03  0.87246682454E+03  0.17265678946E+03 0.  0.
        -24    2    5    5    0    0  0.86267619072E+02  0.33504778536E+01 -0.43261168940E+03  0.44776486667E+03  0.76727923358E+02 0.  0.
          5    1    3    3  502    0 -0.57203304153E+02  0.71665310300E+02 -0.18956810680E+03  0.21063307390E+03  0.47000000000E+01 0. -1.
        -13    1    4    4    0    0 -0.23091208007E+02  0.60008827014E+02 -0.57339663846E+03  0.57699044031E+03  0.00000000000E+00 0.  1.
         14    1    4    4    0    0 -0.25505413696E+02 -0.22144886147E+02 -0.18776321430E+03  0.19077721760E+03  0.00000000000E+00 0. -1.
         -5    1    5    5    0  501  0.19532306784E+02 -0.11287972902E+03 -0.40893314708E+03  0.42470195787E+03  0.47000000000E+01 0.  1.
         13    1    6    6    0    0  0.81060645422E+02 -0.21797802924E+02 -0.25896647311E+03  0.27223079665E+03  0.00000000000E+00 0. -1.
        -14    1    6    6    0    0  0.52069736503E+01  0.25148280778E+02 -0.17364521629E+03  0.17553407003E+03  0.00000000000E+00 0.  1.
</event>
<event>
12    1  0.1348628E-002  0.2147646E+03  0.7818608E-02  0.1137848E+00
          1   -1    0    0  502    0  0.00000000000E+00  0.00000000000E+00  0.10079786218E+04  0.10079786218E+04  0.00000000000E+00 0.  1.
         -1   -1    0    0    0  501 -0.00000000000E+00 -0.00000000000E+00 -0.60049361098E+02  0.60049361098E+02  0.00000000000E+00 0. -1.
          6    2    1    2  502    0  0.10252640471E+03  0.78778527919E+02  0.73662796828E+03  0.76766061493E+03  0.17310209690E+03 0.  0.
         24    2    3    3    0    0  0.12455534600E+03  0.13921480933E+02  0.49351862800E+03  0.51504242056E+03  0.77461067298E+02 0.  0.
         -6    2    1    2    0  501 -0.10252640471E+03 -0.78778527919E+02  0.21130129239E+03  0.30036736793E+03  0.16986641642E+03 0.  0.
        -24    2    5    5    0    0 -0.46876107530E+02  0.27993261142E+02  0.93258384356E+02  0.13168604516E+03  0.75253545497E+02 0.  0.
          5    1    3    3  502    0 -0.22028941291E+02  0.64857046986E+02  0.24310934028E+03  0.25261819437E+03  0.47000000000E+01 0. -1.
        -11    1    4    4    0    0  0.10057942306E+03 -0.23021379138E+02  0.35504543270E+03  0.36973431478E+03  0.00000000000E+00 0.  1.
         12    1    4    4    0    0  0.23975922941E+02  0.36942860071E+02  0.13847319529E+03  0.14530810578E+03  0.00000000000E+00 0. -1.
         -5    1    5    5    0  501 -0.55650297176E+02 -0.10677178906E+03  0.11804290803E+03  0.16868132277E+03  0.47000000000E+01 0.  1.
         13    1    6    6    0    0  0.14526508204E+02 -0.11425105000E+02  0.10124760590E+02  0.21072808115E+02  0.00000000000E+00 0. -1.
        -14    1    6    6    0    0 -0.61402615733E+02  0.39418366142E+02  0.83133623766E+02  0.11061323704E+03  0.00000000000E+00 0.  1.
</event>
<event>
12    1  0.1348628E-002  0.2896265E+03  0.7818608E-02  0.1090544E+00
          2   -1    0    0  502    0  0.00000000000E+00  0.00000000000E+00  0.14511228002E+04  0.14511228002E+04  0.00000000000E+00 0.  1.
         -2   -1    0    0    0  501 -0.00000000000E+00 -0.00000000000E+00 -0.57884571758E+02  0.57884571758E+02  0.00000000000E+00 0. -1.
          6    2    1    2  502    0 -0.23270666572E+03 -0.10949054667E+02  0.66831074884E+03  0.72828631241E+03  0.17172484314E+03 0.  0.
         24    2    3    3    0    0 -0.17973858160E+03 -0.46978550834E+01  0.63596739310E+03  0.66573331015E+03  0.80114215913E+02 0.  0.
         -6    2    1    2    0  501  0.23270666572E+03  0.10949054667E+02  0.72492747963E+03  0.78072105958E+03  0.17243331489E+03 0.  0.
        -24    2    5    5    0    0  0.27537232945E+02  0.62959931102E+01  0.19502937264E+03  0.21245154525E+03  0.79380502387E+02 0.  0.
          5    1    3    3  502    0 -0.52968084117E+02 -0.62511995833E+01  0.32343355742E+02  0.62553002262E+02  0.47000000000E+01 0. -1.
        -11    1    4    4    0    0 -0.18703137036E+02 -0.21681088864E+02  0.17089193320E+03  0.17327414631E+03  0.00000000000E+00 0.  1.
         12    1    4    4    0    0 -0.16103544457E+03  0.16983233780E+02  0.46507545991E+03  0.49245916383E+03  0.00000000000E+00 0. -1.
         -5    1    5    5    0  501  0.20516943277E+03  0.46530615565E+01  0.52989810699E+03  0.56826951433E+03  0.47000000000E+01 0.  1.
         11    1    6    6    0    0  0.41900951960E+02 -0.25471216391E+02  0.12348562525E+03  0.13286524107E+03  0.00000000000E+00 0. -1.
        -12    1    6    6    0    0 -0.14363719015E+02  0.31767209501E+02  0.71543747385E+02  0.79586304182E+02  0.00000000000E+00 0.  1.
</event>
<event>
12    1  0.1348628E-002  0.3009898E+03  0.7818608E-02  0.1084747E+00
          2   -1    0    0  502    0  0.00000000000E+00  0.00000000000E+00  0.11198982359E+04  0.11198982359E+04  0.00000000000E+00 0.  1.
         -2   -1    0    0    0  501 -0.00000000000E+00 -0.00000000000E+00 -0.83531933393E+02  0.83531933393E+02  0.00000000000E+00 0. -1.
          6    2    1    2  502    0 -0.59691884736E+01 -0.24737001492E+03  0.41189887627E+03  0.51036846887E+03  0.17201085503E+03 0.  0.
         24    2    3    3    0    0  0.23333680494E+02 -0.23474032271E+03  0.28062280743E+03  0.37518835382E+03  0.79810156231E+02 0.  0.
         -6    2    1    2    0  501  0.59691884736E+01  0.24737001492E+03  0.62446742619E+03  0.69306170038E+03  0.17072609254E+03 0.  0.
        -24    2    5    5    0    0 -0.31873362911E+02  0.99508668906E+02  0.40461643881E+03  0.42538356718E+03  0.79491070100E+02 0.  0.
          5    1    3    3  502    0 -0.29302868967E+02 -0.12629692208E+02  0.13127606884E+03  0.13518011505E+03  0.47000000000E+01 0. -1.
        -13    1    4    4    0    0 -0.22459277343E+02 -0.65035164195E+02  0.49224657725E+02  0.84599400995E+02  0.00000000000E+00 0.  1.
         14    1    4    4    0    0  0.45792957837E+02 -0.16970515851E+03  0.23139814971E+03  0.29058895282E+03  0.00000000000E+00 0. -1.
         -5    1    5    5    0  501  0.37842551385E+02  0.14786134601E+03  0.21985098739E+03  0.26767813320E+03  0.47000000000E+01 0.  1.
         11    1    6    6    0    0 -0.46371411532E+02  0.20422360534E+02  0.16841844735E+03  0.17587539346E+03  0.00000000000E+00 0. -1.
        -12    1    6    6    0    0  0.14498048621E+02  0.79086308372E+02  0.23619799146E+03  0.24950817372E+03  0.00000000000E+00 0.  1.
</event>
<event>
12    1  0.1348628E-002  0.2847804E+03  0.7818608E-02  0.1093106E+00
          2   -1    0    0  502    0  0.00000000000E+00  0.00000000000E+00  0.18278072127E+04  0.18278072127E+04  0.00000000000E+00 0.  1.
         -2   -1    0    0    0  501 -0.00000000000E+00 -0.00000000000E+00 -0.12914491715E+03  0.12914491715E+03  0.00000000000E+00 0. -1.
          6    2    1    2  502    0 -0.13482868673E+03 -0.18268017818E+03  0.16421149210E+04  0.16666286327E+04  0.17192662198E+03 0.  0.
         24    2    3    3    0    0 -0.13963104308E+03 -0.88518406193E+02  0.90627135718E+03  0.92475442347E+03  0.80688502595E+02 0.  0.
         -6    2    1    2    0  501  0.13482868673E+03  0.18268017818E+03  0.56547374558E+02  0.29032349713E+03  0.17187002401E+03 0.  0.
        -24    2    5    5    0    0  0.14979191270E+03  0.93818226107E+02  0.27296733923E+02  0.19546552628E+03  0.78880819098E+02 0.  0.
          5    1    3    3  502    0  0.48023563480E+01 -0.94161771985E+02  0.73584356384E+03  0.74187420926E+03  0.47000000000E+01 0. -1.
        -11    1    4    4    0    0 -0.77446724182E+02 -0.68402860361E+02  0.71941740136E+03  0.72680007139E+03  0.00000000000E+00 0.  1.
         12    1    4    4    0    0 -0.62184318901E+02 -0.20115545832E+02  0.18685395582E+03  0.19795435208E+03  0.00000000000E+00 0. -1.
         -5    1    5    5    0  501 -0.14963225964E+02  0.88861952071E+02  0.29250640635E+02  0.94857970855E+02  0.47000000000E+01 0.  1.
         11    1    6    6    0    0  0.11775591519E+02  0.21649887147E+02  0.31090225068E+02  0.39673470530E+02  0.00000000000E+00 0. -1.
        -12    1    6    6    0    0  0.13801632118E+03  0.72168338960E+02 -0.37934911446E+01  0.15579205575E+03  0.00000000000E+00 0.  1.
</event>
<event>
12    1  0.1348628E-002  0.1943656E+03  0.7818608E-02  0.1154582E+00
          1   -1    0    0  502    0  0.00000000000E+00  0.00000000000E+00  0.55457761805E+03  0.55457761805E+03  0.00000000000E+00 0. -1.
         -1   -1    0    0    0  501 -0.00000000000E+00 -0.00000000000E+00 -0.73133597771E+02  0.73133597771E+02  0.00000000000E+00 0.  1.
          6    2    1    2  502    0  0.69603981859E+02 -0.48936037047E+02  0.32013630762E+03  0.37332932447E+03  0.17218617550E+03 0.  0.
         24    2    3    3    0    0  0.87531813509E+02 -0.76825321296E+02  0.17581335177E+03  0.22517256657E+03  0.78920223685E+02 0.  0.
         -6    2    1    2    0  501 -0.69603981859E+02  0.48936037047E+02  0.16130771265E+03  0.25438189135E+03  0.17734294030E+03 0.  0.
        -24    2    5    5    0    0 -0.76633976015E+02  0.21383437280E+02  0.18233076361E+03  0.21870801795E+03  0.90877236362E+02 0.  0.
          5    1    3    3  502    0 -0.17927831650E+02  0.27889284249E+02  0.14432295586E+03  0.14815675790E+03  0.47000000000E+01 0. -1.
        -13    1    4    4    0    0  0.45169244370E+02  0.58543554139E+01  0.39955200653E+02  0.60588383157E+02  0.00000000000E+00 0.  1.
         14    1    4    4    0    0  0.42362569139E+02 -0.82679676709E+02  0.13585815111E+03  0.16458418341E+03  0.00000000000E+00 0. -1.
         -5    1    5    5    0  501  0.70299941563E+01  0.27552599767E+02 -0.21023050958E+02  0.35673873400E+02  0.47000000000E+01 0.  1.
         11    1    6    6    0    0 -0.78770027097E+02  0.28819329693E+02  0.79433621758E+02  0.11552043628E+03  0.00000000000E+00 0. -1.
        -12    1    6    6    0    0  0.21360510816E+01 -0.74358924135E+01  0.10289714185E+03  0.10318758167E+03  0.00000000000E+00 0.  1.
</event>
<event>
12    1  0.1348628E-002  0.2097720E+03  0.7818608E-02  0.1141747E+00
          2   -1    0    0  502    0  0.00000000000E+00  0.00000000000E+00  0.41024904607E+04  0.41024904607E+04  0.00000000000E+00 0. -1.
         -2   -1    0    0    0  501 -0.00000000000E+00 -0.00000000000E+00 -0.11584864842E+02  0.11584864842E+02  0.00000000000E+00 0.  1.
          6    2    1    2  502    0  0.11991071360E+03 -0.15635346580E+02  0.14797051177E+04  0.14944110109E+04  0.17062822363E+03 0.  0.
         24    2    3    3    0    0  0.65306225052E+02 -0.19949517539E+02  0.41239632995E+03  0.42568728572E+03  0.80473883886E+02 0.  0.
         -6    2    1    2    0  501 -0.11991071360E+03  0.15635346580E+02  0.26112004781E+04  0.26196643146E+04  0.17219216372E+03 0.  0.
        -24    2    5    5    0    0 -0.37879675294E+00 -0.14266274580E+02  0.13248914117E+04  0.13274588006E+04  0.81276961844E+02 0.  0.
          5    1    3    3  502    0  0.54604488551E+02  0.43141709588E+01  0.10673087878E+04  0.10687237252E+04  0.47000000000E+01 0. -1.
        -11    1    4    4    0    0  0.59044444518E+02  0.18111142828E+02  0.31369252796E+03  0.31971434441E+03  0.00000000000E+00 0.  1.
         12    1    4    4    0    0  0.62617805348E+01 -0.38060660367E+02  0.98703801991E+02  0.10597294131E+03  0.00000000000E+00 0. -1.
         -5    1    5    5    0  501 -0.11953191685E+03  0.29901621160E+02  0.12863090664E+04  0.12922055140E+04  0.47000000000E+01 0.  1.
         11    1    6    6    0    0 -0.11861617201E+02  0.27244220163E+02  0.87653169613E+03  0.87703521013E+03  0.00000000000E+00 0. -1.
        -12    1    6    6    0    0  0.11482820448E+02 -0.41510494743E+02  0.44835971556E+03  0.45042359050E+03  0.00000000000E+00 0.  1.
</event>
<event>
12    1  0.1348628E-002  0.1767721E+03  0.7818608E-02  0.1170964E+00
          4   -1    0    0  502    0  0.00000000000E+00  0.00000000000E+00  0.90287026044E+02  0.90287026044E+02  0.00000000000E+00 0.  1.
         -4   -1    0    0    0  501 -0.00000000000E+00 -0.00000000000E+00 -0.79942365139E+03  0.79942365139E+03  0.00000000000E+00 0. -1.
          6    2    1    2  502    0  0.31000623200E+02  0.22254261096E+02 -0.19501847841E+02  0.17775918975E+03  0.17251584476E+03 0.  0.
         24    2    3    3    0    0  0.72785724792E+02  0.55846886067E+02 -0.25223820362E+02  0.12363627282E+03  0.78949670202E+02 0.  0.
         -6    2    1    2    0  501 -0.31000623200E+02 -0.22254261096E+02 -0.68963477750E+03  0.71195148768E+03  0.17269193294E+03 0.  0.
        -24    2    5    5    0    0 -0.41499672082E+01 -0.77516783656E+02 -0.36540904311E+03  0.38192221479E+03  0.79465309329E+02 0.  0.
          5    1    3    3  502    0 -0.41785101592E+02 -0.33592624971E+02  0.57219725211E+01  0.54122916930E+02  0.47000000000E+01 0. -1.
        -11    1    4    4    0    0  0.83261959846E+01  0.30333547106E+02  0.23189739815E+02  0.39079581015E+02  0.00000000000E+00 0.  1.
         12    1    4    4    0    0  0.64459528808E+02  0.25513338961E+02 -0.48413560178E+02  0.84556691800E+02  0.00000000000E+00 0. -1.
         -5    1    5    5    0  501 -0.26850655992E+02  0.55262522560E+02 -0.32422573439E+03  0.33002927290E+03  0.47000000000E+01 0.  1.
         11    1    6    6    0    0 -0.21857989885E+02 -0.28922897888E+02 -0.27803168363E+03  0.28038531139E+03  0.00000000000E+00 0. -1.
        -12    1    6    6    0    0  0.17708022677E+02 -0.48593885769E+02 -0.87377359482E+02  0.10153690340E+03  0.00000000000E+00 0.  1.
</event>
<event>
12    1  0.1348628E-002  0.2582136E+03  0.7818608E-02  0.1108221E+00
          1   -1    0    0  502    0  0.00000000000E+00  0.00000000000E+00  0.23900092704E+03  0.23900092704E+03  0.00000000000E+00 0.  1.
         -1   -1    0    0    0  501 -0.00000000000E+00 -0.00000000000E+00 -0.46520679371E+03  0.46520679371E+03  0.00000000000E+00 0. -1.
          6    2    1    2  502    0  0.17377958351E+03 -0.75411217643E+02  0.10887167584E+03  0.28296908401E+03  0.17981174965E+03 0.  0.
         24    2    3    3    0    0  0.15189476777E+03 -0.12072310054E+03  0.68508338619E+02  0.21828986878E+03  0.72876517959E+02 0.  0.
         -6    2    1    2    0  501 -0.17377958351E+03  0.75411217643E+02 -0.33507754252E+03  0.42123863674E+03  0.17111059053E+03 0.  0.
        -24    2    5    5    0    0 -0.19613458717E+02  0.58002363256E+02 -0.14348255623E+03  0.17466006708E+03  0.78548922232E+02 0.  0.
          5    1    3    3  502    0  0.21884815736E+02  0.45311882895E+02  0.40363337226E+02  0.64679215234E+02  0.47000000000E+01 0. -1.
        -11    1    4    4    0    0  0.12904763019E+03 -0.91648334017E+02  0.82820628352E+02  0.17863920193E+03  0.00000000000E+00 0.  1.
         12    1    4    4    0    0  0.22847137584E+02 -0.29074766520E+02 -0.14312289733E+02  0.39650666847E+02  0.00000000000E+00 0. -1.
         -5    1    5    5    0  501 -0.15416612479E+03  0.17408854387E+02 -0.19159498630E+03  0.24657856967E+03  0.47000000000E+01 0.  1.
         11    1    6    6    0    0  0.53823622424E+01  0.19240963632E+02 -0.12227387508E+03  0.12389546009E+03  0.00000000000E+00 0. -1.
        -12    1    6    6    0    0 -0.24995820959E+02  0.38761399624E+02 -0.21208681148E+02  0.50764606984E+02  0.00000000000E+00 0.  1.
</event>
<event>
12    1  0.1348628E-002  0.1765481E+03  0.7818608E-02  0.1171186E+00
         -1   -1    0    0    0  501 -0.00000000000E+00  0.00000000000E+00  0.85630519716E+02  0.85630519716E+02  0.00000000000E+00 0.  1.
          1   -1    0    0  502    0  0.00000000000E+00 -0.00000000000E+00 -0.37258169003E+03  0.37258169003E+03  0.00000000000E+00 0. -1.
          6    2    1    2  502    0  0.30496927049E+02 -0.30269919927E+02 -0.10914113943E+03  0.20802683273E+03  0.17180525081E+03 0.  0.
         24    2    3    3    0    0  0.73242308782E+02 -0.27408341354E+02 -0.30506892524E+02  0.11835637450E+03  0.83438048409E+02 0.  0.
         -6    2    1    2    0  501 -0.30496927049E+02  0.30269919927E+02 -0.17781003088E+03  0.25018537702E+03  0.17067508658E+03 0.  0.
        -24    2    5    5    0    0 -0.43627623289E+02  0.81741838309E+02 -0.12877726485E+03  0.17774177336E+03  0.80146468495E+02 0.  0.
          5    1    3    3  502    0 -0.42745381733E+02 -0.28615785733E+01 -0.78634246909E+02  0.89670458226E+02  0.47000000000E+01 0. -1.
        -13    1    4    4    0    0 -0.76793494236E+01 -0.28803816685E+02 -0.21851734304E+02  0.36961203380E+02  0.00000000000E+00 0.  1.
         14    1    4    4    0    0  0.80921658206E+02  0.13954753315E+01 -0.86551582194E+01  0.81395171122E+02  0.00000000000E+00 0. -1.
         -5    1    5    5    0  501  0.13130696241E+02 -0.51471918382E+02 -0.49032766034E+02  0.72443603655E+02  0.47000000000E+01 0.  1.
         13    1    6    6    0    0  0.21824673019E+02  0.83706686144E+01 -0.33338907953E+02  0.40716915759E+02  0.00000000000E+00 0. -1.
        -14    1    6    6    0    0 -0.65452296308E+02  0.73371169694E+02 -0.95438356893E+02  0.13702485760E+03  0.00000000000E+00 0.  1.
</event>
<event>
12    1  0.1348628E-002  0.2378126E+03  0.7818608E-02  0.1121259E+00
          1   -1    0    0  502    0  0.00000000000E+00  0.00000000000E+00  0.16234675835E+04  0.16234675835E+04  0.00000000000E+00 0.  1.
         -1   -1    0    0    0  501 -0.00000000000E+00 -0.00000000000E+00 -0.35205689495E+02  0.35205689495E+02  0.00000000000E+00 0. -1.
          6    2    1    2  502    0  0.13627057948E+03  0.90570320205E+02  0.87834081550E+03  0.90990310075E+03  0.17224520558E+03 0.  0.
         24    2    3    3    0    0  0.13670805257E+03  0.78847762610E+02  0.87955505797E+03  0.89720766361E+03  0.80364359790E+02 0.  0.
         -6    2    1    2    0  501 -0.13627057948E+03 -0.90570320205E+02  0.70992107852E+03  0.74877017226E+03  0.17290511677E+03 0.  0.
        -24    2    5    5    0    0 -0.40268073360E+02 -0.10502250670E+03  0.46966452871E+03  0.48959716710E+03  0.80432405533E+02 0.  0.
          5    1    3    3  502    0 -0.43747308547E+00  0.11722557595E+02 -0.12142424796E+01  0.12695437136E+02  0.47000000000E+01 0. -1.
        -11    1    4    4    0    0 -0.53131573692E+01 -0.11249998014E+00  0.38713923643E+01  0.65749506700E+01  0.00000000000E+00 0.  1.
         12    1    4    4    0    0  0.14202120994E+03  0.78960262590E+02  0.87568366561E+03  0.89063271294E+03  0.00000000000E+00 0. -1.
         -5    1    5    5    0  501 -0.96002506122E+02  0.14452186494E+02  0.24025654981E+03  0.25917300516E+03  0.47000000000E+01 0.  1.
         13    1    6    6    0    0  0.61669949097E+01 -0.65436028722E+02  0.14434394594E+03  0.15860353215E+03  0.00000000000E+00 0. -1.
        -14    1    6    6    0    0 -0.46435068270E+02 -0.39586477976E+02  0.32532058277E+03  0.33099363495E+03  0.00000000000E+00 0.  1.
</event>
<event>
12    1  0.1348628E-002  0.1802100E+03  0.7818608E-02  0.1167600E+00
         -3   -1    0    0    0  501 -0.00000000000E+00  0.00000000000E+00  0.31198561900E+03  0.31198561900E+03  0.00000000000E+00 0. -1.
          3   -1    0    0  502    0  0.00000000000E+00 -0.00000000000E+00 -0.11159810968E+03  0.11159810968E+03  0.00000000000E+00 0.  1.
          6    2    1    2  502    0  0.48843080829E+02  0.11535724681E+02  0.45620810130E+02  0.18653840131E+03  0.17377168169E+03 0.  0.
         24    2    3    3    0    0  0.97157438675E+02  0.10966343060E+02  0.10042955008E+02  0.12635139985E+03  0.79397649392E+02 0.  0.
         -6    2    1    2    0  501 -0.48843080829E+02 -0.11535724681E+02  0.15476669919E+03  0.23704532737E+03  0.17239210122E+03 0.  0.
        -24    2    5    5    0    0 -0.66649637004E+02 -0.41139462185E+02  0.41665533542E+02  0.11869238745E+03  0.78849455877E+02 0.  0.
          5    1    3    3  502    0 -0.48314357846E+02  0.56938162120E+00  0.35577855122E+02  0.60187001459E+02  0.47000000000E+01 0. -1.
        -13    1    4    4    0    0  0.55210294171E+02  0.32894566965E+02  0.34641007645E+02  0.73008414096E+02  0.00000000000E+00 0.  1.
         14    1    4    4    0    0  0.41947144505E+02 -0.21928223904E+02 -0.24598052637E+02  0.53342985755E+02  0.00000000000E+00 0. -1.
         -5    1    5    5    0  501  0.17806556175E+02  0.29603737503E+02  0.11310116565E+03  0.11835293992E+03  0.47000000000E+01 0.  1.
         11    1    6    6    0    0  0.15879044787E+02 -0.18777893715E+02  0.16305520292E+02  0.29506327248E+02  0.00000000000E+00 0. -1.
        -12    1    6    6    0    0 -0.82528681791E+02 -0.22361568470E+02  0.25360013250E+02  0.89186060203E+02  0.00000000000E+00 0.  1.
</event>
<event>
12    1  0.1348628E-002  0.1928614E+03  0.7818608E-02  0.1155906E+00
         -2   -1    0    0    0  501 -0.00000000000E+00  0.00000000000E+00  0.20720647011E+03  0.20720647011E+03  0.00000000000E+00 0.  1.
          2   -1    0    0  502    0  0.00000000000E+00 -0.00000000000E+00 -0.32394853417E+03  0.32394853417E+03  0.00000000000E+00 0. -1.
          6    2    1    2  502    0 -0.92086085241E+02 -0.35593945611E+02  0.11835337422E+03  0.22917240900E+03  0.16960452765E+03 0.  0.
         24    2    3    3    0    0 -0.55412941317E+02  0.42963258919E+02  0.10131534786E+03  0.14069338205E+03  0.67921957844E+02 0.  0.
         -6    2    1    2    0  501  0.92086085241E+02  0.35593945611E+02 -0.23509543827E+03  0.30198259528E+03  0.16179260396E+03 0.  0.
        -24    2    5    5    0    0  0.12338447344E+02  0.38025924973E+02 -0.55045251551E+02  0.10499081877E+03  0.79968018954E+02 0.  0.
          5    1    3    3  502    0 -0.36673143923E+02 -0.78557204529E+02  0.17038026353E+02  0.88479026954E+02  0.47000000000E+01 0. -1.
        -11    1    4    4    0    0  0.16661638338E+01  0.24254819435E+02  0.17023539786E+01  0.24371507479E+02  0.00000000000E+00 0.  1.
         12    1    4    4    0    0 -0.57079105151E+02  0.18708439484E+02  0.99612993884E+02  0.11632187457E+03  0.00000000000E+00 0. -1.
         -5    1    5    5    0  501  0.79747637896E+02 -0.24319793623E+01 -0.18005018672E+03  0.19699177650E+03  0.47000000000E+01 0.  1.
         11    1    6    6    0    0  0.20531085951E+02 -0.21258691665E+02 -0.17886676078E+02  0.34545486576E+02  0.00000000000E+00 0. -1.
        -12    1    6    6    0    0 -0.81926386068E+01  0.59284616638E+02 -0.37158575473E+02  0.70445332198E+02  0.00000000000E+00 0.  1.
</event>
<event>
12    1  0.1348628E-002  0.1924431E+03  0.7818608E-02  0.1156276E+00
         -2   -1    0    0    0  501 -0.00000000000E+00  0.00000000000E+00  0.17808888238E+02  0.17808888238E+02  0.00000000000E+00 0.  1.
          2   -1    0    0  502    0  0.00000000000E+00 -0.00000000000E+00 -0.21196892894E+04  0.21196892894E+04  0.00000000000E+00 0. -1.
          6    2    1    2  502    0  0.56309987375E+02  0.62246913749E+02 -0.11979563368E+04  0.12133132251E+04  0.17315918758E+03 0.  0.
         24    2    3    3    0    0 -0.38118311820E+02  0.30937770703E+02 -0.60176455182E+03  0.60886000055E+03  0.78611532803E+02 0.  0.
         -6    2    1    2    0  501 -0.56309987375E+02 -0.62246913749E+02 -0.90392406437E+03  0.92418495260E+03  0.17318666090E+03 0.  0.
        -24    2    5    5    0    0 -0.10132965702E+03 -0.21317529911E+02 -0.67279286449E+03  0.68513327059E+03  0.77686700778E+02 0.  0.
          5    1    3    3  502    0  0.94428299195E+02  0.31309143046E+02 -0.59619178498E+03  0.60445322450E+03  0.47000000000E+01 0. -1.
        -11    1    4    4    0    0 -0.41766152350E+01  0.49054581926E+02 -0.23619095623E+03  0.24126741165E+03  0.00000000000E+00 0.  1.
         12    1    4    4    0    0 -0.33941696585E+02 -0.18116811223E+02 -0.36557359560E+03  0.36759258890E+03  0.00000000000E+00 0. -1.
         -5    1    5    5    0  501  0.45019669649E+02 -0.40929383838E+02 -0.23113119988E+03  0.23905168201E+03  0.47000000000E+01 0.  1.
         11    1    6    6    0    0 -0.34111249545E+02  0.94415242146E+01 -0.76678522370E+02  0.84453037351E+02  0.00000000000E+00 0. -1.
        -12    1    6    6    0    0 -0.67218407479E+02 -0.30759054126E+02 -0.59611434212E+03  0.60068023324E+03  0.00000000000E+00 0.  1.
</event>
<event>
12    1  0.1348628E-002  0.1780427E+03  0.7818608E-02  0.1169711E+00
         -1   -1    0    0    0  501 -0.00000000000E+00  0.00000000000E+00  0.50406473355E+02  0.50406473355E+02  0.00000000000E+00 0. -1.
          1   -1    0    0  502    0  0.00000000000E+00 -0.00000000000E+00 -0.78426581388E+03  0.78426581388E+03  0.00000000000E+00 0.  1.
          6    2    1    2  502    0  0.33466583376E+02  0.30338951584E+02 -0.18163255788E+03  0.25454085422E+03  0.17251143788E+03 0.  0.
         24    2    3    3    0    0 -0.39897192051E+02  0.31239939798E+02 -0.14296392635E+03  0.17147215742E+03  0.79976851394E+02 0.  0.
         -6    2    1    2    0  501 -0.33466583376E+02 -0.30338951584E+02 -0.55222678265E+03  0.58013143302E+03  0.17192322679E+03 0.  0.
        -24    2    5    5    0    0 -0.81392894399E+02 -0.44560247373E+02 -0.31742760880E+03  0.34002329367E+03  0.79026163398E+02 0.  0.
          5    1    3    3  502    0  0.73363775427E+02 -0.90098821399E+00 -0.38668631524E+02  0.83068696804E+02  0.47000000000E+01 0. -1.
        -13    1    4    4    0    0 -0.45387900189E+02  0.10553778885E+02 -0.27640856559E+02  0.54179891876E+02  0.00000000000E+00 0.  1.
         14    1    4    4    0    0  0.54907081379E+01  0.20686160913E+02 -0.11532306979E+03  0.11729226554E+03  0.00000000000E+00 0. -1.
         -5    1    5    5    0  501  0.47926311023E+02  0.14221295789E+02 -0.23479917385E+03  0.24010813935E+03  0.47000000000E+01 0.  1.
         11    1    6    6    0    0  0.12797724509E+02 -0.76612802389E+01 -0.15118769924E+02  0.21238035962E+02  0.00000000000E+00 0. -1.
        -12    1    6    6    0    0 -0.94190618908E+02 -0.36898967134E+02 -0.30230883888E+03  0.31878525770E+03  0.00000000000E+00 0.  1.
</event>
<event>
12    1  0.1348628E-002  0.1848228E+03  0.7818608E-02  0.1163215E+00
          2   -1    0    0  502    0  0.00000000000E+00  0.00000000000E+00  0.13681704364E+04  0.13681704364E+04  0.00000000000E+00 0.  1.
         -2   -1    0    0    0  501 -0.00000000000E+00 -0.00000000000E+00 -0.27920502551E+02  0.27920502551E+02  0.00000000000E+00 0. -1.
          6    2    1    2  502    0  0.68393974081E+02 -0.75536442580E+01  0.44097206291E+03  0.47788329807E+03  0.17082532912E+03 0.  0.
         24    2    3    3    0    0  0.35138365978E+02  0.42346712770E+02  0.13975827101E+03  0.17072239636E+03  0.81153024949E+02 0.  0.
         -6    2    1    2    0  501 -0.68393974081E+02  0.75536442580E+01  0.89927787089E+03  0.91820764084E+03  0.17224920723E+03 0.  0.
        -24    2    5    5    0    0 -0.78754139877E+02 -0.49718477349E+02  0.69785626437E+03  0.70849311458E+03  0.79277904599E+02 0.  0.
          5    1    3    3  502    0  0.33255608103E+02 -0.49900357028E+02  0.30121379191E+03  0.30716090171E+03  0.47000000000E+01 0. -1.
        -11    1    4    4    0    0 -0.25078535351E+02  0.12312862177E+01  0.37545200036E+02  0.45167367057E+02  0.00000000000E+00 0.  1.
         12    1    4    4    0    0  0.60216901329E+02  0.41115426552E+02  0.10221307097E+03  0.12555502930E+03  0.00000000000E+00 0. -1.
         -5    1    5    5    0  501  0.10360165796E+02  0.57272121607E+02  0.20142160653E+03  0.20971452626E+03  0.47000000000E+01 0.  1.
         13    1    6    6    0    0  0.84456569034E+00 -0.22731307583E+02  0.46812967629E+02  0.52046897832E+02  0.00000000000E+00 0. -1.
        -14    1    6    6    0    0 -0.79598705567E+02 -0.26987169766E+02  0.65104329674E+03  0.65644621675E+03  0.00000000000E+00 0.  1.
</event>
<event>
12    1  0.1348628E-002  0.1832307E+03  0.7818608E-02  0.1164712E+00
          2   -1    0    0  502    0  0.00000000000E+00  0.00000000000E+00  0.14244078334E+04  0.14244078334E+04  0.00000000000E+00 0. -1.
         -2   -1    0    0    0  501 -0.00000000000E+00 -0.00000000000E+00 -0.23608554240E+02  0.23608554240E+02  0.00000000000E+00 0.  1.
          6    2    1    2  502    0  0.60704844012E+02  0.64277893801E+01  0.66720210066E+03  0.69160524088E+03  0.17155981908E+03 0.  0.
         24    2    3    3    0    0  0.34087897499E+02 -0.27519201893E+02  0.62323754813E+03  0.62983282036E+03  0.79655815659E+02 0.  0.
         -6    2    1    2    0  501 -0.60704844012E+02 -0.64277893801E+01  0.73359717851E+03  0.75641114677E+03  0.17397300962E+03 0.  0.
        -24    2    5    5    0    0 -0.65261485634E+02  0.58271930650E+02  0.49825399948E+03  0.51224866261E+03  0.80541696904E+02 0.  0.
          5    1    3    3  502    0  0.26616946513E+02  0.33946991274E+02  0.43964552526E+02  0.61772420521E+02  0.47000000000E+01 0. -1.
        -11    1    4    4    0    0  0.45369403546E+02  0.12664582530E+02  0.26293747007E+03  0.26712335651E+03  0.00000000000E+00 0.  1.
         12    1    4    4    0    0 -0.11281506046E+02 -0.40183784424E+02  0.36030007806E+03  0.36270946384E+03  0.00000000000E+00 0. -1.
         -5    1    5    5    0  501  0.45566416220E+01 -0.64699720030E+02  0.23534317903E+03  0.24416248416E+03  0.47000000000E+01 0.  1.
         11    1    6    6    0    0 -0.44516812611E+02 -0.92310395913E+01  0.25203150342E+03  0.25609927257E+03  0.00000000000E+00 0. -1.
        -12    1    6    6    0    0 -0.20744673023E+02  0.67502970241E+02  0.24622249606E+03  0.25614939004E+03  0.00000000000E+00 0.  1.
</event>
<event>
12    1  0.1348628E-002  0.1895581E+03  0.7818608E-02  0.1158860E+00
          1   -1    0    0  502    0  0.00000000000E+00  0.00000000000E+00  0.24424696887E+03  0.24424696887E+03  0.00000000000E+00 0. -1.
         -1   -1    0    0    0  501 -0.00000000000E+00 -0.00000000000E+00 -0.17003876198E+03  0.17003876198E+03  0.00000000000E+00 0.  1.
          6    2    1    2  502    0 -0.76378681559E+02 -0.16105942933E+02 -0.39036360161E+02  0.19304683715E+03  0.17219215872E+03 0.  0.
         24    2    3    3    0    0  0.18959765110E+01  0.37754450427E+01 -0.69637775021E+02  0.10655563369E+03  0.80540888058E+02 0.  0.
         -6    2    1    2    0  501  0.76378681559E+02  0.16105942933E+02  0.11324456705E+03  0.22123889370E+03  0.17328938723E+03 0.  0.
        -24    2    5    5    0    0  0.82765206501E+02 -0.34805018278E+02  0.12004699002E+03  0.16926701063E+03  0.78603895387E+02 0.  0.
          5    1    3    3  502    0 -0.78274658071E+02 -0.19881387976E+02  0.30601414860E+02  0.86491203456E+02  0.47000000000E+01 0. -1.
        -11    1    4    4    0    0 -0.28253402560E+02  0.26774664590E+02 -0.19058673377E+02  0.43340171331E+02  0.00000000000E+00 0.  1.
         12    1    4    4    0    0  0.30149379071E+02 -0.22999219547E+02 -0.50579101644E+02  0.63215462359E+02  0.00000000000E+00 0. -1.
         -5    1    5    5    0  501 -0.63865249413E+01  0.50910961211E+02 -0.68024229670E+01  0.51971883076E+02  0.47000000000E+01 0.  1.
         11    1    6    6    0    0  0.69864332201E+02 -0.21178937135E+02  0.32815568959E+02  0.80040201512E+02  0.00000000000E+00 0. -1.
        -12    1    6    6    0    0  0.12900874299E+02 -0.13626081144E+02  0.87231421056E+02  0.89226809113E+02  0.00000000000E+00 0.  1.
</event>
<event>
12    1  0.1348628E-002  0.2499176E+03  0.7818608E-02  0.1113357E+00
         -2   -1    0    0    0  501 -0.00000000000E+00  0.00000000000E+00  0.32291869026E+02  0.32291869026E+02  0.00000000000E+00 0. -1.
          2   -1    0    0  502    0  0.00000000000E+00 -0.00000000000E+00 -0.24521847094E+04  0.24521847094E+04  0.00000000000E+00 0.  1.
          6    2    1    2  502    0  0.67645617674E+02 -0.16887983775E+03 -0.64194819609E+03  0.68915933906E+03  0.17247254550E+03 0.  0.
         24    2    3    3    0    0  0.50010801891E+02 -0.21165510637E+02 -0.32865481101E+03  0.34230873102E+03  0.78817659076E+02 0.  0.
         -6    2    1    2    0  501 -0.67645617674E+02  0.16887983775E+03 -0.17779446443E+04  0.17953172394E+04  0.17023660791E+03 0.  0.
        -24    2    5    5    0    0 -0.35121232107E+02  0.11395540581E+03 -0.15970271870E+04  0.16034116761E+04  0.78827859694E+02 0.  0.
          5    1    3    3  502    0  0.17634815783E+02 -0.14771432711E+03 -0.31329338508E+03  0.34685060804E+03  0.47000000000E+01 0. -1.
        -13    1    4    4    0    0  0.43524628014E+02 -0.47423190125E+02 -0.27222833348E+03  0.27973490621E+03  0.00000000000E+00 0.  1.
         14    1    4    4    0    0  0.64861738773E+01  0.26257679488E+02 -0.56426477531E+02  0.62573824801E+02  0.00000000000E+00 0. -1.
         -5    1    5    5    0  501 -0.32524385567E+02  0.54924431937E+02 -0.18091745730E+03  0.19190556333E+03  0.47000000000E+01 0.  1.
         13    1    6    6    0    0  0.12274495865E+02 -0.23017354725E+01 -0.61177884817E+02  0.62439529352E+02  0.00000000000E+00 0. -1.
        -14    1    6    6    0    0 -0.47395727972E+02  0.11625714128E+03 -0.15358493022E+04  0.15409721467E+04  0.00000000000E+00 0.  1.
</event>
<event>
12    1  0.1348628E-002  0.1944754E+03  0.7818608E-02  0.1154486E+00
         -2   -1    0    0    0  501 -0.00000000000E+00  0.00000000000E+00  0.10832804428E+03  0.10832804428E+03  0.00000000000E+00 0. -1.
          2   -1    0    0  502    0  0.00000000000E+00 -0.00000000000E+00 -0.39572262678E+03  0.39572262678E+03  0.00000000000E+00 0.  1.
          6    2    1    2  502    0  0.19794312464E+02  0.88494067659E+02 -0.22983816769E+03  0.30074474636E+03  0.17146079528E+03 0.  0.
         24    2    3    3    0    0 -0.48206909105E+02  0.76996968505E+02 -0.11205882200E+03  0.16417822888E+03  0.78389234000E+02 0.  0.
         -6    2    1    2    0  501 -0.19794312464E+02 -0.88494067659E+02 -0.57556414815E+02  0.20330592470E+03  0.17261964927E+03 0.  0.
        -24    2    5    5    0    0 -0.73350709259E+02 -0.89035086418E+02 -0.31459864963E+02  0.14354222122E+03  0.79417082599E+02 0.  0.
          5    1    3    3  502    0  0.68001221569E+02  0.11497099154E+02 -0.11777934569E+03  0.13656651747E+03  0.47000000000E+01 0. -1.
        -13    1    4    4    0    0  0.21452574376E+02  0.13737573424E+02 -0.18482178427E+02  0.31472603807E+02  0.00000000000E+00 0.  1.
         14    1    4    4    0    0 -0.69659483481E+02  0.63259395081E+02 -0.93576643572E+02  0.13270562508E+03  0.00000000000E+00 0. -1.
         -5    1    5    5    0  501  0.53556396795E+02  0.54101875864E+00 -0.26096549852E+02  0.59763703476E+02  0.47000000000E+01 0.  1.
         11    1    6    6    0    0 -0.51577414988E+02 -0.60658564641E+02 -0.58417436369E+02  0.98753673719E+02  0.00000000000E+00 0. -1.
        -12    1    6    6    0    0 -0.21773294271E+02 -0.28376521777E+02  0.26957571406E+02  0.44788547506E+02  0.00000000000E+00 0.  1.
</event>
<event>
12    1  0.1348628E-002  0.1900936E+03  0.7818608E-02  0.1158377E+00
          2   -1    0    0  502    0  0.00000000000E+00  0.00000000000E+00  0.13139835543E+04  0.13139835543E+04  0.00000000000E+00 0.  1.
         -2   -1    0    0    0  501 -0.00000000000E+00 -0.00000000000E+00 -0.29430647554E+02  0.29430647554E+02  0.00000000000E+00 0. -1.
          6    2    1    2  502    0 -0.33043754287E+02 -0.74935073232E+02  0.46714955199E+03  0.50397031801E+03  0.17044125854E+03 0.  0.
         24    2    3    3    0    0 -0.57820597871E+01 -0.98748933877E+02  0.44166064951E+03  0.45944982727E+03  0.79026769514E+02 0.  0.
         -6    2    1    2    0  501  0.33043754287E+02  0.74935073232E+02  0.81740335477E+03  0.83944388385E+03  0.17265756531E+03 0.  0.
        -24    2    5    5    0    0 -0.20020258586E+02 -0.14327452596E+02  0.45085814122E+03  0.45844378995E+03  0.79319344366E+02 0.  0.
          5    1    3    3  502    0 -0.27261694500E+02  0.23813860646E+02  0.25488902487E+02  0.44520490741E+02  0.47000000000E+01 0. -1.
        -13    1    4    4    0    0 -0.28056125565E+02 -0.16482075631E+02  0.21203754402E+03  0.21451975451E+03  0.00000000000E+00 0.  1.
         14    1    4    4    0    0  0.22274065778E+02 -0.82266858246E+02  0.22962310548E+03  0.24493007276E+03  0.00000000000E+00 0. -1.
         -5    1    5    5    0  501  0.53064012873E+02  0.89262525827E+02  0.36654521355E+03  0.38100009390E+03  0.47000000000E+01 0.  1.
         13    1    6    6    0    0  0.27490878942E+02 -0.13762197199E+02  0.10736195276E+03  0.11167692419E+03  0.00000000000E+00 0. -1.
        -14    1    6    6    0    0 -0.47511137527E+02 -0.56525539740E+00  0.34349618846E+03  0.34676686576E+03  0.00000000000E+00 0.  1.
</event>
<event>
12    1  0.1348628E-002  0.2600736E+03  0.7818608E-02  0.1107099E+00
          2   -1    0    0  502    0  0.00000000000E+00  0.00000000000E+00  0.43270623731E+03  0.43270623731E+03  0.00000000000E+00 0.  1.
         -2   -1    0    0    0  501 -0.00000000000E+00 -0.00000000000E+00 -0.16523366749E+03  0.16523366749E+03  0.00000000000E+00 0. -1.
          6    2    1    2  502    0 -0.86557282544E+02 -0.17345246304E+03  0.64046742959E+02  0.26738285463E+03  0.17266639966E+03 0.  0.
         24    2    3    3    0    0 -0.10661117524E+03 -0.18931532561E+03  0.67375801252E+02  0.24117290137E+03  0.80116381360E+02 0.  0.
         -6    2    1    2    0  501  0.86557282544E+02  0.17345246304E+03  0.20342582685E+03  0.33055705017E+03  0.17409186164E+03 0.  0.
        -24    2    5    5    0    0  0.66030522105E+01  0.14734629358E+03  0.17336800021E+03  0.24111559460E+03  0.79534495233E+02 0.  0.
          5    1    3    3  502    0  0.20053892697E+02  0.15862862568E+02 -0.33290582935E+01  0.26209953267E+02  0.47000000000E+01 0. -1.
        -11    1    4    4    0    0 -0.40790238072E+02 -0.58592339057E+02  0.62256280391E+02  0.94724601695E+02  0.00000000000E+00 0.  1.
         12    1    4    4    0    0 -0.65820937168E+02 -0.13072298655E+03  0.51195208618E+01  0.14644829967E+03  0.00000000000E+00 0. -1.
         -5    1    5    5    0  501  0.79954230333E+02  0.26106169462E+02  0.30057826642E+02  0.89441455571E+02  0.47000000000E+01 0.  1.
         13    1    6    6    0    0 -0.18270791466E+02  0.53844904423E+02  0.20980607555E+02  0.60607602217E+02  0.00000000000E+00 0. -1.
        -14    1    6    6    0    0  0.24873843677E+02  0.93501389154E+02  0.15238739266E+03  0.18050799238E+03  0.00000000000E+00 0.  1.
</event>
<event>
12    1  0.1348628E-002  0.2164070E+03  0.7818608E-02  0.1136590E+00
         -1   -1    0    0    0  501 -0.00000000000E+00  0.00000000000E+00  0.75830679672E+02  0.75830679672E+02  0.00000000000E+00 0. -1.
          1   -1    0    0  502    0  0.00000000000E+00 -0.00000000000E+00 -0.77505532134E+03  0.77505532134E+03  0.00000000000E+00 0.  1.
          6    2    1    2  502    0 -0.73306469609E+02 -0.11116988200E+03 -0.53890146001E+03  0.58002830329E+03  0.16818284058E+03 0.  0.
         24    2    3    3    0    0 -0.35792201427E+01 -0.10150677602E+03 -0.44324358043E+03  0.46116794463E+03  0.76776071582E+02 0.  0.
         -6    2    1    2    0  501  0.73306469609E+02  0.11116988200E+03 -0.16032318165E+03  0.27085769772E+03  0.17299649906E+03 0.  0.
        -24    2    5    5    0    0  0.31636847806E+02  0.11200576627E+03 -0.45361074700E+02  0.14848354963E+03  0.80271760892E+02 0.  0.
          5    1    3    3  502    0 -0.69727249466E+02 -0.96631059860E+01 -0.95657879585E+02  0.11886035867E+03  0.47000000000E+01 0. -1.
        -13    1    4    4    0    0 -0.14563326094E+02 -0.10429621135E+03 -0.30909937077E+03  0.32654587913E+03  0.00000000000E+00 0.  1.
         14    1    4    4    0    0  0.10984105952E+02  0.27894353341E+01 -0.13414420966E+03  0.13462206549E+03  0.00000000000E+00 0. -1.
         -5    1    5    5    0  501  0.41669621803E+02 -0.83588426945E+00 -0.11496210695E+03  0.12237414808E+03  0.47000000000E+01 0.  1.
         11    1    6    6    0    0 -0.12624197746E+02  0.59395331147E+02  0.82761075914E+01  0.61283518891E+02  0.00000000000E+00 0. -1.
        -12    1    6    6    0    0  0.44261045552E+02  0.52610435125E+02 -0.53637182292E+02  0.87200030743E+02  0.00000000000E+00 0.  1.
</event>
<event>
12    1  0.1348628E-002  0.2366803E+03  0.7818608E-02  0.1122024E+00
          1   -1    0    0  502    0  0.00000000000E+00  0.00000000000E+00  0.53943048160E+03  0.53943048160E+03  0.00000000000E+00 0.  1.
         -1   -1    0    0    0  501 -0.00000000000E+00 -0.00000000000E+00 -0.11015148449E+03  0.11015148449E+03  0.00000000000E+00 0. -1.
          6    2    1    2  502    0  0.81348439776E+01 -0.16250984351E+03  0.29199644993E+03  0.37561349677E+03  0.17131242589E+03 0.  0.
         24    2    3    3    0    0  0.11500170341E+02 -0.18009151302E+03  0.29655114289E+03  0.35655370264E+03  0.81380314207E+02 0.  0.
         -6    2    1    2    0  501 -0.81348439776E+01  0.16250984351E+03  0.13728254718E+03  0.27396846931E+03  0.17244303260E+03 0.  0.
        -24    2    5    5    0    0  0.30569579985E+02  0.13420989870E+03  0.15532858782E+03  0.22252268335E+03  0.80265673140E+02 0.  0.
          5    1    3    3  502    0 -0.33653263630E+01  0.17581669512E+02 -0.45546929583E+01  0.19059794131E+02  0.47000000000E+01 0. -1.
        -11    1    4    4    0    0  0.40906268186E+02 -0.56066021121E+02  0.87141150158E+02  0.11140153299E+03  0.00000000000E+00 0.  1.
         12    1    4    4    0    0 -0.29406097845E+02 -0.12402549190E+03  0.20940999273E+03  0.24515216965E+03  0.00000000000E+00 0. -1.
         -5    1    5    5    0  501 -0.38704423962E+02  0.28299944807E+02 -0.18046040632E+02  0.51445785958E+02  0.47000000000E+01 0.  1.
         11    1    6    6    0    0  0.30936228220E+02  0.44074573654E+02  0.15278298007E+02  0.55973606720E+02  0.00000000000E+00 0. -1.
        -12    1    6    6    0    0 -0.36664823513E+00  0.90135325044E+02  0.14005028981E+03  0.16654907663E+03  0.00000000000E+00 0.  1.
</event>
<event>
12    1  0.1348628E-002  0.2209105E+03  0.7818608E-02  0.1133206E+00
          1   -1    0    0  502    0  0.00000000000E+00  0.00000000000E+00  0.27039816925E+03  0.27039816925E+03  0.00000000000E+00 0.  1.
         -1   -1    0    0    0  501 -0.00000000000E+00 -0.00000000000E+00 -0.25555707475E+03  0.25555707475E+03  0.00000000000E+00 0. -1.
          6    2    1    2  502    0  0.13955612031E+03  0.47739810326E+01  0.14994618851E+03  0.26661799724E+03  0.17059482816E+03 0.  0.
         24    2    3    3    0    0  0.15026167443E+02  0.42665233642E+02  0.60021480558E+02  0.10833976348E+03  0.78030880757E+02 0.  0.
         -6    2    1    2    0  501 -0.13955612031E+03 -0.47739810326E+01 -0.13510509400E+03  0.25933724677E+03  0.17176646799E+03 0.  0.
        -24    2    5    5    0    0 -0.11785092606E+03  0.57784671886E+02 -0.10590536496E+03  0.18681542461E+03  0.80350155366E+02 0.  0.
          5    1    3    3  502    0  0.12452995286E+03 -0.37891252609E+02  0.89924707947E+02  0.15827823377E+03  0.47000000000E+01 0. -1.
        -11    1    4    4    0    0  0.33834586816E+02 -0.64610346306E+01  0.10291739507E+02  0.35950579072E+02  0.00000000000E+00 0.  1.
         12    1    4    4    0    0 -0.18808419373E+02  0.49126268272E+02  0.49729741051E+02  0.72389184404E+02  0.00000000000E+00 0. -1.
         -5    1    5    5    0  501 -0.21705194248E+02 -0.62558652919E+02 -0.29199729043E+02  0.72521822154E+02  0.47000000000E+01 0.  1.
         13    1    6    6    0    0 -0.11089864030E+02  0.82012578827E+01 -0.58184228280E+02  0.59796740175E+02  0.00000000000E+00 0. -1.
        -14    1    6    6    0    0 -0.10676106203E+03  0.49583414004E+02 -0.47721136681E+02  0.12701868444E+03  0.00000000000E+00 0.  1.
</event>
<event>
12    1  0.1348628E-002  0.2486581E+03  0.7818608E-02  0.1114156E+00
         -2   -1    0    0    0  501 -0.00000000000E+00  0.00000000000E+00  0.39599398497E+02  0.39599398497E+02  0.00000000000E+00 0.  1.
          2   -1    0    0  502    0  0.00000000000E+00 -0.00000000000E+00 -0.18138962526E+04  0.18138962526E+04  0.00000000000E+00 0. -1.
          6    2    1    2  502    0  0.39308303838E+01 -0.17972554377E+03 -0.54151692223E+03  0.59589622380E+03  0.17185752810E+03 0.  0.
         24    2    3    3    0    0 -0.63618058403E+02 -0.97807097999E+02 -0.33901005107E+03  0.36719421899E+03  0.79311373485E+02 0.  0.
         -6    2    1    2    0  501 -0.39308303838E+01  0.17972554377E+03 -0.12327799319E+04  0.12575994273E+04  0.17173595025E+03 0.  0.
        -24    2    5    5    0    0  0.26361447032E+02  0.96504406281E+01 -0.41771474844E+03  0.42441487030E+03  0.69672908467E+02 0.  0.
          5    1    3    3  502    0  0.67548888786E+02 -0.81918445767E+02 -0.20250687116E+03  0.22870200481E+03  0.47000000000E+01 0. -1.
        -11    1    4    4    0    0 -0.46836535855E+02 -0.11014995645E+03 -0.27621365148E+03  0.30103264816E+03  0.00000000000E+00 0.  1.
         12    1    4    4    0    0 -0.16781522548E+02  0.12342858448E+02 -0.62796399587E+02  0.66161570831E+02  0.00000000000E+00 0. -1.
         -5    1    5    5    0  501 -0.30292277416E+02  0.17007510314E+03 -0.81506518346E+03  0.83318455703E+03  0.47000000000E+01 0.  1.
         13    1    6    6    0    0 -0.18203870696E+02 -0.15458313151E+02 -0.14235377646E+03  0.14434312601E+03  0.00000000000E+00 0. -1.
        -14    1    6    6    0    0  0.44565317728E+02  0.25108753779E+02 -0.27536097197E+03  0.28007174428E+03  0.00000000000E+00 0.  1.
</event>
<event>
12    1  0.1348628E-002  0.1751123E+03  0.7818608E-02  0.1172619E+00
         -1   -1    0    0    0  501 -0.00000000000E+00  0.00000000000E+00  0.14187359980E+02  0.14187359980E+02  0.00000000000E+00 0. -1.
          1   -1    0    0  502    0  0.00000000000E+00 -0.00000000000E+00 -0.21768166282E+04  0.21768166282E+04  0.00000000000E+00 0.  1.
          6    2    1    2  502    0 -0.38233109758E+02  0.73105174857E+01 -0.97069033792E+03  0.98576618548E+03  0.16727231079E+03 0.  0.
         24    2    3    3    0    0  0.18714696716E+02 -0.39210880903E+02 -0.38805321332E+03  0.39848822562E+03  0.79497399575E+02 0.  0.
         -6    2    1    2    0  501  0.38233109758E+02 -0.73105174857E+01 -0.11919389303E+04  0.12052378027E+04  0.17425421987E+03 0.  0.
        -24    2    5    5    0    0  0.37606861825E+02  0.58989277651E+02 -0.56754231107E+03  0.57731321875E+03  0.79323809507E+02 0.  0.
          5    1    3    3  502    0 -0.56947806475E+02  0.46521398389E+02 -0.58263712461E+03  0.58727795986E+03  0.47000000000E+01 0. -1.
        -11    1    4    4    0    0  0.88885229230E+01  0.14171323095E+02 -0.24360162224E+03  0.24417531119E+03  0.00000000000E+00 0.  1.
         12    1    4    4    0    0  0.98261737931E+01 -0.53382203998E+02 -0.14445159108E+03  0.15431291443E+03  0.00000000000E+00 0. -1.
         -5    1    5    5    0  501  0.62624793372E+00 -0.66299795137E+02 -0.62439661927E+03  0.62792458398E+03  0.47000000000E+01 0.  1.
         11    1    6    6    0    0 -0.10651414826E+01  0.47309312204E+02 -0.46010430792E+03  0.46253138241E+03  0.00000000000E+00 0. -1.
        -12    1    6    6    0    0  0.38672003307E+02  0.11679965448E+02 -0.10743800314E+03  0.11478183633E+03  0.00000000000E+00 0.  1.
</event>
<event>
12    1  0.1348628E-002  0.2636087E+03  0.7818608E-02  0.1104994E+00
          1   -1    0    0  502    0  0.00000000000E+00  0.00000000000E+00  0.63694808641E+03  0.63694808641E+03  0.00000000000E+00 0.  1.
         -1   -1    0    0    0  501 -0.00000000000E+00 -0.00000000000E+00 -0.12065391956E+03  0.12065391956E+03  0.00000000000E+00 0. -1.
          6    2    1    2  502    0 -0.72864871334E+02  0.19135736444E+03  0.37256694062E+03  0.45463103779E+03  0.16110966725E+03 0.  0.
         24    2    3    3    0    0 -0.92525311556E+00  0.51568136999E+02  0.93534629638E+02  0.13432265927E+03  0.81447658073E+02 0.  0.
         -6    2    1    2    0  501  0.72864871334E+02 -0.19135736444E+03  0.14372722622E+03  0.30297096818E+03  0.17090044354E+03 0.  0.
        -24    2    5    5    0    0  0.55147051819E+02 -0.47529978261E+02  0.13858061011E+02  0.10832172411E+03  0.79001606954E+02 0.  0.
          5    1    3    3  502    0 -0.71939618218E+02  0.13978922744E+03  0.27903231098E+03  0.32030837852E+03  0.47000000000E+01 0. -1.
        -13    1    4    4    0    0 -0.26906699934E+02  0.39281526123E+02  0.94227871022E+02  0.10557414680E+03  0.00000000000E+00 0.  1.
         14    1    4    4    0    0  0.25981446818E+02  0.12286610876E+02 -0.69324138366E+00  0.28748512469E+02  0.00000000000E+00 0. -1.
         -5    1    5    5    0  501  0.17717819514E+02 -0.14382738618E+03  0.12986916521E+03  0.19464924407E+03  0.47000000000E+01 0.  1.
         11    1    6    6    0    0  0.14582989991E+02 -0.45005631875E+02 -0.23761071985E+02  0.52941090274E+02  0.00000000000E+00 0. -1.
        -12    1    6    6    0    0  0.40564061828E+02 -0.25243463859E+01  0.37619132996E+02  0.55380633836E+02  0.00000000000E+00 0.  1.
</event>
<event>
12    1  0.1348628E-002  0.1822192E+03  0.7818608E-02  0.1165672E+00
          2   -1    0    0  502    0  0.00000000000E+00  0.00000000000E+00  0.16585906635E+04  0.16585906635E+04  0.00000000000E+00 0. -1.
         -2   -1    0    0    0  501 -0.00000000000E+00 -0.00000000000E+00 -0.22492870571E+02  0.22492870571E+02  0.00000000000E+00 0.  1.
          6    2    1    2  502    0 -0.49692182125E+02  0.38955638380E+02  0.53778068992E+03  0.56769031019E+03  0.17052085825E+03 0.  0.
         24    2    3    3    0    0 -0.74122804294E+02  0.79702839637E+02  0.31525357032E+03  0.34009945214E+03  0.66603986219E+02 0.  0.
         -6    2    1    2    0  501  0.49692182125E+02 -0.38955638380E+02  0.10983171030E+04  0.11133932239E+04  0.17133930521E+03 0.  0.
        -24    2    5    5    0    0  0.15506661360E+02  0.58620503458E+01  0.96653919317E+03  0.96998896114E+03  0.80035945768E+02 0.  0.
          5    1    3    3  502    0  0.24430622169E+02 -0.40747201257E+02  0.22252711960E+03  0.22759085805E+03  0.47000000000E+01 0. -1.
        -11    1    4    4    0    0 -0.75107926609E+02  0.47732727606E+02  0.17599977014E+03  0.19721950464E+03  0.00000000000E+00 0.  1.
         12    1    4    4    0    0  0.98512231473E+00  0.31970112031E+02  0.13925380018E+03  0.14287994749E+03  0.00000000000E+00 0. -1.
         -5    1    5    5    0  501  0.34185520764E+02 -0.44817688726E+02  0.13177790981E+03  0.14340426272E+03  0.47000000000E+01 0.  1.
         13    1    6    6    0    0  0.26543464680E+02 -0.14668168683E+02  0.14588601595E+03  0.14900483328E+03  0.00000000000E+00 0. -1.
        -14    1    6    6    0    0 -0.11036803319E+02  0.20530219029E+02  0.82065317722E+03  0.82098412786E+03  0.00000000000E+00 0.  1.
</event>
<event>
12    1  0.1348628E-002  0.1767438E+03  0.7818608E-02  0.1170992E+00
          1   -1    0    0  502    0  0.00000000000E+00  0.00000000000E+00  0.89465604499E+03  0.89465604499E+03  0.00000000000E+00 0. -1.
         -1   -1    0    0    0  501 -0.00000000000E+00 -0.00000000000E+00 -0.35105730310E+02  0.35105730310E+02  0.00000000000E+00 0.  1.
          6    2    1    2  502    0  0.38338886564E+02  0.12717857382E+02  0.46149154721E+03  0.49383885943E+03  0.17108698612E+03 0.  0.
         24    2    3    3    0    0 -0.61690424991E+01  0.44887319506E+02  0.13485420421E+03  0.16258386115E+03  0.78707858413E+02 0.  0.
         -6    2    1    2    0  501 -0.38338886564E+02 -0.12717857382E+02  0.39805876748E+03  0.43592291588E+03  0.17305025889E+03 0.  0.
        -24    2    5    5    0    0  0.31650328207E+02  0.24174305009E+02  0.28497684055E+03  0.29783188059E+03  0.76849782985E+02 0.  0.
          5    1    3    3  502    0  0.44507929063E+02 -0.32169462124E+02  0.32663734300E+03  0.33125499828E+03  0.47000000000E+01 0. -1.
        -13    1    4    4    0    0 -0.22997845660E+01  0.55665370184E+02  0.43950622145E+02  0.70961818140E+02  0.00000000000E+00 0.  1.
         14    1    4    4    0    0 -0.38692579331E+01 -0.10778050678E+02  0.90903582061E+02  0.91622043008E+02  0.00000000000E+00 0. -1.
         -5    1    5    5    0  501 -0.69989214771E+02 -0.36892162392E+02  0.11308192692E+03  0.13809103529E+03  0.47000000000E+01 0.  1.
         11    1    6    6    0    0  0.33804764615E+02 -0.56341752052E+01  0.24767223800E+03  0.25003208498E+03  0.00000000000E+00 0. -1.
        -12    1    6    6    0    0 -0.21544364080E+01  0.29808480215E+02  0.37304602548E+02  0.47799795608E+02  0.00000000000E+00 0.  1.
</event>
<event>
12    1  0.1348628E-002  0.2147414E+03  0.7818608E-02  0.1137865E+00
          2   -1    0    0  502    0  0.00000000000E+00  0.00000000000E+00  0.11632066212E+04  0.11632066212E+04  0.00000000000E+00 0. -1.
         -2   -1    0    0    0  501 -0.00000000000E+00 -0.00000000000E+00 -0.49287879792E+02  0.49287879792E+02  0.00000000000E+00 0.  1.
          6    2    1    2  502    0  0.77127631345E+02  0.10412714903E+03  0.82353773790E+03  0.85088380366E+03  0.17028713077E+03 0.  0.
         24    2    3    3    0    0 -0.19076927763E+02  0.41600045710E+02  0.27742242610E+03  0.29282558123E+03  0.81787074423E+02 0.  0.
         -6    2    1    2    0  501 -0.77127631345E+02 -0.10412714903E+03  0.29038100351E+03  0.36161069734E+03  0.17219185388E+03 0.  0.
        -24    2    5    5    0    0 -0.45678966544E+02 -0.11265139337E+02  0.60111759169E+02  0.11129412526E+03  0.80990662295E+02 0.  0.
          5    1    3    3  502    0  0.96204559107E+02  0.62527103322E+02  0.54611531179E+03  0.55805822243E+03  0.47000000000E+01 0. -1.
        -13    1    4    4    0    0 -0.21585535299E+00  0.17407495124E+02  0.25304451399E+03  0.25364264929E+03  0.00000000000E+00 0.  1.
         14    1    4    4    0    0 -0.18861072410E+02  0.24192550586E+02  0.24377912114E+02  0.39182931939E+02  0.00000000000E+00 0. -1.
         -5    1    5    5    0  501 -0.31448664801E+02 -0.92862009695E+02  0.23026924435E+03  0.25031657207E+03  0.47000000000E+01 0.  1.
         11    1    6    6    0    0 -0.14084948977E+02  0.19250655378E+00  0.73707023347E+02  0.75040976387E+02  0.00000000000E+00 0. -1.
        -12    1    6    6    0    0 -0.31594017568E+02 -0.11457645891E+02 -0.13595264178E+02  0.36253148877E+02  0.00000000000E+00 0.  1.
</event>
<event>
12    1  0.1348628E-002  0.2251337E+03  0.7818608E-02  0.1130113E+00
          2   -1    0    0  502    0  0.00000000000E+00  0.00000000000E+00  0.33069644882E+04  0.33069644882E+04  0.00000000000E+00 0.  1.
         -2   -1    0    0    0  501 -0.00000000000E+00 -0.00000000000E+00 -0.15336383631E+02  0.15336383631E+02  0.00000000000E+00 0. -1.
          6    2    1    2  502    0 -0.23524511006E+02  0.14354257055E+03  0.16912966519E+04  0.17062902078E+04  0.17258052060E+03 0.  0.
         24    2    3    3    0    0 -0.16491123962E+02  0.61979026066E+01  0.74064838934E+03  0.74573451676E+03  0.85144357947E+02 0.  0.
         -6    2    1    2    0  501  0.23524511006E+02 -0.14354257055E+03  0.16003314526E+04  0.16160106641E+04  0.17109013971E+03 0.  0.
        -24    2    5    5    0    0  0.36739327035E+02 -0.17206532061E+03  0.13451049351E+04  0.13588126005E+04  0.78154617419E+02 0.  0.
          5    1    3    3  502    0 -0.70333870435E+01  0.13734466795E+03  0.95064826260E+03  0.96055569101E+03  0.47000000000E+01 0. -1.
        -13    1    4    4    0    0  0.21491146079E+02  0.14819554935E+02  0.57407370984E+03  0.57466695824E+03  0.00000000000E+00 0.  1.
         14    1    4    4    0    0 -0.37982270041E+02 -0.86216523279E+01  0.16657467951E+03  0.17106755852E+03  0.00000000000E+00 0. -1.
         -5    1    5    5    0  501 -0.13214816029E+02  0.28522750058E+02  0.25522651752E+03  0.25719806352E+03  0.47000000000E+01 0.  1.
         11    1    6    6    0    0  0.39272616519E+02 -0.98496508164E+02  0.53749013467E+03  0.54784992963E+03  0.00000000000E+00 0. -1.
        -12    1    6    6    0    0 -0.25332894840E+01 -0.73568812449E+02  0.80761480044E+03  0.81096267091E+03  0.00000000000E+00 0.  1.
</event>
<event>
12    1  0.1348628E-002  0.3101735E+03  0.7818608E-02  0.1080263E+00
          1   -1    0    0  502    0  0.00000000000E+00  0.00000000000E+00  0.43629918070E+03  0.43629918070E+03  0.00000000000E+00 0.  1.
         -1   -1    0    0    0  501 -0.00000000000E+00 -0.00000000000E+00 -0.34290492213E+03  0.34290492213E+03  0.00000000000E+00 0. -1.
          6    2    1    2  502    0 -0.11728000318E+03 -0.22887320579E+03 -0.18593796586E+03  0.36275160410E+03  0.17572209780E+03 0.  0.
         24    2    3    3    0    0 -0.60792579301E+01 -0.90912291099E+02 -0.24094953340E+02  0.12272229250E+03  0.78601477400E+02 0.  0.
         -6    2    1    2    0  501  0.11728000318E+03  0.22887320579E+03  0.27933222444E+03  0.41645249873E+03  0.17108082480E+03 0.  0.
        -24    2    5    5    0    0  0.12540545143E+02  0.13978397903E+03  0.99058577596E+02  0.18967524648E+03  0.80419346322E+02 0.  0.
          5    1    3    3  502    0 -0.11120074525E+03 -0.13796091469E+03 -0.16184301252E+03  0.24002931160E+03  0.47000000000E+01 0. -1.
        -13    1    4    4    0    0 -0.26151555175E+02 -0.86658746037E+02 -0.37750847419E+02  0.98075320972E+02  0.00000000000E+00 0.  1.
         14    1    4    4    0    0  0.20072297245E+02 -0.42535450620E+01  0.13655894080E+02  0.24646971526E+02  0.00000000000E+00 0. -1.
         -5    1    5    5    0  501  0.10473945804E+03  0.89089226754E+02  0.18027364684E+03  0.22677725225E+03  0.47000000000E+01 0.  1.
         13    1    6    6    0    0 -0.31210728888E+02  0.44791109906E+02  0.50500012266E+02  0.74368033208E+02  0.00000000000E+00 0. -1.
        -14    1    6    6    0    0  0.43751274031E+02  0.94992869129E+02  0.48558565330E+02  0.11530721327E+03  0.00000000000E+00 0.  1.
</event>
<event>
12    1  0.1348628E-002  0.6737869E+03  0.7818608E-02  0.9763141E-01
          2   -1    0    0  502    0  0.00000000000E+00  0.00000000000E+00  0.29431486315E+03  0.29431486315E+03  0.00000000000E+00 0. -1.
         -2   -1    0    0    0  501 -0.00000000000E+00 -0.00000000000E+00 -0.15597975410E+04  0.15597975410E+04  0.00000000000E+00 0.  1.
          6    2    1    2  502    0 -0.65021519880E+03  0.37589781614E+02 -0.73041548372E+03  0.99382047535E+03  0.17314607109E+03 0.  0.
         24    2    3    3    0    0 -0.55769889960E+03  0.85069572560E+02 -0.60694903973E+03  0.83232852831E+03  0.78222422774E+02 0.  0.
         -6    2    1    2    0  501  0.65021519880E+03 -0.37589781614E+02 -0.53506719415E+03  0.86029192883E+03  0.17208284088E+03 0.  0.
        -24    2    5    5    0    0  0.65177796696E+03 -0.27457065859E+02 -0.50666666311E+03  0.82973388019E+03  0.78605316304E+02 0.  0.
          5    1    3    3  502    0 -0.92516299201E+02 -0.47479790946E+02 -0.12346644399E+03  0.16149194704E+03  0.47000000000E+01 0.  1.
        -11    1    4    4    0    0 -0.27683232746E+03  0.89568460116E+01 -0.26512753811E+03  0.38341749318E+03  0.00000000000E+00 0.  1.
         12    1    4    4    0    0 -0.28086657214E+03  0.76112726549E+02 -0.34182150163E+03  0.44891103513E+03  0.00000000000E+00 0. -1.
         -5    1    5    5    0  501 -0.15627681654E+01 -0.10132715755E+02 -0.28400531046E+02  0.30558048639E+02  0.47000000000E+01 0.  1.
         11    1    6    6    0    0  0.23010015566E+03 -0.45307520806E+02 -0.19660680658E+03  0.30602792269E+03  0.00000000000E+00 0. -1.
        -12    1    6    6    0    0  0.42167781131E+03  0.17850454947E+02 -0.31005985653E+03  0.52370595750E+03  0.00000000000E+00 0.  1.
</event>
<event>
12    1  0.1348628E-002  0.2191905E+03  0.7818608E-02  0.1134488E+00
          1   -1    0    0  502    0  0.00000000000E+00  0.00000000000E+00  0.22341864187E+03  0.22341864187E+03  0.00000000000E+00 0.  1.
         -1   -1    0    0    0  501 -0.00000000000E+00 -0.00000000000E+00 -0.26865710521E+03  0.26865710521E+03  0.00000000000E+00 0. -1.
          6    2    1    2  502    0 -0.11454233029E+03 -0.73308431612E+02  0.87277659085E+02  0.23609456739E+03  0.17213129699E+03 0.  0.
         24    2    3    3    0    0 -0.82017959719E+02 -0.78509961618E+02  0.12410842377E+03  0.18646105228E+03  0.80461564588E+02 0.  0.
         -6    2    1    2    0  501  0.11454233029E+03  0.73308431612E+02 -0.13251612243E+03  0.25598117969E+03  0.17167344022E+03 0.  0.
        -24    2    5    5    0    0 -0.53796277656E+00  0.47459564087E+00 -0.74442157425E+02  0.10784976193E+03  0.78034746762E+02 0.  0.
          5    1    3    3  502    0 -0.32524370573E+02  0.52015300064E+01 -0.36830764682E+02  0.49633515115E+02  0.47000000000E+01 0. -1.
        -11    1    4    4    0    0 -0.34101690652E+02  0.12486774567E+02  0.32505225417E+02  0.48738429640E+02  0.00000000000E+00 0.  1.
         12    1    4    4    0    0 -0.47916269068E+02 -0.90996736185E+02  0.91603198350E+02  0.13772262264E+03  0.00000000000E+00 0. -1.
         -5    1    5    5    0  501  0.11508029307E+03  0.72833835971E+02 -0.58073965006E+02  0.14813141776E+03  0.47000000000E+01 0.  1.
         11    1    6    6    0    0  0.22501896606E+02  0.14688112930E+02 -0.76122640726E+02  0.80726280996E+02  0.00000000000E+00 0. -1.
        -12    1    6    6    0    0 -0.23039859383E+02 -0.14213517289E+02  0.16804833013E+01  0.27123480939E+02  0.00000000000E+00 0.  1.
</event>
<event>
12    1  0.1348628E-002  0.1877105E+03  0.7818608E-02  0.1160543E+00
          2   -1    0    0  502    0  0.00000000000E+00  0.00000000000E+00  0.14464025769E+04  0.14464025769E+04  0.00000000000E+00 0. -1.
         -2   -1    0    0    0  501 -0.00000000000E+00 -0.00000000000E+00 -0.35263020241E+02  0.35263020241E+02  0.00000000000E+00 0.  1.
          6    2    1    2  502    0  0.65303655200E+02  0.17555252627E+02  0.30148744973E+03  0.35673539246E+03  0.17830508577E+03 0.  0.
         24    2    3    3    0    0  0.10905584727E+03  0.27088761882E+02  0.17733476897E+03  0.22467055895E+03  0.80014129549E+02 0.  0.
         -6    2    1    2    0  501 -0.65303655200E+02 -0.17555252627E+02  0.11096521069E+04  0.11249302046E+04  0.17195177440E+03 0.  0.
        -24    2    5    5    0    0 -0.83982375308E+02 -0.33660578127E+02  0.10768589412E+04  0.10836293837E+04  0.80258258671E+02 0.  0.
          5    1    3    3  502    0 -0.43752192074E+02 -0.95335092546E+01  0.12415268076E+03  0.13206483351E+03  0.47000000000E+01 0. -1.
        -11    1    4    4    0    0  0.70095957068E+02 -0.10782701833E+01  0.43598470602E+02  0.82555632774E+02  0.00000000000E+00 0.  1.
         12    1    4    4    0    0  0.38959890206E+02  0.28167032065E+02  0.13373629837E+03  0.14211492618E+03  0.00000000000E+00 0. -1.
         -5    1    5    5    0  501  0.18678720108E+02  0.16105325500E+02  0.32793165642E+02  0.41300820901E+02  0.47000000000E+01 0.  1.
         13    1    6    6    0    0 -0.49741013885E+02  0.68879186438E+01  0.80937057019E+03  0.81092683504E+03  0.00000000000E+00 0. -1.
        -14    1    6    6    0    0 -0.34241361422E+02 -0.40548496771E+02  0.26748837104E+03  0.27270254870E+03  0.00000000000E+00 0.  1.
</event>
<event>
12    1  0.1348628E-002  0.1857753E+03  0.7818608E-02  0.1162328E+00
          2   -1    0    0  502    0  0.00000000000E+00  0.00000000000E+00  0.24633125371E+03  0.24633125371E+03  0.00000000000E+00 0. -1.
         -2   -1    0    0    0  501 -0.00000000000E+00 -0.00000000000E+00 -0.17202552553E+03  0.17202552553E+03  0.00000000000E+00 0.  1.
          6    2    1    2  502    0 -0.33242507179E+02  0.64364991666E+02 -0.52880027528E+02  0.19357339161E+03  0.17154137749E+03 0.  0.
         24    2    3    3    0    0 -0.81471490572E+02  0.31263462742E+02 -0.67376678845E+02  0.13312515792E+03  0.74616907875E+02 0.  0.
         -6    2    1    2    0  501  0.33242507179E+02 -0.64364991666E+02  0.12718575571E+03  0.22478338763E+03  0.17059729911E+03 0.  0.
        -24    2    5    5    0    0  0.50878231893E+02 -0.79303482373E+01  0.13700800558E+03  0.16466305532E+03  0.75440329328E+02 0.  0.
          5    1    3    3  502    0  0.48228983393E+02  0.33101528924E+02  0.14496651318E+02  0.60448233685E+02  0.47000000000E+01 0. -1.
        -11    1    4    4    0    0 -0.22821859547E+02  0.23724061981E+02 -0.66254879855E+02  0.73982278247E+02  0.00000000000E+00 0.  1.
         12    1    4    4    0    0 -0.58649631025E+02  0.75394007605E+01 -0.11217989902E+01  0.59142879674E+02  0.00000000000E+00 0. -1.
         -5    1    5    5    0  501 -0.17635724714E+02 -0.56434643428E+02 -0.98222498683E+01  0.60120332314E+02  0.47000000000E+01 0.  1.
         13    1    6    6    0    0  0.48031028328E+02 -0.10527427517E+02  0.30030783263E+02  0.57616441714E+02  0.00000000000E+00 0. -1.
        -14    1    6    6    0    0  0.28472035653E+01  0.25970792800E+01  0.10697722232E+03  0.10704661360E+03  0.00000000000E+00 0.  1.
</event>
<event>
12    1  0.1348628E-002  0.3323655E+03  0.7818608E-02  0.1070095E+00
          1   -1    0    0  502    0  0.00000000000E+00  0.00000000000E+00  0.93114362483E+03  0.93114362483E+03  0.00000000000E+00 0.  1.
         -1   -1    0    0    0  501 -0.00000000000E+00 -0.00000000000E+00 -0.14895954845E+03  0.14895954845E+03  0.00000000000E+00 0. -1.
          6    2    1    2  502    0  0.10976326580E+03  0.26169671973E+03  0.14784170982E+03  0.36416751524E+03  0.17386103749E+03 0.  0.
         24    2    3    3    0    0  0.52573248980E+02  0.13203173587E+03  0.44681297858E+01  0.16251985343E+03  0.78717296629E+02 0.  0.
         -6    2    1    2    0  501 -0.10976326580E+03 -0.26169671973E+03  0.63434236656E+03  0.71593565804E+03  0.17216411005E+03 0.  0.
        -24    2    5    5    0    0 -0.62558240219E+02 -0.19373081606E+03  0.29948896256E+03  0.37097686241E+03  0.80529691679E+02 0.  0.
          5    1    3    3  502    0  0.57190016820E+02  0.12966498386E+03  0.14337358003E+03  0.20164766181E+03  0.47000000000E+01 0. -1.
        -11    1    4    4    0    0  0.28784272581E+02  0.14025738917E+02  0.24715692966E+02  0.40448994783E+02  0.00000000000E+00 0.  1.
         12    1    4    4    0    0  0.23788976399E+02  0.11800599696E+03 -0.20247563180E+02  0.12207085864E+03  0.00000000000E+00 0. -1.
         -5    1    5    5    0  501 -0.47205025581E+02 -0.67965903675E+02  0.33485340401E+03  0.34495879562E+03  0.47000000000E+01 0.  1.
         13    1    6    6    0    0  0.12570849691E+01 -0.26382828836E+01 -0.50468525391E+01  0.58319396212E+01  0.00000000000E+00 0. -1.
        -14    1    6    6    0    0 -0.63815325188E+02 -0.19109253318E+03  0.30453581509E+03  0.36514492279E+03  0.00000000000E+00 0.  1.
</event>
<event>
12    1  0.1348628E-002  0.2326758E+03  0.7818608E-02  0.1124770E+00
         -2   -1    0    0    0  501 -0.00000000000E+00  0.00000000000E+00  0.21100948831E+03  0.21100948831E+03  0.00000000000E+00 0.  1.
          2   -1    0    0  502    0  0.00000000000E+00 -0.00000000000E+00 -0.50625357452E+03  0.50625357452E+03  0.00000000000E+00 0. -1.
          6    2    1    2  502    0  0.44728091719E+02  0.14143315303E+03 -0.40121316299E+03  0.46674316257E+03  0.18674377817E+03 0.  0.
         24    2    3    3    0    0  0.24424720060E+02  0.14140475626E+03 -0.17716105317E+03  0.24172390646E+03  0.80327679853E+02 0.  0.
         -6    2    1    2    0  501 -0.44728091719E+02 -0.14143315303E+03  0.10596907678E+03  0.25051990026E+03  0.17183374590E+03 0.  0.
        -24    2    5    5    0    0  0.40890816167E+02 -0.66604783803E+02  0.68203857737E+02  0.13061083473E+03  0.79367297208E+02 0.  0.
          5    1    3    3  502    0  0.20303371659E+02  0.28396770846E-01 -0.22405210981E+03  0.22501925611E+03  0.47000000000E+01 0. -1.
        -11    1    4    4    0    0  0.22643267635E+02  0.76288273710E+02 -0.38240437247E+02  0.88289010164E+02  0.00000000000E+00 0.  1.
         12    1    4    4    0    0  0.17814524252E+01  0.65116482546E+02 -0.13892061593E+03  0.15343489629E+03  0.00000000000E+00 0. -1.
         -5    1    5    5    0  501 -0.85618907886E+02 -0.74828369224E+02  0.37765219045E+02  0.11990906554E+03  0.47000000000E+01 0.  1.
         13    1    6    6    0    0  0.17813781097E+02 -0.23283619593E+02 -0.15811024969E+02  0.33308351039E+02  0.00000000000E+00 0. -1.
        -14    1    6    6    0    0  0.23077035069E+02 -0.43321164210E+02  0.84014882706E+02  0.97302483690E+02  0.00000000000E+00 0.  1.
</event>
<event>
12    1  0.1348628E-002  0.1784338E+03  0.7818608E-02  0.1169327E+00
          2   -1    0    0  502    0  0.00000000000E+00  0.00000000000E+00  0.18829481667E+04  0.18829481667E+04  0.00000000000E+00 0. -1.
         -2   -1    0    0    0  501 -0.00000000000E+00 -0.00000000000E+00 -0.18308556111E+02  0.18308556111E+02  0.00000000000E+00 0.  1.
          6    2    1    2  502    0  0.48802486722E+02  0.12072062988E+01  0.67161016652E+03  0.69502229046E+03  0.17208320201E+03 0.  0.
         24    2    3    3    0    0  0.65882417593E+02 -0.56733850125E+02  0.49567875020E+03  0.50895014503E+03  0.75984235404E+02 0.  0.
         -6    2    1    2    0  501 -0.48802486722E+02 -0.12072062988E+01  0.11930294441E+04  0.12062344323E+04  0.17116983175E+03 0.  0.
        -24    2    5    5    0    0 -0.96501629007E+02 -0.20286127088E+02  0.81457201525E+03  0.82427719806E+03  0.78620861496E+02 0.  0.
          5    1    3    3  502    0 -0.17079930871E+02  0.57941056424E+02  0.17593141632E+03  0.18607214543E+03  0.47000000000E+01 0. -1.
        -11    1    4    4    0    0 -0.14501331381E+02 -0.23517429862E+02  0.94775512623E+02  0.98720595177E+02  0.00000000000E+00 0.  1.
         12    1    4    4    0    0  0.80383748974E+02 -0.33216420263E+02  0.40090323758E+03  0.41022954985E+03  0.00000000000E+00 0. -1.
         -5    1    5    5    0  501  0.47699142285E+02  0.19078920789E+02  0.37845742880E+03  0.38195723427E+03  0.47000000000E+01 0.  1.
         11    1    6    6    0    0 -0.44265814725E+02  0.29608285559E+02  0.38681298533E+03  0.39046177604E+03  0.00000000000E+00 0. -1.
        -12    1    6    6    0    0 -0.52235814282E+02 -0.49894412647E+02  0.42775902992E+03  0.43381542202E+03  0.00000000000E+00 0.  1.
</event>
<event>
12    1  0.1348628E-002  0.4685099E+03  0.7818608E-02  0.1022342E+00
         -3   -1    0    0    0  501 -0.00000000000E+00  0.00000000000E+00  0.19380827318E+04  0.19380827318E+04  0.00000000000E+00 0. -1.
          3   -1    0    0  502    0  0.00000000000E+00 -0.00000000000E+00 -0.11685471146E+03  0.11685471146E+03  0.00000000000E+00 0.  1.
          6    2    1    2  502    0 -0.12348953867E+03  0.41717412222E+03  0.10905895599E+04  0.11869010206E+04  0.17339126327E+03 0.  0.
         24    2    3    3    0    0 -0.15547320442E+03  0.34674235075E+03  0.95249463578E+03  0.10285473425E+04  0.79129194807E+02 0.  0.
         -6    2    1    2    0  501  0.12348953867E+03 -0.41717412222E+03  0.73063846045E+03  0.86803642264E+03  0.17427207676E+03 0.  0.
        -24    2    5    5    0    0  0.13785060292E+02 -0.24154465705E+03  0.49107516315E+03  0.55134501919E+03  0.65518433144E+02 0.  0.
          5    1    3    3  502    0  0.31983665751E+02  0.70431771467E+02  0.13809492408E+03  0.15835367809E+03  0.47000000000E+01 0. -1.
        -13    1    4    4    0    0 -0.94128380914E+02  0.22789740128E+03  0.51349036073E+03  0.56962244353E+03  0.00000000000E+00 0.  1.
         14    1    4    4    0    0 -0.61344823506E+02  0.11884494948E+03  0.43900427504E+03  0.45892489897E+03  0.00000000000E+00 0. -1.
         -5    1    5    5    0  501  0.10970447838E+03 -0.17562946517E+03  0.23956329729E+03  0.31669140345E+03  0.47000000000E+01 0.  1.
         13    1    6    6    0    0  0.36546480598E+02 -0.18112178056E+03  0.38739287713E+03  0.42920156790E+03  0.00000000000E+00 0. -1.
        -14    1    6    6    0    0 -0.22761420306E+02 -0.60422876488E+02  0.10368228602E+03  0.12214345129E+03  0.00000000000E+00 0.  1.
</event>
<event>
12    1  0.1348628E-002  0.2579245E+03  0.7818608E-02  0.1108397E+00
         -1   -1    0    0    0  501 -0.00000000000E+00  0.00000000000E+00  0.37746926435E+03  0.37746926435E+03  0.00000000000E+00 0. -1.
          1   -1    0    0  502    0  0.00000000000E+00 -0.00000000000E+00 -0.18392094683E+03  0.18392094683E+03  0.00000000000E+00 0.  1.
          6    2    1    2  502    0 -0.12150460252E+03 -0.15960823826E+03  0.37538678346E+02  0.25441612807E+03  0.15192187366E+03 0.  0.
         24    2    3    3    0    0 -0.20667016455E+02 -0.50217278195E+02 -0.40933906429E+02  0.86146589922E+02  0.52884304488E+02 0.  0.
         -6    2    1    2    0  501  0.12150460252E+03  0.15960823826E+03  0.15600963917E+03  0.30697408311E+03  0.17220894876E+03 0.  0.
        -24    2    5    5    0    0  0.57356402477E+02  0.10310770921E+02  0.61689236122E+02  0.11902953343E+03  0.83464957161E+02 0.  0.
          5    1    3    3  502    0 -0.10083758607E+03 -0.10939096007E+03  0.78472584775E+02  0.16826953815E+03  0.47000000000E+01 0. -1.
        -11    1    4    4    0    0  0.14599535570E+02 -0.41130383975E+00 -0.10220169817E+02  0.17826033793E+02  0.00000000000E+00 0.  1.
         12    1    4    4    0    0 -0.35266552024E+02 -0.49805974355E+02 -0.30713736612E+02  0.68320556129E+02  0.00000000000E+00 0. -1.
         -5    1    5    5    0  501  0.64148200042E+02  0.14929746734E+03  0.94320403049E+02  0.18794454968E+03  0.47000000000E+01 0.  1.
         11    1    6    6    0    0  0.48161863291E+02  0.33420444255E+02  0.71353630572E+02  0.92346260161E+02  0.00000000000E+00 0. -1.
        -12    1    6    6    0    0  0.91945391867E+01 -0.23109673334E+02 -0.96643944504E+01  0.26683273273E+02  0.00000000000E+00 0.  1.
</event>
<event>
12    1  0.1348628E-002  0.1957704E+03  0.7818608E-02  0.1153357E+00
          1   -1    0    0  502    0  0.00000000000E+00  0.00000000000E+00  0.18879917567E+03  0.18879917567E+03  0.00000000000E+00 0. -1.
         -1   -1    0    0    0  501 -0.00000000000E+00 -0.00000000000E+00 -0.21361851617E+03  0.21361851617E+03  0.00000000000E+00 0.  1.
          6    2    1    2  502    0 -0.86522427669E+02 -0.34697786144E+02  0.32400178673E+02  0.19918016133E+03  0.17301126621E+03 0.  0.
         24    2    3    3    0    0 -0.96070190289E+02 -0.45009840730E+02 -0.34445333746E+02  0.13071184185E+03  0.68144973101E+02 0.  0.
         -6    2    1    2    0  501  0.86522427669E+02  0.34697786144E+02 -0.57219519181E+02  0.20323753052E+03  0.17129318020E+03 0.  0.
        -24    2    5    5    0    0 -0.47900450806E+01 -0.26227558295E+02 -0.44714606663E+02  0.92655759361E+02  0.76647663681E+02 0.  0.
          5    1    3    3  502    0  0.95477626200E+01  0.10312054586E+02  0.66845512419E+02  0.68468319473E+02  0.47000000000E+01 0. -1.
        -11    1    4    4    0    0 -0.54754149070E+02  0.81771080376E+01 -0.30595172744E+02  0.63253035749E+02  0.00000000000E+00 0.  1.
         12    1    4    4    0    0 -0.41316041218E+02 -0.53186948767E+02 -0.38501610026E+01  0.67458806103E+02  0.00000000000E+00 0. -1.
         -5    1    5    5    0  501  0.91312472749E+02  0.60925344438E+02 -0.12504912517E+02  0.11058177115E+03  0.47000000000E+01 0.  1.
         13    1    6    6    0    0 -0.16868919584E+02  0.21054579631E+02 -0.77723359818E+00  0.26989995618E+02  0.00000000000E+00 0. -1.
        -14    1    6    6    0    0  0.12078874503E+02 -0.47282137926E+02 -0.43937373065E+02  0.65665763743E+02  0.00000000000E+00 0.  1.
</event>
<event>
12    1  0.1348628E-002  0.2424363E+03  0.7818608E-02  0.1118180E+00
         -1   -1    0    0    0  501 -0.00000000000E+00  0.00000000000E+00  0.28363841298E+03  0.28363841298E+03  0.00000000000E+00 0.  1.
          1   -1    0    0  502    0  0.00000000000E+00 -0.00000000000E+00 -0.37821693934E+03  0.37821693934E+03  0.00000000000E+00 0. -1.
          6    2    1    2  502    0  0.14895761721E+03 -0.85748826174E+02 -0.26989993929E+03  0.36342022233E+03  0.17229929731E+03 0.  0.
         24    2    3    3    0    0  0.12603624704E+02 -0.19976765606E+02 -0.48985209105E+02  0.95569922280E+02  0.78588401267E+02 0.  0.
         -6    2    1    2    0  501 -0.14895761721E+03  0.85748826174E+02  0.17532141293E+03  0.29843512999E+03  0.16966053184E+03 0.  0.
        -24    2    5    5    0    0 -0.10237713766E+03  0.11371250618E+03  0.17087710613E+03  0.24372178301E+03  0.82399695013E+02 0.  0.
          5    1    3    3  502    0  0.13635399250E+03 -0.65772060569E+02 -0.22091473018E+03  0.26785030005E+03  0.47000000000E+01 0. -1.
        -13    1    4    4    0    0  0.22904346671E+01  0.26379622756E+02  0.11623138454E+01  0.26504368718E+02  0.00000000000E+00 0.  1.
         14    1    4    4    0    0  0.10313190037E+02 -0.46356388361E+02 -0.50147522951E+02  0.69065553561E+02  0.00000000000E+00 0. -1.
         -5    1    5    5    0  501 -0.46580479550E+02 -0.27963680004E+02  0.44443067980E+01  0.54713346976E+02  0.47000000000E+01 0.  1.
         11    1    6    6    0    0 -0.46322484921E+02  0.52525723046E+02  0.22223239401E+02  0.73475142465E+02  0.00000000000E+00 0. -1.
        -12    1    6    6    0    0 -0.56054652736E+02  0.61186783132E+02  0.14865386673E+03  0.17024664055E+03  0.00000000000E+00 0.  1.
</event>
<event>
12    1  0.1348628E-002  0.2665656E+03  0.7818608E-02  0.1103261E+00
         -1   -1    0    0    0  501 -0.00000000000E+00  0.00000000000E+00  0.27413093459E+02  0.27413093459E+02  0.00000000000E+00 0.  1.
          1   -1    0    0  502    0  0.00000000000E+00 -0.00000000000E+00 -0.26042983621E+04  0.26042983621E+04  0.00000000000E+00 0. -1.
          6    2    1    2  502    0  0.86617736810E+02  0.18056294550E+03 -0.13660548528E+04  0.13913592328E+04  0.17224704463E+03 0.  0.
         24    2    3    3    0    0  0.80608036492E+02  0.13866544748E+03 -0.13035716274E+04  0.13157433596E+04  0.78459152262E+02 0.  0.
         -6    2    1    2    0  501 -0.86617736810E+02 -0.18056294550E+03 -0.12108304159E+04  0.12403522227E+04  0.17960437305E+03 0.  0.
        -24    2    5    5    0    0  0.56647214465E+01 -0.10210032869E+03 -0.84900465185E+03  0.85876028382E+03  0.78763951164E+02 0.  0.
          5    1    3    3  502    0  0.60097003184E+01  0.41897498019E+02 -0.62483225355E+02  0.75615873260E+02  0.47000000000E+01 0. -1.
        -11    1    4    4    0    0 -0.15408391585E+02  0.20943773027E+02 -0.23327172124E+03  0.23471633111E+03  0.00000000000E+00 0.  1.
         12    1    4    4    0    0  0.96016428076E+02  0.11772167445E+03 -0.10702999062E+04  0.10810270285E+04  0.00000000000E+00 0. -1.
         -5    1    5    5    0  501 -0.92282458257E+02 -0.78462616804E+02 -0.36182576403E+03  0.38159193892E+03  0.47000000000E+01 0.  1.
         11    1    6    6    0    0 -0.21046288002E+02 -0.43469737826E+02 -0.58569121106E+03  0.58767912934E+03  0.00000000000E+00 0. -1.
        -12    1    6    6    0    0  0.26711009449E+02 -0.58630590868E+02 -0.26331344079E+03  0.27108115448E+03  0.00000000000E+00 0.  1.
</event>
<event>
12    1  0.1348628E-002  0.1961562E+03  0.7818608E-02  0.1153023E+00
         -1   -1    0    0    0  501 -0.00000000000E+00  0.00000000000E+00  0.11975390411E+03  0.11975390411E+03  0.00000000000E+00 0. -1.
          1   -1    0    0  502    0  0.00000000000E+00 -0.00000000000E+00 -0.67399967231E+03  0.67399967231E+03  0.00000000000E+00 0.  1.
          6    2    1    2  502    0  0.20696564523E+02  0.91407628111E+02 -0.56360117886E+03  0.59646292056E+03  0.17128346252E+03 0.  0.
         24    2    3    3    0    0  0.44666875849E+02  0.19828642942E+02 -0.45037355316E+03  0.46029863683E+03  0.81548714287E+02 0.  0.
         -6    2    1    2    0  501 -0.20696564523E+02 -0.91407628111E+02  0.93554106557E+01  0.19729065585E+03  0.17335621396E+03 0.  0.
        -24    2    5    5    0    0 -0.70010096759E+02 -0.83096173720E+02  0.34873102896E+02  0.14095108403E+03  0.82732623852E+02 0.  0.
          5    1    3    3  502    0 -0.23970311326E+02  0.71578985169E+02 -0.11322762570E+03  0.13616428373E+03  0.47000000000E+01 0. -1.
        -13    1    4    4    0    0 -0.87604796988E+01  0.28244436379E+02 -0.68454488582E+02  0.74568835299E+02  0.00000000000E+00 0.  1.
         14    1    4    4    0    0  0.53427355548E+02 -0.84157934362E+01 -0.38191906458E+03  0.38572980153E+03  0.00000000000E+00 0. -1.
         -5    1    5    5    0  501  0.49313532237E+02 -0.83114543913E+01 -0.25517692240E+02  0.56339571821E+02  0.47000000000E+01 0.  1.
         11    1    6    6    0    0 -0.54515212904E+02 -0.99819228697E+02  0.27849230859E+02  0.11709554439E+03  0.00000000000E+00 0. -1.
        -12    1    6    6    0    0 -0.15494883855E+02  0.16723054977E+02  0.70238720371E+01  0.23855539647E+02  0.00000000000E+00 0.  1.
</event>
<event>
12    1  0.1348628E-002  0.1778792E+03  0.7818608E-02  0.1169872E+00
          1   -1    0    0  502    0  0.00000000000E+00  0.00000000000E+00  0.10904038711E+04  0.10904038711E+04  0.00000000000E+00 0. -1.
         -1   -1    0    0    0  501 -0.00000000000E+00 -0.00000000000E+00 -0.41725491193E+02  0.41725491193E+02  0.00000000000E+00 0.  1.
          6    2    1    2  502    0 -0.40944026248E+02 -0.26587680027E+02  0.21125293109E+03  0.27594988859E+03  0.17069628615E+03 0.  0.
         24    2    3    3    0    0 -0.19978224874E+02 -0.35710992280E+01  0.22867005623E+02  0.84950740080E+02  0.79258097852E+02 0.  0.
         -6    2    1    2    0  501  0.40944026248E+02  0.26587680027E+02  0.83742544882E+03  0.85617947371E+03  0.17140184026E+03 0.  0.
        -24    2    5    5    0    0 -0.25023483553E+02  0.57436605843E+02  0.57443637775E+03  0.58325327475E+03  0.79259649280E+02 0.  0.
          5    1    3    3  502    0 -0.20965801374E+02 -0.23016580799E+02  0.18838592547E+03  0.19099914851E+03  0.47000000000E+01 0. -1.
        -11    1    4    4    0    0 -0.91220651608E+01 -0.40452353740E+02  0.20943488560E+02  0.46456804765E+02  0.00000000000E+00 0.  1.
         12    1    4    4    0    0 -0.10856159714E+02  0.36881254512E+02  0.19235170635E+01  0.38493935315E+02  0.00000000000E+00 0. -1.
         -5    1    5    5    0  501  0.65967509801E+02 -0.30848925816E+02  0.26298907108E+03  0.27292619896E+03  0.47000000000E+01 0.  1.
         13    1    6    6    0    0  0.48835451589E+01  0.93996731431E-02  0.34013505786E+03  0.34017011433E+03  0.00000000000E+00 0. -1.
        -14    1    6    6    0    0 -0.29907028711E+02  0.57427206169E+02  0.23430131989E+03  0.24308316041E+03  0.00000000000E+00 0.  1.
</event>
<event>
12    1  0.1348628E-002  0.2264552E+03  0.7818608E-02  0.1129160E+00
         -2   -1    0    0    0  501 -0.00000000000E+00  0.00000000000E+00  0.10829460559E+03  0.10829460559E+03  0.00000000000E+00 0. -1.
          2   -1    0    0  502    0  0.00000000000E+00 -0.00000000000E+00 -0.54864868635E+03  0.54864868635E+03  0.00000000000E+00 0.  1.
          6    2    1    2  502    0 -0.10888193382E+03 -0.97645588150E+02 -0.97972307151E+02  0.24599992890E+03  0.17183554828E+03 0.  0.
         24    2    3    3    0    0 -0.74403415857E+02  0.11956864068E+02 -0.56377814010E+02  0.12371478020E+03  0.80299776071E+02 0.  0.
         -6    2    1    2    0  501  0.10888193382E+03  0.97645588150E+02 -0.34238177360E+03  0.41094336304E+03  0.17395181039E+03 0.  0.
        -24    2    5    5    0    0  0.46720560960E+02 -0.88711529522E+01 -0.71148791687E+02  0.11295129454E+03  0.73717950388E+02 0.  0.
          5    1    3    3  502    0 -0.34478517961E+02 -0.10960245222E+03 -0.41594493141E+02  0.12228514870E+03  0.47000000000E+01 0. -1.
        -11    1    4    4    0    0 -0.69601548370E+02 -0.23715161237E+02 -0.43795302297E+02  0.85585120852E+02  0.00000000000E+00 0.  1.
         12    1    4    4    0    0 -0.48018674863E+01  0.35672025305E+02 -0.12582511714E+02  0.38129659345E+02  0.00000000000E+00 0. -1.
         -5    1    5    5    0  501  0.62161372857E+02  0.10651674110E+03 -0.27123298191E+03  0.29799206850E+03  0.47000000000E+01 0.  1.
         13    1    6    6    0    0  0.71415011036E+01  0.25707858292E+02 -0.29398732781E+01  0.26842836491E+02  0.00000000000E+00 0. -1.
        -14    1    6    6    0    0  0.39579059857E+02 -0.34579011244E+02 -0.68208918409E+02  0.86108458053E+02  0.00000000000E+00 0.  1.
</event>
<event>
12    1  0.1348628E-002  0.1830071E+03  0.7818608E-02  0.1164924E+00
          2   -1    0    0  502    0  0.00000000000E+00  0.00000000000E+00  0.10913016052E+03  0.10913016052E+03  0.00000000000E+00 0. -1.
         -2   -1    0    0    0  501 -0.00000000000E+00 -0.00000000000E+00 -0.30823896077E+03  0.30823896077E+03  0.00000000000E+00 0.  1.
          6    2    1    2  502    0 -0.30003242720E+02  0.56636875626E+02 -0.86306927127E+02  0.20315738140E+03  0.17238360041E+03 0.  0.
         24    2    3    3    0    0 -0.17579979326E+02 -0.39840087019E+02 -0.39836924775E+02  0.95251436644E+02  0.74763409503E+02 0.  0.
         -6    2    1    2    0  501  0.30003242720E+02 -0.56636875626E+02 -0.11280187313E+03  0.21421173989E+03  0.17045373763E+03 0.  0.
        -24    2    5    5    0    0 -0.27012863705E+02 -0.76403387017E+02 -0.98549168508E+02  0.15202829392E+03  0.82664933219E+02 0.  0.
          5    1    3    3  502    0 -0.12423263394E+02  0.96476962644E+02 -0.46470002353E+02  0.10790594475E+03  0.47000000000E+01 0. -1.
        -13    1    4    4    0    0 -0.47019685806E+02 -0.22626639253E+02 -0.20620579057E+02  0.56107253879E+02  0.00000000000E+00 0.  1.
         14    1    4    4    0    0  0.29439706480E+02 -0.17213447766E+02 -0.19216345718E+02  0.39144182765E+02  0.00000000000E+00 0. -1.
         -5    1    5    5    0  501  0.57016106425E+02  0.19766511392E+02 -0.14252704621E+02  0.62183445976E+02  0.47000000000E+01 0.  1.
         11    1    6    6    0    0  0.13012683530E+02 -0.54978135400E+02 -0.17526307554E+02  0.59153163577E+02  0.00000000000E+00 0. -1.
        -12    1    6    6    0    0 -0.40025547235E+02 -0.21425251617E+02 -0.81022860954E+02  0.92875130339E+02  0.00000000000E+00 0.  1.
</event>
<event>
12    1  0.1348628E-002  0.2094706E+03  0.7818608E-02  0.1141986E+00
         -2   -1    0    0    0  501 -0.00000000000E+00  0.00000000000E+00  0.54522591512E+02  0.54522591512E+02  0.00000000000E+00 0. -1.
          2   -1    0    0  502    0  0.00000000000E+00 -0.00000000000E+00 -0.80481229074E+03  0.80481229074E+03  0.00000000000E+00 0.  1.
          6    2    1    2  502    0 -0.57523805034E+02  0.10583881720E+03 -0.37711786238E+03  0.43110289149E+03  0.17064869630E+03 0.  0.
         24    2    3    3    0    0  0.53129167835E+01  0.11997414496E+03 -0.26764833700E+03  0.30400478730E+03  0.79757481532E+02 0.  0.
         -6    2    1    2    0  501  0.57523805034E+02 -0.10583881720E+03 -0.37317183684E+03  0.42823199076E+03  0.17208885706E+03 0.  0.
        -24    2    5    5    0    0 -0.31110712022E+02 -0.82205465370E+02 -0.16181862659E+03  0.19778268524E+03  0.72160291908E+02 0.  0.
          5    1    3    3  502    0 -0.62836721818E+02 -0.14135327763E+02 -0.10946952538E+03  0.12709810419E+03  0.47000000000E+01 0. -1.
        -13    1    4    4    0    0  0.14557581460E+02  0.11494146522E+03 -0.26947090004E+03  0.29332239869E+03  0.00000000000E+00 0.  1.
         14    1    4    4    0    0 -0.92446646763E+01  0.50326797488E+01  0.18225630433E+01  0.10682388613E+02  0.00000000000E+00 0. -1.
         -5    1    5    5    0  501  0.88634517057E+02 -0.23633351831E+02 -0.21135321025E+03  0.23044930552E+03  0.47000000000E+01 0.  1.
         13    1    6    6    0    0  0.14439104179E+02 -0.49511488775E+02 -0.46006402656E+02  0.69111969553E+02  0.00000000000E+00 0. -1.
        -14    1    6    6    0    0 -0.45549816202E+02 -0.32693976596E+02 -0.11581222394E+03  0.12867071568E+03  0.00000000000E+00 0.  1.
</event>
<event>
12    1  0.1348628E-002  0.1919448E+03  0.7818608E-02  0.1156719E+00
          2   -1    0    0  502    0  0.00000000000E+00  0.00000000000E+00  0.95000877753E+03  0.95000877753E+03  0.00000000000E+00 0.  1.
         -2   -1    0    0    0  501 -0.00000000000E+00 -0.00000000000E+00 -0.77294797663E+02  0.77294797663E+02  0.00000000000E+00 0. -1.
          6    2    1    2  502    0  0.38529574593E+02  0.75652372003E+02  0.79913444949E+03  0.82190432829E+03  0.17234571941E+03 0.  0.
         24    2    3    3    0    0 -0.96691611936E+01  0.99610009505E+02  0.66464461810E+03  0.67696747558E+03  0.80726996463E+02 0.  0.
         -6    2    1    2    0  501 -0.38529574593E+02 -0.75652372003E+02  0.73579530378E+02  0.20539924690E+03  0.17195084713E+03 0.  0.
        -24    2    5    5    0    0 -0.59202221638E+02 -0.11117539720E+03  0.49368315575E+02  0.15746683013E+03  0.80583497197E+02 0.  0.
          5    1    3    3  502    0  0.48198735787E+02 -0.23957637503E+02  0.13448983139E+03  0.14493685271E+03  0.47000000000E+01 0. -1.
        -13    1    4    4    0    0  0.26004929883E+02  0.42476833973E+02  0.42912559596E+03  0.43200615147E+03  0.00000000000E+00 0.  1.
         14    1    4    4    0    0 -0.35674091076E+02  0.57133175532E+02  0.23551902214E+03  0.24496132411E+03  0.00000000000E+00 0. -1.
         -5    1    5    5    0  501  0.20672647045E+02  0.35523025195E+02  0.24211214803E+02  0.47932416767E+02  0.47000000000E+01 0.  1.
         11    1    6    6    0    0 -0.38391480837E+02 -0.72134039387E+02 -0.11181963276E+02  0.82475825197E+02  0.00000000000E+00 0. -1.
        -12    1    6    6    0    0 -0.20810740801E+02 -0.39041357810E+02  0.60550278851E+02  0.74991004936E+02  0.00000000000E+00 0.  1.
</event>
<event>
12    1  0.1348628E-002  0.2058162E+03  0.7818608E-02  0.1144923E+00
          2   -1    0    0  502    0  0.00000000000E+00  0.00000000000E+00  0.80076709829E+03  0.80076709829E+03  0.00000000000E+00 0.  1.
         -2   -1    0    0    0  501 -0.00000000000E+00 -0.00000000000E+00 -0.81482004384E+02  0.81482004384E+02  0.00000000000E+00 0. -1.
          6    2    1    2  502    0 -0.57849423293E+02 -0.98148557854E+02  0.99237401258E+02  0.22917133633E+03  0.17231292582E+03 0.  0.
         24    2    3    3    0    0  0.14635147688E+01 -0.11982235950E+03  0.70308315075E+02  0.15955265833E+03  0.78449040158E+02 0.  0.
         -6    2    1    2    0  501  0.57849423293E+02  0.98148557854E+02  0.62004769265E+03  0.65307776634E+03  0.17050434758E+03 0.  0.
        -24    2    5    5    0    0  0.90875739947E+02  0.89227942766E+02  0.35288360371E+03  0.38369132387E+03  0.80449787872E+02 0.  0.
          5    1    3    3  502    0 -0.59312938062E+02  0.21673801643E+02  0.28929086182E+02  0.69618678000E+02  0.47000000000E+01 0. -1.
        -11    1    4    4    0    0  0.28015257903E+02 -0.93662638232E+01  0.12317685368E+02  0.32004795675E+02  0.00000000000E+00 0.  1.
         12    1    4    4    0    0 -0.26551743134E+02 -0.11045609567E+03  0.57990629707E+02  0.12754786266E+03  0.00000000000E+00 0. -1.
         -5    1    5    5    0  501 -0.33026316654E+02  0.89206150885E+01  0.26716408894E+03  0.26938644247E+03  0.47000000000E+01 0.  1.
         11    1    6    6    0    0  0.92049843718E+02  0.38468315962E+02  0.24044258499E+03  0.26031830850E+03  0.00000000000E+00 0. -1.
        -12    1    6    6    0    0 -0.11741037715E+01  0.50759626804E+02  0.11244101871E+03  0.12337301537E+03  0.00000000000E+00 0.  1.
</event>
<event>
12    1  0.1348628E-002  0.2755398E+03  0.7818608E-02  0.1098150E+00
          1   -1    0    0  502    0  0.00000000000E+00  0.00000000000E+00  0.18976784975E+03  0.18976784975E+03  0.00000000000E+00 0.  1.
         -1   -1    0    0    0  501 -0.00000000000E+00 -0.00000000000E+00 -0.45547148155E+03  0.45547148155E+03  0.00000000000E+00 0. -1.
          6    2    1    2  502    0 -0.20622018193E+03 -0.58883723625E+02 -0.19187162850E+02  0.27338380526E+03  0.16845326181E+03 0.  0.
         24    2    3    3    0    0 -0.15100742100E+03 -0.10432363787E+03 -0.48305759108E+01  0.20029867431E+03  0.80059739267E+02 0.  0.
         -6    2    1    2    0  501  0.20622018193E+03  0.58883723625E+02 -0.24651646894E+03  0.37185552605E+03  0.17751649626E+03 0.  0.
        -24    2    5    5    0    0  0.25964433687E+02  0.45774165760E+02 -0.64660048710E+02  0.11542260526E+03  0.79824995067E+02 0.  0.
          5    1    3    3  502    0 -0.55212760932E+02  0.45439914247E+02 -0.14356586939E+02  0.73085130943E+02  0.47000000000E+01 0. -1.
        -13    1    4    4    0    0 -0.14529352467E+03 -0.95302505822E+02  0.18399158332E+02  0.17473209481E+03  0.00000000000E+00 0.  1.
         14    1    4    4    0    0 -0.57138963293E+01 -0.90211320502E+01 -0.23229734243E+02  0.25566579508E+02  0.00000000000E+00 0. -1.
         -5    1    5    5    0  501  0.18025574825E+03  0.13109557865E+02 -0.18185642023E+03  0.25643292079E+03  0.47000000000E+01 0.  1.
         13    1    6    6    0    0 -0.31661053191E+01 -0.20471582394E+02 -0.26420342224E+02  0.33572971150E+02  0.00000000000E+00 0. -1.
        -14    1    6    6    0    0  0.29130539006E+02  0.66245748155E+02 -0.38239706486E+02  0.81849634107E+02  0.00000000000E+00 0.  1.
</event>
<event>
12    1  0.1348628E-002  0.2232989E+03  0.7818608E-02  0.1131447E+00
          1   -1    0    0  502    0  0.00000000000E+00  0.00000000000E+00  0.14444823259E+04  0.14444823259E+04  0.00000000000E+00 0. -1.
         -1   -1    0    0    0  501 -0.00000000000E+00 -0.00000000000E+00 -0.37745788023E+02  0.37745788023E+02  0.00000000000E+00 0.  1.
          6    2    1    2  502    0 -0.13721861675E+03  0.38505708543E+02  0.91969662596E+03  0.94638764642E+03  0.17174415597E+03 0.  0.
         24    2    3    3    0    0 -0.11348285360E+03 -0.23495957472E+02  0.43620223378E+03  0.45833384783E+03  0.79794167934E+02 0.  0.
         -6    2    1    2    0  501  0.13721861675E+03 -0.38505708543E+02  0.48703991193E+03  0.53584046752E+03  0.17206246670E+03 0.  0.
        -24    2    5    5    0    0  0.10501280337E+03 -0.82665491274E+02  0.42631024713E+03  0.45400231620E+03  0.80724246535E+02 0.  0.
          5    1    3    3  502    0 -0.23735763157E+02  0.62001666015E+02  0.48349439219E+03  0.48805379859E+03  0.47000000000E+01 0. -1.
        -11    1    4    4    0    0 -0.27609119835E+02 -0.28904197943E+02  0.25046432135E+03  0.25363377620E+03  0.00000000000E+00 0.  1.
         12    1    4    4    0    0 -0.85873733760E+02  0.54082404705E+01  0.18573791242E+03  0.20470007163E+03  0.00000000000E+00 0. -1.
         -5    1    5    5    0  501  0.32205813378E+02  0.44159782731E+02  0.60729664794E+02  0.81838151324E+02  0.47000000000E+01 0.  1.
         13    1    6    6    0    0  0.91270674917E+02 -0.98842061854E+02  0.35671629850E+03  0.38124350080E+03  0.00000000000E+00 0. -1.
        -14    1    6    6    0    0  0.13742128458E+02  0.16176570580E+02  0.69593948638E+02  0.72758815392E+02  0.00000000000E+00 0.  1.
</event>
<event>
12    1  0.1348628E-002  0.2280492E+03  0.7818608E-02  0.1128020E+00
         -1   -1    0    0    0  501 -0.00000000000E+00  0.00000000000E+00  0.15630262338E+03  0.15630262338E+03  0.00000000000E+00 0.  1.
          1   -1    0    0  502    0  0.00000000000E+00 -0.00000000000E+00 -0.41483970768E+03  0.41483970768E+03  0.00000000000E+00 0. -1.
          6    2    1    2  502    0 -0.32006439108E+02 -0.14510888153E+03 -0.23346958954E+01  0.22831512974E+03  0.17332440111E+03 0.  0.
         24    2    3    3    0    0  0.38808372213E+01 -0.16505399322E+03  0.12359175557E+02  0.18445508026E+03  0.81320635987E+02 0.  0.
         -6    2    1    2    0  501  0.32006439108E+02  0.14510888153E+03 -0.25620238841E+03  0.34282720132E+03  0.17265522435E+03 0.  0.
        -24    2    5    5    0    0  0.58297412401E+02  0.94913303096E+02 -0.81079434475E+02  0.15870509410E+03  0.78780129490E+02 0.  0.
          5    1    3    3  502    0 -0.35887276329E+02  0.19945111688E+02 -0.14693871453E+02  0.43860049485E+02  0.47000000000E+01 0. -1.
        -11    1    4    4    0    0 -0.35168421979E+02 -0.10322193779E+03  0.20206641247E+02  0.11090489032E+03  0.00000000000E+00 0.  1.
         12    1    4    4    0    0  0.39049259200E+02 -0.61832055426E+02 -0.78474656896E+01  0.73550189938E+02  0.00000000000E+00 0. -1.
         -5    1    5    5    0  501 -0.26290973293E+02  0.50195578436E+02 -0.17512295393E+03  0.18412210722E+03  0.47000000000E+01 0.  1.
         11    1    6    6    0    0  0.65676522175E+02  0.32739706638E+02 -0.50054029519E+02  0.88829611205E+02  0.00000000000E+00 0. -1.
        -12    1    6    6    0    0 -0.73791097741E+01  0.62173596458E+02 -0.31025404956E+02  0.69875482899E+02  0.00000000000E+00 0.  1.
</event>
<event>
12    1  0.1348628E-002  0.2697153E+03  0.7818608E-02  0.1101443E+00
         -1   -1    0    0    0  501 -0.00000000000E+00  0.00000000000E+00  0.23175293218E+03  0.23175293218E+03  0.00000000000E+00 0. -1.
          1   -1    0    0  502    0  0.00000000000E+00 -0.00000000000E+00 -0.46576285581E+03  0.46576285581E+03  0.00000000000E+00 0.  1.
          6    2    1    2  502    0  0.20190677838E+03  0.65344547205E+02 -0.31702307442E+03  0.41826293337E+03  0.17147593040E+03 0.  0.
         24    2    3    3    0    0  0.19820362080E+03  0.46034530524E+02 -0.32952525174E+03  0.39449352954E+03  0.75062640611E+02 0.  0.
         -6    2    1    2    0  501 -0.20190677838E+03 -0.65344547205E+02  0.83013150797E+02  0.27925285463E+03  0.16141473479E+03 0.  0.
        -24    2    5    5    0    0 -0.16429778741E+03 -0.67368547873E+02  0.11764697674E+03  0.22787071104E+03  0.80944213034E+02 0.  0.
          5    1    3    3  502    0  0.37031575725E+01  0.19310016681E+02  0.12502177321E+02  0.23769403821E+02  0.47000000000E+01 0. -1.
        -11    1    4    4    0    0  0.15520393086E+02 -0.69342149954E+01 -0.74112720541E+02  0.76037236175E+02  0.00000000000E+00 0.  1.
         12    1    4    4    0    0  0.18268322772E+03  0.52968745519E+02 -0.25541253120E+03  0.31845629337E+03  0.00000000000E+00 0. -1.
         -5    1    5    5    0  501 -0.37608990967E+02  0.20240006685E+01 -0.34633825941E+02  0.51382143587E+02  0.47000000000E+01 0.  1.
         13    1    6    6    0    0 -0.99965057605E+02  0.96342038260E-01  0.44715833651E+02  0.10951040043E+03  0.00000000000E+00 0. -1.
        -14    1    6    6    0    0 -0.64332729804E+02 -0.67464889912E+02  0.72931143087E+02  0.11836031061E+03  0.00000000000E+00 0.  1.
</event>
<event>
12    1  0.1348628E-002  0.1982164E+03  0.7818608E-02  0.1151253E+00
         -2   -1    0    0    0  501 -0.00000000000E+00  0.00000000000E+00  0.67831644464E+02  0.67831644464E+02  0.00000000000E+00 0. -1.
          2   -1    0    0  502    0  0.00000000000E+00 -0.00000000000E+00 -0.11459713838E+04  0.11459713838E+04  0.00000000000E+00 0.  1.
          6    2    1    2  502    0 -0.36354142517E+01  0.96111358013E+02 -0.96538837738E+03  0.98545708689E+03  0.17291715225E+03 0.  0.
         24    2    3    3    0    0 -0.32368133609E+02  0.12347830990E+03 -0.87493371261E+03  0.88657000181E+03  0.64828832741E+02 0.  0.
         -6    2    1    2    0  501  0.36354142517E+01 -0.96111358013E+02 -0.11275136200E+03  0.22834594142E+03  0.17371928492E+03 0.  0.
        -24    2    5    5    0    0  0.29170768971E+02 -0.23501950247E+02  0.50777672946E+01  0.87527000411E+02  0.78942489525E+02 0.  0.
          5    1    3    3  502    0  0.28732719357E+02 -0.27366951885E+02 -0.90454664768E+02  0.98887085079E+02  0.47000000000E+01 0. -1.
        -11    1    4    4    0    0  0.19124212526E+02  0.38054126285E+02 -0.30771085109E+03  0.31064420148E+03  0.00000000000E+00 0.  1.
         12    1    4    4    0    0 -0.51492346135E+02  0.85424183612E+02 -0.56722286153E+03  0.57592580034E+03  0.00000000000E+00 0. -1.
         -5    1    5    5    0  501 -0.25535354720E+02 -0.72609407765E+02 -0.11782912929E+03  0.14081894101E+03  0.47000000000E+01 0.  1.
         13    1    6    6    0    0 -0.19089563131E+02 -0.31964520813E+02  0.92198707525E+01  0.38355547552E+02  0.00000000000E+00 0. -1.
        -14    1    6    6    0    0  0.48260332102E+02  0.84625705651E+01 -0.41421034579E+01  0.49171452859E+02  0.00000000000E+00 0.  1.
</event>
<event>
12    1  0.1348628E-002  0.2605803E+03  0.7818608E-02  0.1106795E+00
         -2   -1    0    0    0  501 -0.00000000000E+00  0.00000000000E+00  0.19477657594E+03  0.19477657594E+03  0.00000000000E+00 0.  1.
          2   -1    0    0  502    0  0.00000000000E+00 -0.00000000000E+00 -0.67844558449E+03  0.67844558449E+03  0.00000000000E+00 0. -1.
          6    2    1    2  502    0 -0.11125994987E+03 -0.16184404521E+03 -0.54663224192E+03  0.60590281217E+03  0.17245039425E+03 0.  0.
         24    2    3    3    0    0 -0.12364660799E+02 -0.70336897212E+02 -0.13244854874E+03  0.17032955997E+03  0.79808376698E+02 0.  0.
         -6    2    1    2    0  501  0.11125994987E+03  0.16184404521E+03  0.62963233371E+02  0.26731934826E+03  0.17006761533E+03 0.  0.
        -24    2    5    5    0    0 -0.73746673013E+01  0.99467785675E+02  0.24762178176E+02  0.12786906765E+03  0.76086180668E+02 0.  0.
          5    1    3    3  502    0 -0.98895289074E+02 -0.91507147998E+02 -0.41418369318E+03  0.43557325220E+03  0.47000000000E+01 0. -1.
        -11    1    4    4    0    0 -0.24500749326E+02 -0.83861435863E+02 -0.11943530247E+03  0.14797911548E+03  0.00000000000E+00 0.  1.
         12    1    4    4    0    0  0.12136088527E+02  0.13524538651E+02 -0.13013246265E+02  0.22350444488E+02  0.00000000000E+00 0. -1.
         -5    1    5    5    0  501  0.11863461717E+03  0.62376259535E+02  0.38201055195E+02  0.13945028062E+03  0.47000000000E+01 0.  1.
         11    1    6    6    0    0  0.53338774902E+00 -0.10059965640E+01 -0.18253266254E+02  0.18288746827E+02  0.00000000000E+00 0. -1.
        -12    1    6    6    0    0 -0.79080550503E+01  0.10047378224E+03  0.43015444430E+02  0.10958032082E+03  0.00000000000E+00 0.  1.
</event>
<event>
12    1  0.1348628E-002  0.1865869E+03  0.7818608E-02  0.1161576E+00
          2   -1    0    0  502    0  0.00000000000E+00  0.00000000000E+00  0.33188444402E+04  0.33188444402E+04  0.00000000000E+00 0. -1.
         -2   -1    0    0    0  501 -0.00000000000E+00 -0.00000000000E+00 -0.10506422336E+02  0.10506422336E+02  0.00000000000E+00 0.  1.
          6    2    1    2  502    0  0.31092204209E+02 -0.68451002083E+02  0.17314298523E+04  0.17416093299E+04  0.17234111445E+03 0.  0.
         24    2    3    3    0    0  0.85538469193E+02 -0.28898031195E+02  0.11848004633E+04  0.11908329576E+04  0.78607056661E+02 0.  0.
         -6    2    1    2    0  501 -0.31092204209E+02  0.68451002083E+02  0.15769081655E+04  0.15877415326E+04  0.16920859011E+03 0.  0.
        -24    2    5    5    0    0 -0.23876727851E+02  0.13924121686E+02  0.13963303902E+04  0.13989144510E+04  0.80368547603E+02 0.  0.
          5    1    3    3  502    0 -0.54446264984E+02 -0.39552970889E+02  0.54662938908E+03  0.55077637230E+03  0.47000000000E+01 0. -1.
        -13    1    4    4    0    0 -0.81450095277E+01 -0.30114519749E+01  0.17936353068E+02  0.19927939798E+02  0.00000000000E+00 0.  1.
         14    1    4    4    0    0  0.93683478721E+02 -0.25886579220E+02  0.11668641102E+04  0.11709050178E+04  0.00000000000E+00 0. -1.
         -5    1    5    5    0  501 -0.72154763578E+01  0.54526880397E+02  0.18057777535E+03  0.18882708157E+03  0.47000000000E+01 0.  1.
         11    1    6    6    0    0 -0.29893373010E+02  0.42749097167E+02  0.10655144480E+04  0.10667905783E+04  0.00000000000E+00 0. -1.
        -12    1    6    6    0    0  0.60166451587E+01 -0.28824975481E+02  0.33081594213E+03  0.33212387267E+03  0.00000000000E+00 0.  1.
</event>
<event>
12    1  0.1348628E-002  0.1919125E+03  0.7818608E-02  0.1156748E+00
          2   -1    0    0  502    0  0.00000000000E+00  0.00000000000E+00  0.10296760809E+04  0.10296760809E+04  0.00000000000E+00 0. -1.
         -2   -1    0    0    0  501 -0.00000000000E+00 -0.00000000000E+00 -0.70585651087E+03  0.70585651087E+03  0.00000000000E+00 0.  1.
          6    2    1    2  502    0 -0.57993633587E+02  0.64052432095E+02  0.10074132182E+04  0.10255731527E+04  0.17161854116E+03 0.  0.
         24    2    3    3    0    0 -0.84199027493E+02  0.41100583280E+02  0.43288984721E+03  0.44997545996E+03  0.79407559916E+02 0.  0.
         -6    2    1    2    0  501  0.57993633587E+02 -0.64052432095E+02 -0.68359364817E+03  0.70995943910E+03  0.17110275790E+03 0.  0.
        -24    2    5    5    0    0  0.20340584383E+02 -0.10552043380E+03 -0.49369304598E+03  0.51191480780E+03  0.82314308989E+02 0.  0.
          5    1    3    3  502    0  0.26205393906E+02  0.22951848814E+02  0.57452337104E+03  0.57559769275E+03  0.47000000000E+01 0. -1.
        -11    1    4    4    0    0 -0.15922143479E+02  0.68502524500E+01  0.95312256168E+01  0.19780921954E+02  0.00000000000E+00 0.  1.
         12    1    4    4    0    0 -0.68276884014E+02  0.34250330830E+02  0.42335862159E+03  0.43019453801E+03  0.00000000000E+00 0. -1.
         -5    1    5    5    0  501  0.37653049204E+02  0.41468001708E+02 -0.18990060219E+03  0.19804463131E+03  0.47000000000E+01 0.  1.
         13    1    6    6    0    0 -0.23679261934E+02 -0.21198996363E+02 -0.21730044212E+03  0.21961235629E+03  0.00000000000E+00 0. -1.
        -14    1    6    6    0    0  0.44019846317E+02 -0.84321437440E+02 -0.27639260387E+03  0.29230245150E+03  0.00000000000E+00 0.  1.
</event>
<event>
12    1  0.1348628E-002  0.2561746E+03  0.7818608E-02  0.1109464E+00
          2   -1    0    0  502    0  0.00000000000E+00  0.00000000000E+00  0.63202407830E+03  0.63202407830E+03  0.00000000000E+00 0.  1.
         -2   -1    0    0    0  501 -0.00000000000E+00 -0.00000000000E+00 -0.19893310240E+03  0.19893310240E+03  0.00000000000E+00 0. -1.
          6    2    1    2  502    0 -0.22299338600E+01  0.19076552421E+03  0.50373052949E+03  0.56504531430E+03  0.17069066476E+03 0.  0.
         24    2    3    3    0    0  0.59445052937E+02  0.12589724851E+03  0.26380421875E+03  0.30892342579E+03  0.80356615585E+02 0.  0.
         -6    2    1    2    0  501  0.22299338600E+01 -0.19076552421E+03 -0.70639553582E+02  0.26591186641E+03  0.17123876995E+03 0.  0.
        -24    2    5    5    0    0 -0.35919910197E+02 -0.19613503853E+03 -0.44243184751E+02  0.21897466823E+03  0.78950950863E+02 0.  0.
          5    1    3    3  502    0 -0.61674986797E+02  0.64868275702E+02  0.23992631073E+03  0.25612188850E+03  0.47000000000E+01 0. -1.
        -11    1    4    4    0    0  0.59315564847E+02  0.41219638094E+02  0.15540173009E+03  0.17136829494E+03  0.00000000000E+00 0.  1.
         12    1    4    4    0    0  0.12948809045E+00  0.84677610418E+02  0.10840248867E+03  0.13755513085E+03  0.00000000000E+00 0. -1.
         -5    1    5    5    0  501  0.38149844057E+02  0.53695143128E+01 -0.26396368831E+02  0.46937198180E+02  0.47000000000E+01 0.  1.
         13    1    6    6    0    0  0.16891650925E+02 -0.10481422486E+03 -0.45560449075E+01  0.10626432680E+03  0.00000000000E+00 0. -1.
        -14    1    6    6    0    0 -0.52811561122E+02 -0.91320813664E+02 -0.39687139844E+02  0.11271034143E+03  0.00000000000E+00 0.  1.
</event>
<event>
12    1  0.1348628E-002  0.1825132E+03  0.7818608E-02  0.1165393E+00
          2   -1    0    0  502    0  0.00000000000E+00  0.00000000000E+00  0.17988930330E+04  0.17988930330E+04  0.00000000000E+00 0. -1.
         -2   -1    0    0    0  501 -0.00000000000E+00 -0.00000000000E+00 -0.19980724729E+02  0.19980724729E+02  0.00000000000E+00 0.  1.
          6    2    1    2  502    0  0.38563699033E+01 -0.11065592994E+02  0.10790439648E+04  0.10926258714E+04  0.17134204975E+03 0.  0.
         24    2    3    3    0    0  0.26331575710E+02  0.35106260359E+02  0.94179179120E+03  0.94600655457E+03  0.77658366752E+02 0.  0.
         -6    2    1    2    0  501 -0.38563699033E+01  0.11065592994E+02  0.69986834349E+03  0.72624788632E+03  0.19360520454E+03 0.  0.
        -24    2    5    5    0    0 -0.29302792903E+01 -0.74942970967E+02  0.43987229229E+03  0.45235307557E+03  0.74233658221E+02 0.  0.
          5    1    3    3  502    0 -0.22475205807E+02 -0.46171853353E+02  0.13725217359E+03  0.14661931685E+03  0.47000000000E+01 0. -1.
        -11    1    4    4    0    0 -0.37026105315E+01  0.60033711831E+01  0.59416483155E+01  0.92224169834E+01  0.00000000000E+00 0.  1.
         12    1    4    4    0    0  0.30034186242E+02  0.29102889176E+02  0.93585014289E+03  0.93678413759E+03  0.00000000000E+00 0. -1.
         -5    1    5    5    0  501 -0.92609061299E+00  0.86008563961E+02  0.25999605120E+03  0.27389481075E+03  0.47000000000E+01 0.  1.
         11    1    6    6    0    0 -0.14773571381E+02 -0.29519676238E+01  0.22358314053E+03  0.22409014537E+03  0.00000000000E+00 0. -1.
        -12    1    6    6    0    0  0.11843292091E+02 -0.71991003343E+02  0.21628915177E+03  0.22826293020E+03  0.00000000000E+00 0.  1.
</event>
<event>
12    1  0.1348628E-002  0.1896479E+03  0.7818608E-02  0.1158779E+00
          2   -1    0    0  502    0  0.00000000000E+00  0.00000000000E+00  0.67856020016E+03  0.67856020016E+03  0.00000000000E+00 0. -1.
         -2   -1    0    0    0  501 -0.00000000000E+00 -0.00000000000E+00 -0.80926254759E+02  0.80926254759E+02  0.00000000000E+00 0.  1.
          6    2    1    2  502    0 -0.76093164125E+02 -0.23016408434E+02  0.52163666653E+03  0.55496226454E+03  0.17192550278E+03 0.  0.
         24    2    3    3    0    0 -0.97993221658E+02 -0.43427577903E+02  0.24752556881E+03  0.27918116973E+03  0.72004113102E+02 0.  0.
         -6    2    1    2    0  501  0.76093164125E+02  0.23016408434E+02  0.75997278872E+02  0.20452419038E+03  0.17243733172E+03 0.  0.
        -24    2    5    5    0    0  0.53147413001E+02 -0.18597769415E+02  0.11003089399E+03  0.14588440653E+03  0.77491534365E+02 0.  0.
          5    1    3    3  502    0  0.21900057533E+02  0.20411169469E+02  0.27411109772E+03  0.27578109481E+03  0.47000000000E+01 0. -1.
        -13    1    4    4    0    0 -0.33413365113E+02 -0.54160613455E+02  0.11950054879E+03  0.13538909181E+03  0.00000000000E+00 0.  1.
         14    1    4    4    0    0 -0.64579856545E+02  0.10733035553E+02  0.12802502002E+03  0.14379207792E+03  0.00000000000E+00 0. -1.
         -5    1    5    5    0  501  0.22945751123E+02  0.41614177849E+02 -0.34033615122E+02  0.58639783858E+02  0.47000000000E+01 0.  1.
         11    1    6    6    0    0  0.50455702254E+02  0.13219008473E+02  0.99359771188E+02  0.11221802086E+03  0.00000000000E+00 0. -1.
        -12    1    6    6    0    0  0.26917107470E+01 -0.31816777888E+02  0.10671122806E+02  0.33666385667E+02  0.00000000000E+00 0.  1.
</event>
<event>
12    1  0.1348628E-002  0.1977667E+03  0.7818608E-02  0.1151637E+00
          1   -1    0    0  502    0  0.00000000000E+00  0.00000000000E+00  0.13233828033E+04  0.13233828033E+04  0.00000000000E+00 0.  1.
         -1   -1    0    0    0  501 -0.00000000000E+00 -0.00000000000E+00 -0.35475299750E+02  0.35475299750E+02  0.00000000000E+00 0. -1.
          6    2    1    2  502    0  0.12400956229E+02 -0.96734935560E+02  0.92173029846E+03  0.94272375537E+03  0.17213339121E+03 0.  0.
         24    2    3    3    0    0  0.41771383423E+02 -0.12369406564E+03  0.62992879319E+03  0.64817388665E+03  0.79208790493E+02 0.  0.
         -6    2    1    2    0  501 -0.12400956229E+02  0.96734935560E+02  0.36617720509E+03  0.41613434768E+03  0.17196109536E+03 0.  0.
        -24    2    5    5    0    0 -0.54852503001E+02  0.11547104672E+03  0.29895036775E+03  0.33431311973E+03  0.77791901418E+02 0.  0.
          5    1    3    3  502    0 -0.29370427194E+02  0.26959130081E+02  0.29180150527E+03  0.29454986872E+03  0.47000000000E+01 0. -1.
        -11    1    4    4    0    0  0.27093502794E+02  0.90750294887E-01  0.87093157452E+02  0.91210110208E+02  0.00000000000E+00 0.  1.
         12    1    4    4    0    0  0.14677880629E+02 -0.12378481594E+03  0.54283563574E+03  0.55696377644E+03  0.00000000000E+00 0. -1.
         -5    1    5    5    0  501  0.42451546772E+02 -0.18736111164E+02  0.67226837335E+02  0.81821227948E+02  0.47000000000E+01 0.  1.
         11    1    6    6    0    0 -0.88750521061E+00  0.72269619032E+02  0.20714838701E+03  0.21939494010E+03  0.00000000000E+00 0. -1.
        -12    1    6    6    0    0 -0.53964997790E+02  0.43201427691E+02  0.91801980749E+02  0.11491817963E+03  0.00000000000E+00 0.  1.
</event>
<event>
12    1  0.1348628E-002  0.2796288E+03  0.7818608E-02  0.1095892E+00
          2   -1    0    0  502    0  0.00000000000E+00  0.00000000000E+00  0.57975097990E+02  0.57975097990E+02  0.00000000000E+00 0.  1.
         -2   -1    0    0    0  501 -0.00000000000E+00 -0.00000000000E+00 -0.17337100949E+04  0.17337100949E+04  0.00000000000E+00 0. -1.
          6    2    1    2  502    0 -0.55959916777E+02  0.21095248082E+03 -0.12607115349E+04  0.12914150066E+04  0.17529028333E+03 0.  0.
         24    2    3    3    0    0  0.36916618951E+02  0.12447284716E+03 -0.67443143971E+03  0.69153900439E+03  0.80697591653E+02 0.  0.
         -6    2    1    2    0  501  0.55959916777E+02 -0.21095248082E+03 -0.41502346195E+03  0.50027018629E+03  0.17433681159E+03 0.  0.
        -24    2    5    5    0    0  0.88090044181E+02 -0.12474073829E+03 -0.34059102170E+03  0.38183417911E+03  0.80467313833E+02 0.  0.
          5    1    3    3  502    0 -0.92876535728E+02  0.86479633666E+02 -0.58628009522E+03  0.59987600217E+03  0.47000000000E+01 0. -1.
        -13    1    4    4    0    0  0.23845159526E+02  0.13431327435E+02 -0.48401563088E+02  0.55603088933E+02  0.00000000000E+00 0.  1.
         14    1    4    4    0    0  0.13071459425E+02  0.11104151972E+03 -0.62602987662E+03  0.63593591546E+03  0.00000000000E+00 0. -1.
         -5    1    5    5    0  501 -0.32130127404E+02 -0.86211742531E+02 -0.74432440245E+02  0.11843600719E+03  0.47000000000E+01 0.  1.
         11    1    6    6    0    0 -0.14640306887E+02 -0.17937163456E+02 -0.31916939096E+02  0.39430589900E+02  0.00000000000E+00 0. -1.
        -12    1    6    6    0    0  0.10273035107E+03 -0.10680357483E+03 -0.30867408261E+03  0.34240358921E+03  0.00000000000E+00 0.  1.
</event>
<event>
12    1  0.1348628E-002  0.2779149E+03  0.7818608E-02  0.1096833E+00
          2   -1    0    0  502    0  0.00000000000E+00  0.00000000000E+00  0.25238973388E+03  0.25238973388E+03  0.00000000000E+00 0. -1.
         -2   -1    0    0    0  501 -0.00000000000E+00 -0.00000000000E+00 -0.30659773392E+03  0.30659773392E+03  0.00000000000E+00 0.  1.
          6    2    1    2  502    0  0.19282120429E+03  0.10219356163E+03 -0.14951524298E+02  0.27785691434E+03  0.17133994253E+03 0.  0.
         24    2    3    3    0    0  0.10680767577E+03  0.33004742095E+01  0.11034610872E+02  0.14415747886E+03  0.96129305313E+02 0.  0.
         -6    2    1    2    0  501 -0.19282120429E+03 -0.10219356163E+03 -0.39256475736E+02  0.28113055346E+03  0.17282874860E+03 0.  0.
        -24    2    5    5    0    0 -0.11402175644E+03 -0.80599081018E+02 -0.92931596503E+02  0.18325929535E+03  0.73827602581E+02 0.  0.
          5    1    3    3  502    0  0.86013528521E+02  0.98893087420E+02 -0.25986135170E+02  0.13369943549E+03  0.47000000000E+01 0. -1.
        -13    1    4    4    0    0  0.12498726623E+03  0.22528365592E+00  0.12770041840E+02  0.12563813689E+03  0.00000000000E+00 0.  1.
         14    1    4    4    0    0 -0.18179590461E+02  0.30751905535E+01 -0.17354309682E+01  0.18519341968E+02  0.00000000000E+00 0. -1.
         -5    1    5    5    0  501 -0.78799447851E+02 -0.21594480612E+02  0.53675120767E+02  0.97871258109E+02  0.47000000000E+01 0.  1.
         11    1    6    6    0    0 -0.36748012059E+02 -0.53212616317E+02 -0.79113933343E+01  0.65150510896E+02  0.00000000000E+00 0. -1.
        -12    1    6    6    0    0 -0.77273744377E+02 -0.27386464701E+02 -0.85020203168E+02  0.11810878446E+03  0.00000000000E+00 0.  1.
</event>
<event>
12    1  0.1348628E-002  0.1750465E+03  0.7818608E-02  0.1172685E+00
         -1   -1    0    0    0  501 -0.00000000000E+00  0.00000000000E+00  0.14059077863E+02  0.14059077863E+02  0.00000000000E+00 0. -1.
          1   -1    0    0  502    0  0.00000000000E+00 -0.00000000000E+00 -0.22639760316E+04  0.22639760316E+04  0.00000000000E+00 0.  1.
          6    2    1    2  502    0 -0.33853101654E+02 -0.53280980382E+01 -0.89632657755E+03  0.91299011105E+03  0.17022099794E+03 0.  0.
         24    2    3    3    0    0 -0.62891745977E+02 -0.47402039643E+02 -0.74256707215E+03  0.75088664123E+03  0.78883244542E+02 0.  0.
         -6    2    1    2    0  501  0.33853101654E+02  0.53280980382E+01 -0.13535903762E+04  0.13650449984E+04  0.17310840551E+03 0.  0.
        -24    2    5    5    0    0  0.51900582555E+02  0.51102751843E+02 -0.57633317045E+03  0.58621774904E+03  0.78652172303E+02 0.  0.
          5    1    3    3  502    0  0.29038644322E+02  0.42073941605E+02 -0.15375950540E+03  0.16210346982E+03  0.47000000000E+01 0. -1.
        -13    1    4    4    0    0 -0.79302236861E+02 -0.40450233852E+02 -0.68093048730E+03  0.68672512312E+03  0.00000000000E+00 0.  1.
         14    1    4    4    0    0  0.16410490885E+02 -0.69518057914E+01 -0.61636584850E+02  0.64161518115E+02  0.00000000000E+00 0. -1.
         -5    1    5    5    0  501 -0.18047480901E+02 -0.45774653804E+02 -0.77725720571E+03  0.77882724935E+03  0.47000000000E+01 0.  1.
         11    1    6    6    0    0  0.14786689702E+01  0.30051741301E+01  0.18664724448E+01  0.38342212851E+01  0.00000000000E+00 0. -1.
        -12    1    6    6    0    0  0.50421913585E+02  0.48097577712E+02 -0.57819964289E+03  0.58238352775E+03  0.00000000000E+00 0.  1.
</event>
<event>
12    1  0.1348628E-002  0.1729817E+03  0.7818608E-02  0.1174774E+00
          2   -1    0    0  502    0  0.00000000000E+00  0.00000000000E+00  0.23865360396E+02  0.23865360396E+02  0.00000000000E+00 0.  1.
         -2   -1    0    0    0  501 -0.00000000000E+00 -0.00000000000E+00 -0.13483321679E+04  0.13483321679E+04  0.00000000000E+00 0. -1.
          6    2    1    2  502    0 -0.73145101063E+01  0.46335973398E+01 -0.84511296518E+03  0.86270395466E+03  0.17311041902E+03 0.  0.
         24    2    3    3    0    0  0.69629402111E+00 -0.60699045647E+02 -0.40866948573E+03  0.42129991301E+03  0.82450040438E+02 0.  0.
         -6    2    1    2    0  501  0.73145101063E+01 -0.46335973398E+01 -0.47935384235E+03  0.50949357367E+03  0.17241990359E+03 0.  0.
        -24    2    5    5    0    0 -0.55779450214E+02  0.20057723551E+02 -0.35734954059E+03  0.36985959212E+03  0.74724590204E+02 0.  0.
          5    1    3    3  502    0 -0.80108041274E+01  0.65332642986E+02 -0.43644347945E+03  0.44140404165E+03  0.47000000000E+01 0. -1.
        -13    1    4    4    0    0 -0.37509821864E+02 -0.10025302656E+02 -0.16409109077E+03  0.16862200183E+03  0.00000000000E+00 0.  1.
         14    1    4    4    0    0  0.38206115885E+02 -0.50673742990E+02 -0.24457839496E+03  0.25267791118E+03  0.00000000000E+00 0. -1.
         -5    1    5    5    0  501  0.63093960321E+02 -0.24691320891E+02 -0.12200430176E+03  0.13963398155E+03  0.47000000000E+01 0.  1.
         11    1    6    6    0    0 -0.47879440340E+02 -0.19987048937E+02 -0.24206066808E+03  0.24755865964E+03  0.00000000000E+00 0. -1.
        -12    1    6    6    0    0 -0.79000098741E+01  0.40044772489E+02 -0.11528887251E+03  0.12230093247E+03  0.00000000000E+00 0.  1.
</event>
<event>
12    1  0.1348628E-002  0.2354074E+03  0.7818608E-02  0.1122891E+00
          1   -1    0    0  502    0  0.00000000000E+00  0.00000000000E+00  0.18876805189E+04  0.18876805189E+04  0.00000000000E+00 0.  1.
         -1   -1    0    0    0  501 -0.00000000000E+00 -0.00000000000E+00 -0.29382660758E+02  0.29382660758E+02  0.00000000000E+00 0. -1.
          6    2    1    2  502    0 -0.28266400850E+02  0.15738591164E+03  0.89883720848E+03  0.92902036363E+03  0.17204997557E+03 0.  0.
         24    2    3    3    0    0  0.51098235655E+02  0.60691610041E+02  0.40391813081E+03  0.41851520506E+03  0.75568639330E+02 0.  0.
         -6    2    1    2    0  501  0.28266400850E+02 -0.15738591164E+03  0.95946064969E+03  0.98804281605E+03  0.17347781833E+03 0.  0.
        -24    2    5    5    0    0  0.25922993308E+02 -0.79299213732E+02  0.24798905538E+03  0.27227962654E+03  0.75347571703E+02 0.  0.
          5    1    3    3  502    0 -0.79364636505E+02  0.96694301602E+02  0.49491907767E+03  0.51050515857E+03  0.47000000000E+01 0. -1.
        -13    1    4    4    0    0  0.32128777192E+02  0.44418247099E+02  0.37995765741E+03  0.38389199057E+03  0.00000000000E+00 0.  1.
         14    1    4    4    0    0  0.18969458463E+02  0.16273362943E+02  0.23960473401E+02  0.34623214487E+02  0.00000000000E+00 0. -1.
         -5    1    5    5    0  501  0.23434075428E+01 -0.78086697912E+02  0.71147159431E+03  0.71576318951E+03  0.47000000000E+01 0.  1.
         11    1    6    6    0    0  0.20117432479E+02 -0.91897585646E+02  0.18229923477E+03  0.20514114247E+03  0.00000000000E+00 0. -1.
        -12    1    6    6    0    0  0.58055608288E+01  0.12598371915E+02  0.65689820612E+02  0.67138484072E+02  0.00000000000E+00 0.  1.
</event>
<event>
12    1  0.1348628E-002  0.2172314E+03  0.7818608E-02  0.1135964E+00
          2   -1    0    0  502    0  0.00000000000E+00  0.00000000000E+00  0.15918440008E+04  0.15918440008E+04  0.00000000000E+00 0. -1.
         -2   -1    0    0    0  501 -0.00000000000E+00 -0.00000000000E+00 -0.50029356690E+02  0.50029356690E+02  0.00000000000E+00 0.  1.
          6    2    1    2  502    0 -0.46902118086E+02  0.11863762360E+03  0.13011125824E+04  0.13196209880E+04  0.17952967869E+03 0.  0.
         24    2    3    3    0    0 -0.37540559975E+02  0.14225125338E+03  0.12601931628E+04  0.12712295510E+04  0.79328751865E+02 0.  0.
         -6    2    1    2    0  501  0.46902118086E+02 -0.11863762360E+03  0.24070206173E+03  0.32225236949E+03  0.17214648619E+03 0.  0.
        -24    2    5    5    0    0  0.96511235248E+02 -0.81886188130E+02  0.19245153770E+03  0.24375437217E+03  0.79742292744E+02 0.  0.
          5    1    3    3  502    0 -0.93615581110E+01 -0.23613629781E+02  0.40919419527E+02  0.48391437013E+02  0.47000000000E+01 0. -1.
        -11    1    4    4    0    0 -0.33151533181E+02  0.99286111060E+01  0.28317879057E+03  0.28528552171E+03  0.00000000000E+00 0.  1.
         12    1    4    4    0    0 -0.43890267944E+01  0.13232264227E+03  0.97701437226E+03  0.98594402925E+03  0.00000000000E+00 0. -1.
         -5    1    5    5    0  501 -0.49609117162E+02 -0.36751435465E+02  0.48250524029E+02  0.78497997322E+02  0.47000000000E+01 0.  1.
         13    1    6    6    0    0  0.50780831020E+02  0.70092406584E+00  0.97082341345E+02  0.10956352082E+03  0.00000000000E+00 0. -1.
        -14    1    6    6    0    0  0.45730404229E+02 -0.82587112196E+02  0.95369196354E+02  0.13419085135E+03  0.00000000000E+00 0.  1.
</event>
<event>
12    1  0.1348628E-002  0.2129009E+03  0.7818608E-02  0.1139289E+00
          2   -1    0    0  502    0  0.00000000000E+00  0.00000000000E+00  0.65128422464E+03  0.65128422464E+03  0.00000000000E+00 0. -1.
         -2   -1    0    0    0  501 -0.00000000000E+00 -0.00000000000E+00 -0.70237678123E+02  0.70237678123E+02  0.00000000000E+00 0.  1.
          6    2    1    2  502    0 -0.12312779650E+03  0.22496213774E+02  0.25772101286E+03  0.33505211727E+03  0.17370453912E+03 0.  0.
         24    2    3    3    0    0 -0.10528864324E+03 -0.34558586787E+02  0.23325871571E+03  0.27029117504E+03  0.79797847930E+02 0.  0.
         -6    2    1    2    0  501  0.12312779650E+03 -0.22496213774E+02  0.32332553366E+03  0.38646978549E+03  0.17074238044E+03 0.  0.
        -24    2    5    5    0    0  0.15302772438E+03 -0.16434825797E+01  0.24173153751E+03  0.29697949388E+03  0.79639802208E+02 0.  0.
          5    1    3    3  502    0 -0.17839153261E+02  0.57054800562E+02  0.24462297146E+02  0.64760942225E+02  0.47000000000E+01 0. -1.
        -11    1    4    4    0    0 -0.46476889922E+02  0.22264612180E+02  0.62859029824E+02  0.81283896823E+02  0.00000000000E+00 0.  1.
         12    1    4    4    0    0 -0.58811753319E+02 -0.56823198967E+02  0.17039968589E+03  0.18900727822E+03  0.00000000000E+00 0. -1.
         -5    1    5    5    0  501 -0.29899927877E+02 -0.20852731195E+02  0.81593996150E+02  0.89490291613E+02  0.47000000000E+01 0.  1.
         11    1    6    6    0    0  0.55574846226E+02  0.31922046134E+02  0.13016998589E+03  0.14509240431E+03  0.00000000000E+00 0. -1.
        -12    1    6    6    0    0  0.97452878153E+02 -0.33565528713E+02  0.11156155162E+03  0.15188708957E+03  0.00000000000E+00 0.  1.
</event>
<event>
12    1  0.1348628E-002  0.2967935E+03  0.7818608E-02  0.1086855E+00
          2   -1    0    0  502    0  0.00000000000E+00  0.00000000000E+00  0.43448981678E+03  0.43448981678E+03  0.00000000000E+00 0. -1.
         -2   -1    0    0    0  501 -0.00000000000E+00 -0.00000000000E+00 -0.20273939856E+03  0.20273939856E+03  0.00000000000E+00 0.  1.
          6    2    1    2  502    0 -0.22922812939E+03  0.76236021297E+02  0.11445418829E+03  0.31816684834E+03  0.17254830025E+03 0.  0.
         24    2    3    3    0    0 -0.22760161268E+03  0.97316247229E+02  0.70817843194E+02  0.26945091567E+03  0.79471271388E+02 0.  0.
         -6    2    1    2    0  501  0.22922812939E+03 -0.76236021297E+02  0.11729622992E+03  0.31906236700E+03  0.17229312882E+03 0.  0.
        -24    2    5    5    0    0  0.17567924966E+03 -0.12001587276E+03  0.81154752242E+02  0.24088018027E+03  0.78550359384E+02 0.  0.
          5    1    3    3  502    0 -0.16265167116E+01 -0.21080225932E+02  0.43636345096E+02  0.48715932663E+02  0.47000000000E+01 0. -1.
        -13    1    4    4    0    0 -0.29297344212E+02 -0.11495784504E+01 -0.13828002949E+02  0.32417118534E+02  0.00000000000E+00 0.  1.
         14    1    4    4    0    0 -0.19830426846E+03  0.98465825680E+02  0.84645846143E+02  0.23703379714E+03  0.00000000000E+00 0. -1.
         -5    1    5    5    0  501  0.53548879723E+02  0.43779851460E+02  0.36141477682E+02  0.78182186734E+02  0.47000000000E+01 0.  1.
         13    1    6    6    0    0  0.20567157814E+02 -0.37363617705E+02  0.43919060585E+02  0.61220354387E+02  0.00000000000E+00 0. -1.
        -14    1    6    6    0    0  0.15511209185E+03 -0.82652255053E+02  0.37235691657E+02  0.17965982588E+03  0.00000000000E+00 0.  1.
</event>
<event>
12    1  0.1348628E-002  0.1950161E+03  0.7818608E-02  0.1154013E+00
         -2   -1    0    0    0  501 -0.00000000000E+00  0.00000000000E+00  0.17565141833E+02  0.17565141833E+02  0.00000000000E+00 0.  1.
          2   -1    0    0  502    0  0.00000000000E+00 -0.00000000000E+00 -0.21704747903E+04  0.21704747903E+04  0.00000000000E+00 0. -1.
          6    2    1    2  502    0  0.66881680572E+02  0.61863022860E+02 -0.11373291861E+04  0.11541505350E+04  0.17391258497E+03 0.  0.
         24    2    3    3    0    0  0.30902857710E+02  0.27761092540E+02 -0.24843675724E+03  0.26386448134E+03  0.78600109998E+02 0.  0.
         -6    2    1    2    0  501 -0.66881680572E+02 -0.61863022860E+02 -0.10155804624E+04  0.10338893971E+04  0.17094858017E+03 0.  0.
        -24    2    5    5    0    0 -0.55208706545E+02  0.18830306614E+02 -0.76698950388E+03  0.77222696878E+03  0.68256944869E+02 0.  0.
          5    1    3    3  502    0  0.35978822862E+02  0.34101930320E+02 -0.88889242885E+03  0.89028605370E+03  0.47000000000E+01 0. -1.
        -11    1    4    4    0    0  0.55889612748E+02  0.72448020077E+01 -0.16653298803E+03  0.17581061422E+03  0.00000000000E+00 0.  1.
         12    1    4    4    0    0 -0.24986755039E+02  0.20516290532E+02 -0.81903769209E+02  0.88053867123E+02  0.00000000000E+00 0. -1.
         -5    1    5    5    0  501 -0.11672974027E+02 -0.80693329474E+02 -0.24859095852E+03  0.26166242834E+03  0.47000000000E+01 0.  1.
         13    1    6    6    0    0 -0.43939320321E+02  0.42197004371E+01 -0.19474116465E+03  0.19968122333E+03  0.00000000000E+00 0. -1.
        -14    1    6    6    0    0 -0.11269386224E+02  0.14610606177E+02 -0.57224833924E+03  0.57254574545E+03  0.00000000000E+00 0.  1.
</event>
<event>
12    1  0.1348628E-002  0.1703944E+03  0.7818608E-02  0.1177437E+00
          1   -1    0    0  502    0  0.00000000000E+00  0.00000000000E+00  0.77771690876E+02  0.77771690876E+02  0.00000000000E+00 0. -1.
         -1   -1    0    0    0  501 -0.00000000000E+00 -0.00000000000E+00 -0.37369077810E+03  0.37369077810E+03  0.00000000000E+00 0.  1.
          6    2    1    2  502    0 -0.23569120177E+02 -0.14723845826E+02 -0.13993903100E+03  0.21735193437E+03  0.16397144847E+03 0.  0.
         24    2    3    3    0    0  0.42623776082E+02 -0.39273780547E+02 -0.56590853974E+02  0.10802120939E+03  0.71462163410E+02 0.  0.
         -6    2    1    2    0  501  0.23569120177E+02  0.14723845826E+02 -0.15598005622E+03  0.23411053461E+03  0.17235332725E+03 0.  0.
        -24    2    5    5    0    0  0.70408743007E+02  0.18494072132E+02 -0.51980525042E+02  0.11989075804E+03  0.79827295357E+02 0.  0.
          5    1    3    3  502    0 -0.66192896259E+02  0.24549934721E+02 -0.83348177025E+02  0.10933072497E+03  0.47000000000E+01 0. -1.
        -13    1    4    4    0    0  0.32608863744E+01  0.97576075792E+00 -0.51368922406E+02  0.51481566392E+02  0.00000000000E+00 0.  1.
         14    1    4    4    0    0  0.39362889707E+02 -0.40249541305E+02 -0.52219315680E+01  0.56539643001E+02  0.00000000000E+00 0. -1.
         -5    1    5    5    0  501 -0.46839622830E+02 -0.37702263052E+01 -0.10399953118E+03  0.11421977657E+03  0.47000000000E+01 0.  1.
         11    1    6    6    0    0  0.43498777138E+02  0.95058361816E+01 -0.72357887009E+02  0.84959804298E+02  0.00000000000E+00 0. -1.
        -12    1    6    6    0    0  0.26909965869E+02  0.89882359501E+01  0.20377361967E+02  0.34930953742E+02  0.00000000000E+00 0.  1.
</event>
<event>
12    1  0.1348628E-002  0.2380318E+03  0.7818608E-02  0.1121111E+00
         -1   -1    0    0    0  501 -0.00000000000E+00  0.00000000000E+00  0.32938054969E+03  0.32938054969E+03  0.00000000000E+00 0. -1.
          1   -1    0    0  502    0  0.00000000000E+00 -0.00000000000E+00 -0.17872486701E+03  0.17872486701E+03  0.00000000000E+00 0.  1.
          6    2    1    2  502    0 -0.16722388371E+03  0.54349586122E+01  0.12391710113E+03  0.26665970462E+03  0.16660907556E+03 0.  0.
         24    2    3    3    0    0 -0.18026288166E+03  0.25518742866E+02  0.73905284294E+02  0.21101219182E+03  0.76930106652E+02 0.  0.
         -6    2    1    2    0  501  0.16722388371E+03 -0.54349586122E+01  0.26738581554E+02  0.24144571207E+03  0.17201079640E+03 0.  0.
        -24    2    5    5    0    0  0.15297517485E+03 -0.66399964895E+02  0.11549397132E+02  0.17685036380E+03  0.57726104522E+02 0.  0.
          5    1    3    3  502    0  0.13038997950E+02 -0.20083784254E+02  0.50011816836E+02  0.55647512799E+02  0.47000000000E+01 0. -1.
        -11    1    4    4    0    0 -0.18074366324E+03  0.16708851784E+02  0.54218818998E+02  0.18943900829E+03  0.00000000000E+00 0.  1.
         12    1    4    4    0    0  0.48078157955E+00  0.88098910823E+01  0.19686465296E+02  0.21573183531E+02  0.00000000000E+00 0. -1.
         -5    1    5    5    0  501  0.14248708857E+02  0.60965006283E+02  0.15189184423E+02  0.64595348273E+02  0.47000000000E+01 0.  1.
         13    1    6    6    0    0  0.12482606635E+03 -0.33124506759E+02  0.24356270376E+02  0.13142301052E+03  0.00000000000E+00 0. -1.
        -14    1    6    6    0    0  0.28149108507E+02 -0.33275458136E+02 -0.12806873244E+02  0.45427353281E+02  0.00000000000E+00 0.  1.
</event>
<event>
12    1  0.1348628E-002  0.2169930E+03  0.7818608E-02  0.1136145E+00
         -2   -1    0    0    0  501 -0.00000000000E+00  0.00000000000E+00  0.16240590712E+03  0.16240590712E+03  0.00000000000E+00 0. -1.
          2   -1    0    0  502    0  0.00000000000E+00 -0.00000000000E+00 -0.43452004807E+03  0.43452004807E+03  0.00000000000E+00 0.  1.
          6    2    1    2  502    0 -0.96365453837E+02 -0.89758344067E+02 -0.30819982862E+03  0.37688789132E+03  0.17237890601E+03 0.  0.
         24    2    3    3    0    0 -0.13181147095E+03 -0.55054630986E+02 -0.26277297217E+03  0.30946047020E+03  0.79440993503E+02 0.  0.
         -6    2    1    2    0  501  0.96365453837E+02  0.89758344067E+02  0.36085687679E+02  0.22003806387E+03  0.17254481063E+03 0.  0.
        -24    2    5    5    0    0  0.66061666931E+02  0.86482823476E+02 -0.38634204555E+02  0.13920366011E+03  0.77727952709E+02 0.  0.
          5    1    3    3  502    0  0.35446017116E+02 -0.34703713081E+02 -0.45426856457E+02  0.67427421118E+02  0.47000000000E+01 0. -1.
        -13    1    4    4    0    0 -0.61402232016E+02 -0.55476907846E+02 -0.19455654901E+03  0.21142415227E+03  0.00000000000E+00 0.  1.
         14    1    4    4    0    0 -0.70409238937E+02  0.42227686056E+00 -0.68216423160E+02  0.98036317935E+02  0.00000000000E+00 0. -1.
         -5    1    5    5    0  501  0.30303786906E+02  0.32755205909E+01  0.74719892234E+02  0.80834403761E+02  0.47000000000E+01 0.  1.
         13    1    6    6    0    0  0.24784760163E+02 -0.11472480295E+02 -0.10365641446E+02  0.29212132121E+02  0.00000000000E+00 0. -1.
        -14    1    6    6    0    0  0.41276906768E+02  0.97955303771E+02 -0.28268563109E+02  0.10999152799E+03  0.00000000000E+00 0.  1.
</event>
<event>
12    1  0.1348628E-002  0.2018198E+03  0.7818608E-02  0.1148213E+00
         -1   -1    0    0    0  501 -0.00000000000E+00  0.00000000000E+00  0.28964987046E+03  0.28964987046E+03  0.00000000000E+00 0. -1.
          1   -1    0    0  502    0  0.00000000000E+00 -0.00000000000E+00 -0.14070465624E+03  0.14070465624E+03  0.00000000000E+00 0.  1.
          6    2    1    2  502    0  0.62244372538E+02  0.83802843287E+02  0.79808042031E+02  0.21739244859E+03  0.17318451049E+03 0.  0.
         24    2    3    3    0    0 -0.17657635016E+02  0.83879420680E+02  0.70646365196E+02  0.13682965943E+03  0.79899295961E+02 0.  0.
         -6    2    1    2    0  501 -0.62244372538E+02 -0.83802843287E+02  0.69137172185E+02  0.21296207811E+03  0.17226613040E+03 0.  0.
        -24    2    5    5    0    0 -0.77743416298E+02 -0.11036506310E+03  0.85046284569E+02  0.17801981522E+03  0.78953772308E+02 0.  0.
          5    1    3    3  502    0  0.79902007554E+02 -0.76577393012E-01  0.91616768348E+01  0.80562789163E+02  0.47000000000E+01 0. -1.
        -13    1    4    4    0    0  0.11198796719E+02 -0.11296451558E+02  0.21070348629E+01  0.16045636842E+02  0.00000000000E+00 0.  1.
         14    1    4    4    0    0 -0.28856431735E+02  0.95175872239E+02  0.68539330333E+02  0.12078402258E+03  0.00000000000E+00 0. -1.
         -5    1    5    5    0  501  0.15499043760E+02  0.26562219818E+02 -0.15909112384E+02  0.34942262891E+02  0.47000000000E+01 0.  1.
         13    1    6    6    0    0 -0.24316888939E+02 -0.46866828177E+02  0.78729516461E+02  0.94795292253E+02  0.00000000000E+00 0. -1.
        -14    1    6    6    0    0 -0.53426527358E+02 -0.63498234927E+02  0.63167681081E+01  0.83224522971E+02  0.00000000000E+00 0.  1.
</event>
<event>
12    1  0.1348628E-002  0.1796211E+03  0.7818608E-02  0.1168170E+00
          2   -1    0    0  502    0  0.00000000000E+00  0.00000000000E+00  0.32736607131E+03  0.32736607131E+03  0.00000000000E+00 0.  1.
         -2   -1    0    0    0  501 -0.00000000000E+00 -0.00000000000E+00 -0.10180775818E+03  0.10180775818E+03  0.00000000000E+00 0. -1.
          6    2    1    2  502    0  0.48667154507E+02 -0.71969038950E+01  0.14911917847E+03  0.23114858721E+03  0.16962562492E+03 0.  0.
         24    2    3    3    0    0  0.89418794620E+01 -0.55806754628E+02  0.42403753781E+02  0.10724827675E+03  0.80683105174E+02 0.  0.
         -6    2    1    2    0  501 -0.48667154507E+02  0.71969038950E+01  0.76439134653E+02  0.19802524228E+03  0.17592830335E+03 0.  0.
        -24    2    5    5    0    0 -0.97846772307E+02  0.13685446305E+02  0.29487186098E+02  0.12956129949E+03  0.78456063431E+02 0.  0.
          5    1    3    3  502    0  0.39725275045E+02  0.48609850733E+02  0.10671542469E+03  0.12390031046E+03  0.47000000000E+01 0. -1.
        -13    1    4    4    0    0  0.16540452167E+02  0.10985101460E+02  0.34174017866E+02  0.39523695539E+02  0.00000000000E+00 0.  1.
         14    1    4    4    0    0 -0.75985727047E+01 -0.66791856088E+02  0.82297359147E+01  0.67724581210E+02  0.00000000000E+00 0. -1.
         -5    1    5    5    0  501  0.49179617801E+02 -0.64885424098E+01  0.46951948555E+02  0.68463942793E+02  0.47000000000E+01 0.  1.
         13    1    6    6    0    0 -0.75834622353E+01  0.30066949977E+02  0.20960244375E+02  0.37428094056E+02  0.00000000000E+00 0. -1.
        -14    1    6    6    0    0 -0.90263310072E+02 -0.16381503672E+02  0.85269417234E+01  0.92133205431E+02  0.00000000000E+00 0.  1.
</event>
<event>
12    1  0.1348628E-002  0.3838095E+03  0.7818608E-02  0.1049535E+00
         -2   -1    0    0    0  501 -0.00000000000E+00  0.00000000000E+00  0.59405666740E+03  0.59405666740E+03  0.00000000000E+00 0.  1.
          2   -1    0    0  502    0  0.00000000000E+00 -0.00000000000E+00 -0.25009106065E+03  0.25009106065E+03  0.00000000000E+00 0. -1.
          6    2    1    2  502    0  0.12928887948E+03 -0.31886069911E+03  0.21068675664E+03  0.43755401087E+03  0.16934238457E+03 0.  0.
         24    2    3    3    0    0  0.13656318159E+03 -0.27493265730E+03  0.22724762842E+03  0.38981575784E+03  0.77957500086E+02 0.  0.
         -6    2    1    2    0  501 -0.12928887948E+03  0.31886069911E+03  0.13327885012E+03  0.40659371718E+03  0.17078477440E+03 0.  0.
        -24    2    5    5    0    0 -0.70769959599E+02  0.20316129816E+03  0.15275513519E+03  0.27539832456E+03  0.78912645329E+02 0.  0.
          5    1    3    3  502    0 -0.72743021140E+01 -0.43928041813E+02 -0.16560871781E+02  0.47738253036E+02  0.47000000000E+01 0. -1.
        -13    1    4    4    0    0  0.92355123836E+02 -0.22922544249E+03  0.20900644821E+03  0.32366258322E+03  0.00000000000E+00 0.  1.
         14    1    4    4    0    0  0.44208057758E+02 -0.45707214812E+02  0.18241180205E+02  0.66153174617E+02  0.00000000000E+00 0. -1.
         -5    1    5    5    0  501 -0.58518919880E+02  0.11569940095E+03 -0.19476285067E+02  0.13119539262E+03  0.47000000000E+01 0.  1.
         11    1    6    6    0    0 -0.85471087987E+02  0.18345178790E+03  0.12312969292E+03  0.23689826222E+03  0.00000000000E+00 0. -1.
        -12    1    6    6    0    0  0.14701128388E+02  0.19709510261E+02  0.29625442266E+02  0.38500062338E+02  0.00000000000E+00 0.  1.
</event>
<event>
12    1  0.1348628E-002  0.2182150E+03  0.7818608E-02  0.1135221E+00
          1   -1    0    0  502    0  0.00000000000E+00  0.00000000000E+00  0.56690273918E+03  0.56690273918E+03  0.00000000000E+00 0. -1.
         -1   -1    0    0    0  501 -0.00000000000E+00 -0.00000000000E+00 -0.86401158051E+02  0.86401158051E+02  0.00000000000E+00 0.  1.
          6    2    1    2  502    0  0.58159487698E+02  0.12097013753E+03  0.29461654847E+03  0.36655665194E+03  0.17189696992E+03 0.  0.
         24    2    3    3    0    0  0.10126732175E+02  0.75365305249E+01  0.65686874286E+02  0.10654662420E+03  0.82934116496E+02 0.  0.
         -6    2    1    2    0  501 -0.58159487698E+02 -0.12097013753E+03  0.18588503265E+03  0.28674724529E+03  0.17220463737E+03 0.  0.
        -24    2    5    5    0    0 -0.33587464475E+02 -0.43630800303E+02  0.43252454454E+01  0.87822124353E+02  0.68280694730E+02 0.  0.
          5    1    3    3  502    0  0.48032755523E+02  0.11343360700E+03  0.22892967419E+03  0.26001002774E+03  0.47000000000E+01 0. -1.
        -11    1    4    4    0    0  0.24571795855E+02  0.37086793429E+02  0.16653665861E+02  0.47503136580E+02  0.00000000000E+00 0.  1.
         12    1    4    4    0    0 -0.14445063680E+02 -0.29550262904E+02  0.49033208425E+02  0.59043487624E+02  0.00000000000E+00 0. -1.
         -5    1    5    5    0  501 -0.24572023223E+02 -0.77339337222E+02  0.18155978721E+03  0.19892512093E+03  0.47000000000E+01 0.  1.
         13    1    6    6    0    0  0.73932492475E+01  0.10505761572E+02  0.14268569044E+02  0.19199563099E+02  0.00000000000E+00 0. -1.
        -14    1    6    6    0    0 -0.40980713723E+02 -0.54136561875E+02 -0.99433235984E+01  0.68622561254E+02  0.00000000000E+00 0.  1.
</event>
<event>
12    1  0.1348628E-002  0.1804933E+03  0.7818608E-02  0.1167326E+00
         -2   -1    0    0    0  501 -0.00000000000E+00  0.00000000000E+00  0.71447826735E+02  0.71447826735E+02  0.00000000000E+00 0.  1.
          2   -1    0    0  502    0  0.00000000000E+00 -0.00000000000E+00 -0.45965408020E+03  0.45965408020E+03  0.00000000000E+00 0. -1.
          6    2    1    2  502    0  0.49895674011E+02 -0.17924573238E+02 -0.16980020334E+03  0.24744892222E+03  0.17201160264E+03 0.  0.
         24    2    3    3    0    0  0.80488801219E+02  0.10760313253E+02 -0.56250593538E+02  0.12631112452E+03  0.78715560355E+02 0.  0.
         -6    2    1    2    0  501 -0.49895674011E+02  0.17924573238E+02 -0.21840605013E+03  0.28365298472E+03  0.17305185464E+03 0.  0.
        -24    2    5    5    0    0  0.69451504762E+01  0.37252167479E+02 -0.20296026372E+03  0.22148307604E+03  0.80161868894E+02 0.  0.
          5    1    3    3  502    0 -0.30593127207E+02 -0.28684886492E+02 -0.11354960980E+03  0.12113779770E+03  0.47000000000E+01 0. -1.
        -11    1    4    4    0    0  0.74550533143E+02 -0.19677702680E+02 -0.22159500891E+02  0.80224917915E+02  0.00000000000E+00 0.  1.
         12    1    4    4    0    0  0.59382680755E+01  0.30438015933E+02 -0.34091092647E+02  0.46086206609E+02  0.00000000000E+00 0. -1.
         -5    1    5    5    0  501 -0.56840824488E+02 -0.19327594241E+02 -0.15445786412E+02  0.62169908681E+02  0.47000000000E+01 0.  1.
         13    1    6    6    0    0  0.28030319838E+02  0.37487255049E+02 -0.55858845512E+02  0.72878005896E+02  0.00000000000E+00 0. -1.
        -14    1    6    6    0    0 -0.21085169362E+02 -0.23508757008E+00 -0.14710141821E+03  0.14860507014E+03  0.00000000000E+00 0.  1.
</event>
<event>
12    1  0.1348628E-002  0.1933722E+03  0.7818608E-02  0.1155454E+00
          2   -1    0    0  502    0  0.00000000000E+00  0.00000000000E+00  0.21616113825E+04  0.21616113825E+04  0.00000000000E+00 0. -1.
         -2   -1    0    0    0  501 -0.00000000000E+00 -0.00000000000E+00 -0.17555352712E+02  0.17555352712E+02  0.00000000000E+00 0.  1.
          6    2    1    2  502    0  0.42462147953E+02 -0.77647520373E+02  0.12048390773E+04  0.12202884626E+04  0.17214690897E+03 0.  0.
         24    2    3    3    0    0 -0.27259758554E+01  0.71771423773E+01  0.80747027471E+03  0.81143488828E+03  0.79745790176E+02 0.  0.
         -6    2    1    2    0  501 -0.42462147953E+02  0.77647520373E+02  0.93921695250E+03  0.95887827265E+03  0.17171746117E+03 0.  0.
        -24    2    5    5    0    0 -0.31157126325E+02  0.81186100445E+02  0.93871369180E+03  0.94612412296E+03  0.80034439110E+02 0.  0.
          5    1    3    3  502    0  0.45188123809E+02 -0.84824662750E+02  0.39736880258E+03  0.40885357429E+03  0.47000000000E+01 0. -1.
        -13    1    4    4    0    0  0.18803909789E+02 -0.25630385402E+01  0.48265711416E+02  0.51862656010E+02  0.00000000000E+00 0.  1.
         14    1    4    4    0    0 -0.21529885644E+02  0.97401809176E+01  0.75920456330E+03  0.75957223227E+03  0.00000000000E+00 0. -1.
         -5    1    5    5    0  501 -0.11305021628E+02 -0.35385800726E+01  0.50326069379E+00  0.12754149688E+02  0.47000000000E+01 0.  1.
         13    1    6    6    0    0 -0.20007700458E+00 -0.16016219453E+02  0.11173628789E+03  0.11287850702E+03  0.00000000000E+00 0. -1.
        -14    1    6    6    0    0 -0.30957049321E+02  0.97202319899E+02  0.82697740392E+03  0.83324561594E+03  0.00000000000E+00 0.  1.
</event>
<event>
12    1  0.1348628E-002  0.1860309E+03  0.7818608E-02  0.1162091E+00
         -2   -1    0    0    0  501 -0.00000000000E+00  0.00000000000E+00  0.86295988203E+03  0.86295988203E+03  0.00000000000E+00 0.  1.
          2   -1    0    0  502    0  0.00000000000E+00 -0.00000000000E+00 -0.40184830085E+02  0.40184830085E+02  0.00000000000E+00 0. -1.
          6    2    1    2  502    0  0.62509517576E+02 -0.41704424016E+02  0.39479455067E+03  0.43709178170E+03  0.17187143340E+03 0.  0.
         24    2    3    3    0    0  0.19671677325E+02 -0.93385829730E+02  0.27114337311E+03  0.29631624417E+03  0.71949285582E+02 0.  0.
         -6    2    1    2    0  501 -0.62509517576E+02  0.41704424016E+02  0.42798050127E+03  0.46605293042E+03  0.16849725727E+03 0.  0.
        -24    2    5    5    0    0 -0.39513623763E+01  0.79354532005E+02  0.22788397230E+03  0.25413950687E+03  0.79643135963E+02 0.  0.
          5    1    3    3  502    0  0.42837840251E+02  0.51681405714E+02  0.12365117756E+03  0.14077553753E+03  0.47000000000E+01 0. -1.
        -11    1    4    4    0    0  0.37017924367E+02 -0.80200533263E+02  0.25295410619E+03  0.26793326053E+03  0.00000000000E+00 0.  1.
         12    1    4    4    0    0 -0.17346247042E+02 -0.13185296467E+02  0.18189266922E+02  0.28382983643E+02  0.00000000000E+00 0. -1.
         -5    1    5    5    0  501 -0.58558155200E+02 -0.37650107989E+02  0.20009652897E+03  0.21191342355E+03  0.47000000000E+01 0.  1.
         13    1    6    6    0    0  0.37628355190E+02  0.40662898599E+02  0.12178923118E+03  0.13379828574E+03  0.00000000000E+00 0. -1.
        -14    1    6    6    0    0 -0.41579717566E+02  0.38691633406E+02  0.10609474112E+03  0.12034122113E+03  0.00000000000E+00 0.  1.
</event>
<event>
12    1  0.1348628E-002  0.2327348E+03  0.7818608E-02  0.1124730E+00
         -2   -1    0    0    0  501 -0.00000000000E+00  0.00000000000E+00  0.17830445335E+02  0.17830445335E+02  0.00000000000E+00 0. -1.
          2   -1    0    0  502    0  0.00000000000E+00 -0.00000000000E+00 -0.34014334426E+04  0.34014334426E+04  0.00000000000E+00 0.  1.
          6    2    1    2  502    0 -0.13405187519E+03  0.75304007484E+02 -0.11198244854E+04  0.11433436929E+04  0.17200966037E+03 0.  0.
         24    2    3    3    0    0 -0.16632688461E+02 -0.81328327579E+01 -0.36401679703E+03  0.37391772279E+03  0.83447262386E+02 0.  0.
         -6    2    1    2    0  501  0.13405187519E+03 -0.75304007484E+02 -0.22637785119E+04  0.22759201950E+04  0.17742317912E+03 0.  0.
        -24    2    5    5    0    0  0.22221125860E+02 -0.25842700762E+02 -0.14692707590E+04  0.14720438384E+04  0.83635371078E+02 0.  0.
          5    1    3    3  502    0 -0.11741918673E+03  0.83436840242E+02 -0.75580768832E+03  0.76942597009E+03  0.47000000000E+01 0. -1.
        -11    1    4    4    0    0  0.94571572890E+01 -0.99764493806E+01 -0.33326140738E+03  0.33354479911E+03  0.00000000000E+00 0.  1.
         12    1    4    4    0    0 -0.26089845750E+02  0.18436166227E+01 -0.30755389653E+02  0.40372923677E+02  0.00000000000E+00 0. -1.
         -5    1    5    5    0  501  0.11183074933E+03 -0.49461306722E+02 -0.79450775294E+03  0.80387635668E+03  0.47000000000E+01 0.  1.
         11    1    6    6    0    0  0.43775988654E+02  0.12173228400E+02 -0.63026207589E+03  0.63189778365E+03  0.00000000000E+00 0. -1.
        -12    1    6    6    0    0 -0.21554862794E+02 -0.38015929162E+02 -0.83900868306E+03  0.84014605470E+03  0.00000000000E+00 0.  1.
</event>
<event>
12    1  0.1348628E-002  0.2157721E+03  0.7818608E-02  0.1137075E+00
          2   -1    0    0  502    0  0.00000000000E+00  0.00000000000E+00  0.96803949862E+03  0.96803949862E+03  0.00000000000E+00 0. -1.
         -2   -1    0    0    0  501 -0.00000000000E+00 -0.00000000000E+00 -0.54530755852E+02  0.54530755852E+02  0.00000000000E+00 0.  1.
          6    2    1    2  502    0 -0.47249492156E+02 -0.11920378923E+03  0.63152895378E+03  0.66722191085E+03  0.17295722298E+03 0.  0.
         24    2    3    3    0    0 -0.55017379601E+02 -0.99060104596E+02  0.62997755244E+03  0.64507230697E+03  0.80042165495E+02 0.  0.
         -6    2    1    2    0  501  0.47249492156E+02  0.11920378923E+03  0.28197978899E+03  0.35534834363E+03  0.17412003344E+03 0.  0.
        -24    2    5    5    0    0  0.16541954322E+02  0.42348406996E+02  0.24987509701E+03  0.26645231500E+03  0.80574488767E+02 0.  0.
          5    1    3    3  502    0  0.77678874452E+01 -0.20143684630E+02  0.15514013358E+01  0.22149603878E+02  0.47000000000E+01 0. -1.
        -11    1    4    4    0    0 -0.10560664877E+02 -0.73612139435E+02  0.22745163661E+03  0.23930006626E+03  0.00000000000E+00 0.  1.
         12    1    4    4    0    0 -0.44456714724E+02 -0.25447965161E+02  0.40252591583E+03  0.40577224071E+03  0.00000000000E+00 0. -1.
         -5    1    5    5    0  501  0.30707537833E+02  0.76855382231E+02  0.32104691990E+02  0.88896028625E+02  0.47000000000E+01 0.  1.
         13    1    6    6    0    0  0.63608968067E+01  0.56834689551E+02  0.97370010538E+02  0.11292281389E+03  0.00000000000E+00 0. -1.
        -14    1    6    6    0    0  0.10181057516E+02 -0.14486282554E+02  0.15250508647E+03  0.15352950112E+03  0.00000000000E+00 0.  1.
</event>
<event>
12    1  0.1348628E-002  0.2175046E+03  0.7818608E-02  0.1135757E+00
          1   -1    0    0  502    0  0.00000000000E+00  0.00000000000E+00  0.35521979249E+03  0.35521979249E+03  0.00000000000E+00 0.  1.
         -1   -1    0    0    0  501 -0.00000000000E+00 -0.00000000000E+00 -0.16205901142E+03  0.16205901142E+03  0.00000000000E+00 0. -1.
          6    2    1    2  502    0 -0.73577413409E+02 -0.11204084467E+03  0.20540427251E+03  0.29846599974E+03  0.17007131210E+03 0.  0.
         24    2    3    3    0    0 -0.72225336480E+01 -0.41606817947E+02  0.17383337737E+03  0.19657030008E+03  0.81477282091E+02 0.  0.
         -6    2    1    2    0  501  0.73577413409E+02  0.11204084467E+03 -0.12243491438E+02  0.21881280417E+03  0.17251769054E+03 0.  0.
        -24    2    5    5    0    0  0.10021886307E+03  0.33448956503E+02 -0.23181509641E+02  0.13497855122E+03  0.80741400120E+02 0.  0.
          5    1    3    3  502    0 -0.66354879761E+02 -0.70434026723E+02  0.31570895147E+02  0.10189569966E+03  0.47000000000E+01 0. -1.
        -11    1    4    4    0    0 -0.14295764176E+02 -0.61400547485E+02  0.88322416625E+02  0.10851380273E+03  0.00000000000E+00 0.  1.
         12    1    4    4    0    0  0.70732305283E+01  0.19793729538E+02  0.85510960741E+02  0.88056497352E+02  0.00000000000E+00 0. -1.
         -5    1    5    5    0  501 -0.26641449663E+02  0.78591888167E+02  0.10938018203E+02  0.83834252952E+02  0.47000000000E+01 0.  1.
         11    1    6    6    0    0  0.66307691976E+02  0.47484760939E+02  0.13982796217E+02  0.82746789223E+02  0.00000000000E+00 0. -1.
        -12    1    6    6    0    0  0.33911171096E+02 -0.14035804437E+02 -0.37164305858E+02  0.52231761996E+02  0.00000000000E+00 0.  1.
</event>
<event>
12    1  0.1348628E-002  0.2205199E+03  0.7818608E-02  0.1133496E+00
          3   -1    0    0  502    0  0.00000000000E+00  0.00000000000E+00  0.39753917561E+03  0.39753917561E+03  0.00000000000E+00 0. -1.
         -3   -1    0    0    0  501 -0.00000000000E+00 -0.00000000000E+00 -0.12766574442E+03  0.12766574442E+03  0.00000000000E+00 0.  1.
          6    2    1    2  502    0 -0.13541023665E+03 -0.37141606983E+02  0.81715224410E+02  0.23594257801E+03  0.17110257467E+03 0.  0.
         24    2    3    3    0    0 -0.32960911448E+02 -0.65216229068E+02  0.73706125581E+02  0.12931104279E+03  0.77130892786E+02 0.  0.
         -6    2    1    2    0  501  0.13541023665E+03  0.37141606983E+02  0.18815820678E+03  0.28926234201E+03  0.16897858020E+03 0.  0.
        -24    2    5    5    0    0  0.40081234674E+02 -0.16457509498E+02  0.28899645021E+02  0.96011563490E+02  0.80657769927E+02 0.  0.
          5    1    3    3  502    0 -0.10244932521E+03  0.28074622085E+02  0.80090988292E+01  0.10663153522E+03  0.47000000000E+01 0. -1.
        -13    1    4    4    0    0  0.14837775752E+02 -0.37314319256E+02  0.40738815850E+01  0.40362290842E+02  0.00000000000E+00 0.  1.
         14    1    4    4    0    0 -0.47798687201E+02 -0.27901909811E+02  0.69632243996E+02  0.88948751948E+02  0.00000000000E+00 0. -1.
         -5    1    5    5    0  501  0.95329001980E+02  0.53599116480E+02  0.15925856176E+03  0.19325077852E+03  0.47000000000E+01 0.  1.
         13    1    6    6    0    0  0.43561788906E+02 -0.18135207230E+02  0.53369947524E+02  0.71238097200E+02  0.00000000000E+00 0. -1.
        -14    1    6    6    0    0 -0.34805542327E+01  0.16776977323E+01 -0.24470302503E+02  0.24773466290E+02  0.00000000000E+00 0.  1.
</event>
<event>
12    1  0.1348628E-002  0.3708509E+03  0.7818608E-02  0.1054368E+00
          1   -1    0    0  502    0  0.00000000000E+00  0.00000000000E+00  0.21580714850E+03  0.21580714850E+03  0.00000000000E+00 0.  1.
         -1   -1    0    0    0  501 -0.00000000000E+00 -0.00000000000E+00 -0.11814997587E+04  0.11814997587E+04  0.00000000000E+00 0. -1.
          6    2    1    2  502    0 -0.10816725367E+03 -0.31025655023E+03 -0.87766627326E+01  0.37109227652E+03  0.17225900891E+03 0.  0.
         24    2    3    3    0    0 -0.58246954613E+02 -0.30727336383E+03 -0.24031304354E+02  0.31859723151E+03  0.55830677045E+02 0.  0.
         -6    2    1    2    0  501  0.10816725367E+03  0.31025655023E+03 -0.95691594743E+03  0.10262146307E+04  0.17166553526E+03 0.  0.
        -24    2    5    5    0    0  0.14395877895E+03  0.26854849599E+03 -0.83553474898E+03  0.89288766261E+03  0.79294618681E+02 0.  0.
          5    1    3    3  502    0 -0.49920299056E+02 -0.29831864079E+01  0.15254641621E+02  0.52495045004E+02  0.47000000000E+01 0. -1.
        -13    1    4    4    0    0 -0.67720578933E+02 -0.25526320617E+03 -0.11923651058E+02  0.26436254404E+03  0.00000000000E+00 0.  1.
         14    1    4    4    0    0  0.94736243194E+01 -0.52010157654E+02 -0.12107653295E+02  0.54234687473E+02  0.00000000000E+00 0. -1.
         -5    1    5    5    0  501 -0.35791525284E+02  0.41708054240E+02 -0.12138119845E+03  0.13332696804E+03  0.47000000000E+01 0.  1.
         13    1    6    6    0    0  0.22298718250E+02  0.42652756134E+01 -0.83642399958E+02  0.86668774552E+02  0.00000000000E+00 0. -1.
        -14    1    6    6    0    0  0.12166006070E+03  0.26428322038E+03 -0.75189234903E+03  0.80621888806E+03  0.00000000000E+00 0.  1.
</event>
<event>
12    1  0.1348628E-002  0.1920086E+03  0.7818608E-02  0.1156662E+00
         -1   -1    0    0    0  501 -0.00000000000E+00  0.00000000000E+00  0.93938202172E+02  0.93938202172E+02  0.00000000000E+00 0. -1.
          1   -1    0    0  502    0  0.00000000000E+00 -0.00000000000E+00 -0.45267235046E+03  0.45267235046E+03  0.00000000000E+00 0.  1.
          6    2    1    2  502    0 -0.46833479403E+02 -0.68763622925E+02 -0.27898381991E+03  0.33863214709E+03  0.17296805670E+03 0.  0.
         24    2    3    3    0    0 -0.95574851485E+02 -0.56509486362E+02 -0.23444536070E+03  0.27131461918E+03  0.79492899941E+02 0.  0.
         -6    2    1    2    0  501  0.46833479403E+02  0.68763622925E+02 -0.79750328382E+02  0.20797840555E+03  0.17312738566E+03 0.  0.
        -24    2    5    5    0    0  0.88476746093E+02  0.89266252271E+02 -0.68464360889E+02  0.15997858749E+03  0.71478537694E+02 0.  0.
          5    1    3    3  502    0  0.48741372082E+02 -0.12254136563E+02 -0.44538459212E+02  0.67317527913E+02  0.47000000000E+01 0. -1.
        -11    1    4    4    0    0 -0.78228337758E+02 -0.65536694277E+02 -0.13111478259E+03  0.16614998447E+03  0.00000000000E+00 0.  1.
         12    1    4    4    0    0 -0.17346513727E+02  0.90272079146E+01 -0.10333057811E+03  0.10516463471E+03  0.00000000000E+00 0. -1.
         -5    1    5    5    0  501 -0.41643266690E+02 -0.20502629346E+02 -0.11285967494E+02  0.47999818052E+02  0.47000000000E+01 0.  1.
         11    1    6    6    0    0  0.71095481556E+02  0.21827656358E+02 -0.28224029840E+02  0.79546275464E+02  0.00000000000E+00 0. -1.
        -12    1    6    6    0    0  0.17381264538E+02  0.67438595913E+02 -0.40240331048E+02  0.80432312030E+02  0.00000000000E+00 0.  1.
</event>
<event>
12    1  0.1348628E-002  0.3232690E+03  0.7818608E-02  0.1074155E+00
          2   -1    0    0  502    0  0.00000000000E+00  0.00000000000E+00  0.20332565226E+04  0.20332565226E+04  0.00000000000E+00 0.  1.
         -2   -1    0    0    0  501 -0.00000000000E+00 -0.00000000000E+00 -0.91555819764E+02  0.91555819764E+02  0.00000000000E+00 0. -1.
          6    2    1    2  502    0  0.15621385079E+03 -0.22499211526E+03  0.16745604170E+04  0.17054879959E+04  0.17179201046E+03 0.  0.
         24    2    3    3    0    0  0.97069760158E+02 -0.17209159297E+03  0.82113942797E+03  0.84837308923E+03  0.80180319612E+02 0.  0.
         -6    2    1    2    0  501 -0.15621385079E+03  0.22499211526E+03  0.26714028582E+03  0.41932434645E+03  0.17159474382E+03 0.  0.
        -24    2    5    5    0    0 -0.58828618170E+02  0.16877508566E+03  0.22636185547E+03  0.29961967515E+03  0.81156788168E+02 0.  0.
          5    1    3    3  502    0  0.59144090635E+02 -0.52900522292E+02  0.85342098903E+03  0.85711490667E+03  0.47000000000E+01 0. -1.
        -13    1    4    4    0    0  0.10898816000E+03 -0.14576774929E+03  0.74565549375E+03  0.76754724357E+03  0.00000000000E+00 0.  1.
         14    1    4    4    0    0 -0.11918399846E+02 -0.26323843683E+02  0.75483934226E+02  0.80825845664E+02  0.00000000000E+00 0. -1.
         -5    1    5    5    0  501 -0.97385232622E+02  0.56217029601E+02  0.40778430344E+02  0.11970467130E+03  0.47000000000E+01 0.  1.
         13    1    6    6    0    0 -0.58298335923E+00  0.33331201685E+02  0.50833888547E+01  0.33721650576E+02  0.00000000000E+00 0. -1.
        -14    1    6    6    0    0 -0.58245634811E+02  0.13544388398E+03  0.22127846662E+03  0.26589802457E+03  0.00000000000E+00 0.  1.
</event>
<event>
12    1  0.1348628E-002  0.2330217E+03  0.7818608E-02  0.1124531E+00
         -2   -1    0    0    0  501 -0.00000000000E+00  0.00000000000E+00  0.27288200084E+03  0.27288200084E+03  0.00000000000E+00 0. -1.
          2   -1    0    0  502    0  0.00000000000E+00 -0.00000000000E+00 -0.33648005586E+03  0.33648005586E+03  0.00000000000E+00 0.  1.
          6    2    1    2  502    0 -0.10261702869E+03 -0.12024395770E+03  0.16289252221E+03  0.28503181280E+03  0.17239575568E+03 0.  0.
         24    2    3    3    0    0 -0.28607555574E+02 -0.17547242662E+02  0.12479216532E+03  0.15275277218E+03  0.81449536063E+02 0.  0.
         -6    2    1    2    0  501  0.10261702869E+03  0.12024395770E+03 -0.22649057723E+03  0.32433024391E+03  0.17000959267E+03 0.  0.
        -24    2    5    5    0    0  0.60873738347E+02  0.14913667859E+03 -0.17104557452E+03  0.24900740584E+03  0.82466591286E+02 0.  0.
          5    1    3    3  502    0 -0.74009473115E+02 -0.10269671504E+03  0.38100356890E+02  0.13227904061E+03  0.47000000000E+01 0. -1.
        -11    1    4    4    0    0 -0.19810783824E+02  0.26574248057E+02  0.20003311877E+02  0.38714213172E+02  0.00000000000E+00 0.  1.
         12    1    4    4    0    0 -0.87967717498E+01 -0.44121490719E+02  0.10478885344E+03  0.11403855901E+03  0.00000000000E+00 0. -1.
         -5    1    5    5    0  501  0.41743290342E+02 -0.28892720895E+02 -0.55445002704E+02  0.75322838065E+02  0.47000000000E+01 0.  1.
         13    1    6    6    0    0  0.21632810756E+02  0.10399791313E+03 -0.57784966422E+02  0.12092413647E+03  0.00000000000E+00 0. -1.
        -14    1    6    6    0    0  0.39240927591E+02  0.45138765463E+02 -0.11326060810E+03  0.12808326937E+03  0.00000000000E+00 0.  1.
</event>
<event>
12    1  0.1348628E-002  0.1721585E+03  0.7818608E-02  0.1175615E+00
         -4   -1    0    0    0  501 -0.00000000000E+00  0.00000000000E+00  0.45437069567E+02  0.45437069567E+02  0.00000000000E+00 0. -1.
          4   -1    0    0  502    0  0.00000000000E+00 -0.00000000000E+00 -0.66754338341E+03  0.66754338341E+03  0.00000000000E+00 0.  1.
          6    2    1    2  502    0 -0.20330008383E+02  0.35550054427E+01 -0.36715872592E+03  0.40607427313E+03  0.17223483381E+03 0.  0.
         24    2    3    3    0    0 -0.23495122691E+02  0.32819710717E+02 -0.36555230138E+03  0.37622278199E+03  0.79283935612E+02 0.  0.
         -6    2    1    2    0  501  0.20330008383E+02 -0.35550054427E+01 -0.25494758793E+03  0.30690617985E+03  0.16960891289E+03 0.  0.
        -24    2    5    5    0    0  0.57116613764E+02  0.24159325549E+02 -0.23777682583E+03  0.25752740355E+03  0.77049101862E+02 0.  0.
          5    1    3    3  502    0  0.31651143074E+01 -0.29264705274E+02 -0.16064245383E+01  0.29851491138E+02  0.47000000000E+01 0. -1.
        -11    1    4    4    0    0 -0.41852889770E+02 -0.91810754089E+01 -0.19159260131E+03  0.19632544768E+03  0.00000000000E+00 0.  1.
         12    1    4    4    0    0  0.18357767079E+02  0.42000786126E+02 -0.17395970006E+03  0.17989733432E+03  0.00000000000E+00 0. -1.
         -5    1    5    5    0  501 -0.36786605381E+02 -0.27714330992E+02 -0.17170762100E+02  0.49378776300E+02  0.47000000000E+01 0.  1.
         13    1    6    6    0    0  0.20089715373E+02  0.46762170899E+02 -0.16632530577E+03  0.17393793327E+03  0.00000000000E+00 0. -1.
        -14    1    6    6    0    0  0.37026898392E+02 -0.22602845350E+02 -0.71451520056E+02  0.83589470274E+02  0.00000000000E+00 0.  1.
</event>
<event>
12    1  0.1348628E-002  0.1816647E+03  0.7818608E-02  0.1166202E+00
          2   -1    0    0  502    0  0.00000000000E+00  0.00000000000E+00  0.85495896739E+03  0.85495896739E+03  0.00000000000E+00 0.  1.
         -2   -1    0    0    0  501 -0.00000000000E+00 -0.00000000000E+00 -0.40969084750E+02  0.40969084750E+02  0.00000000000E+00 0. -1.
          6    2    1    2  502    0  0.30528130235E+02 -0.69092544963E+02  0.28871078268E+03  0.33830711307E+03  0.15934880047E+03 0.  0.
         24    2    3    3    0    0  0.57130513053E+02 -0.95354490136E+02  0.20294955468E+03  0.24463505339E+03  0.79381441735E+02 0.  0.
         -6    2    1    2    0  501 -0.30528130235E+02  0.69092544963E+02  0.52527909996E+03  0.55762093907E+03  0.17122275647E+03 0.  0.
        -24    2    5    5    0    0  0.29632720606E+02  0.89437823311E+02  0.34911964408E+03  0.37030435619E+03  0.79771974815E+02 0.  0.
          5    1    3    3  502    0 -0.26602382819E+02  0.26261945173E+02  0.85761228007E+02  0.93672059683E+02  0.47000000000E+01 0. -1.
        -13    1    4    4    0    0  0.48094767072E+02 -0.14636498868E+02  0.47094022633E+02  0.68885271914E+02  0.00000000000E+00 0.  1.
         14    1    4    4    0    0  0.90357459810E+01 -0.80717991268E+02  0.15585553204E+03  0.17574978147E+03  0.00000000000E+00 0. -1.
         -5    1    5    5    0  501 -0.60160850840E+02 -0.20345278348E+02  0.17615945588E+03  0.18731658288E+03  0.47000000000E+01 0.  1.
         13    1    6    6    0    0  0.31493516800E+02  0.94125022444E+02  0.22308134876E+03  0.24416520968E+03  0.00000000000E+00 0. -1.
        -14    1    6    6    0    0 -0.18607961941E+01 -0.46871991331E+01  0.12603829531E+03  0.12613914652E+03  0.00000000000E+00 0.  1.
</event>
<event>
12    1  0.1348628E-002  0.2148747E+03  0.7818608E-02  0.1137763E+00
         -2   -1    0    0    0  501 -0.00000000000E+00  0.00000000000E+00  0.29447064113E+02  0.29447064113E+02  0.00000000000E+00 0.  1.
          2   -1    0    0  502    0  0.00000000000E+00 -0.00000000000E+00 -0.16843567566E+04  0.16843567566E+04  0.00000000000E+00 0. -1.
          6    2    1    2  502    0 -0.73088752517E+02 -0.10454867861E+03 -0.60570655582E+03  0.64301877864E+03  0.17412732689E+03 0.  0.
         24    2    3    3    0    0 -0.99669860328E+02 -0.37708583838E+02 -0.28434971997E+03  0.31367631325E+03  0.78626000099E+02 0.  0.
         -6    2    1    2    0  501  0.73088752517E+02  0.10454867861E+03 -0.10492031367E+04  0.10707850421E+04  0.17170029819E+03 0.  0.
        -24    2    5    5    0    0 -0.76831098171E+01  0.20725475060E+02 -0.21193583458E+03  0.22545135155E+03  0.73640603221E+02 0.  0.
          5    1    3    3  502    0  0.26581107811E+02 -0.66840094774E+02 -0.32135683585E+03  0.32934246539E+03  0.47000000000E+01 0. -1.
        -13    1    4    4    0    0 -0.68144582933E+01 -0.64242809720E+01  0.31951640253E+01  0.98953171241E+01  0.00000000000E+00 0.  1.
         14    1    4    4    0    0 -0.92855402035E+02 -0.31284302866E+02 -0.28754488400E+03  0.30378099612E+03  0.00000000000E+00 0. -1.
         -5    1    5    5    0  501  0.80771862334E+02  0.83823203552E+02 -0.83726730210E+03  0.84533369054E+03  0.47000000000E+01 0.  1.
         13    1    6    6    0    0  0.15912694985E+02  0.38046358961E+02 -0.16549340683E+03  0.17055441066E+03  0.00000000000E+00 0. -1.
        -14    1    6    6    0    0 -0.23595804802E+02 -0.17320883901E+02 -0.46442427750E+02  0.54896940886E+02  0.00000000000E+00 0.  1.
</event>
<event>
12    1  0.1348628E-002  0.2261577E+03  0.7818608E-02  0.1129374E+00
         -2   -1    0    0    0  501 -0.00000000000E+00  0.00000000000E+00  0.26964027776E+02  0.26964027776E+02  0.00000000000E+00 0. -1.
          2   -1    0    0  502    0  0.00000000000E+00 -0.00000000000E+00 -0.27213254156E+04  0.27213254156E+04  0.00000000000E+00 0.  1.
          6    2    1    2  502    0 -0.20212644641E+02 -0.14557786437E+03 -0.59165944378E+03  0.63348161861E+03  0.17215283357E+03 0.  0.
         24    2    3    3    0    0 -0.45593321517E+02 -0.26804109759E+02 -0.35417522291E+03  0.36670038107E+03  0.78942192047E+02 0.  0.
         -6    2    1    2    0  501  0.20212644641E+02  0.14557786437E+03 -0.21027019440E+04  0.21148078247E+04  0.17162518639E+03 0.  0.
        -24    2    5    5    0    0  0.11019129109E+02  0.11255688527E+03 -0.81219271752E+03  0.82383491276E+03  0.79097910591E+02 0.  0.
          5    1    3    3  502    0  0.25380676877E+02 -0.11877375461E+03 -0.23748422087E+03  0.26678123754E+03  0.47000000000E+01 0. -1.
        -13    1    4    4    0    0 -0.12530877116E+01 -0.43552204512E+02 -0.22319581610E+03  0.22740874450E+03  0.00000000000E+00 0.  1.
         14    1    4    4    0    0 -0.44340233806E+02  0.16748094754E+02 -0.13097940681E+03  0.13929163658E+03  0.00000000000E+00 0. -1.
         -5    1    5    5    0  501  0.91935155320E+01  0.33020979092E+02 -0.12905092265E+04  0.12909729120E+04  0.47000000000E+01 0.  1.
         13    1    6    6    0    0  0.35492615113E+02  0.10355881871E+03 -0.58537880056E+03  0.59552707310E+03  0.00000000000E+00 0. -1.
        -14    1    6    6    0    0 -0.24473486005E+02  0.89980665616E+01 -0.22681391697E+03  0.22830783966E+03  0.00000000000E+00 0.  1.
</event>
<event>
12    1  0.1348628E-002  0.3944724E+03  0.7818608E-02  0.1045711E+00
          2   -1    0    0  502    0  0.00000000000E+00  0.00000000000E+00  0.10696672298E+04  0.10696672298E+04  0.00000000000E+00 0.  1.
         -2   -1    0    0    0  501 -0.00000000000E+00 -0.00000000000E+00 -0.16263964946E+03  0.16263964946E+03  0.00000000000E+00 0. -1.
          6    2    1    2  502    0  0.16862494903E+03  0.31433910505E+03  0.65185343128E+03  0.76100862218E+03  0.16424914233E+03 0.  0.
         24    2    3    3    0    0  0.52623998127E+02  0.23160800000E+03  0.41075325942E+03  0.48091571041E+03  0.78422761673E+02 0.  0.
         -6    2    1    2    0  501 -0.16862494903E+03 -0.31433910505E+03  0.25517414905E+03  0.47129825707E+03  0.17252464858E+03 0.  0.
        -24    2    5    5    0    0 -0.74425579743E+02 -0.24679172853E+03  0.12789362991E+03  0.29908156275E+03  0.81533284068E+02 0.  0.
          5    1    3    3  502    0  0.11600095091E+03  0.82731105053E+02  0.24110017185E+03  0.28009291177E+03  0.47000000000E+01 0. -1.
        -11    1    4    4    0    0  0.35210209796E+01  0.38040230923E+02  0.13594729444E+03  0.14121304339E+03  0.00000000000E+00 0.  1.
         12    1    4    4    0    0  0.49102977148E+02  0.19356776908E+03  0.27480596498E+03  0.33970266702E+03  0.00000000000E+00 0. -1.
         -5    1    5    5    0  501 -0.94199369291E+02 -0.67547376519E+02  0.12728051914E+03  0.17221669432E+03  0.47000000000E+01 0.  1.
         11    1    6    6    0    0 -0.52641372443E+02 -0.19364313081E+03  0.13403029364E+03  0.24131493078E+03  0.00000000000E+00 0. -1.
        -12    1    6    6    0    0 -0.21784207300E+02 -0.53148597724E+02 -0.61366637269E+01  0.57766631972E+02  0.00000000000E+00 0.  1.
</event>
<event>
12    1  0.1348628E-002  0.1856373E+03  0.7818608E-02  0.1162456E+00
          2   -1    0    0  502    0  0.00000000000E+00  0.00000000000E+00  0.26712052687E+03  0.26712052687E+03  0.00000000000E+00 0.  1.
         -2   -1    0    0    0  501 -0.00000000000E+00 -0.00000000000E+00 -0.13118226783E+03  0.13118226783E+03  0.00000000000E+00 0. -1.
          6    2    1    2  502    0 -0.65189360781E+02  0.22761484751E+02  0.93622371051E+02  0.20797392632E+03  0.17239567199E+03 0.  0.
         24    2    3    3    0    0  0.38111771676E+01  0.33885910379E+02 -0.52903826227E+01  0.86768934995E+02  0.79612059000E+02 0.  0.
         -6    2    1    2    0  501  0.65189360781E+02 -0.22761484751E+02  0.42315887995E+02  0.19032886838E+03  0.17224025608E+03 0.  0.
        -24    2    5    5    0    0  0.72043045818E+02  0.24909526650E+02 -0.19316633608E+02  0.11196972057E+03  0.79708224304E+02 0.  0.
          5    1    3    3  502    0 -0.69000537949E+02 -0.11124425628E+02  0.98912753674E+02  0.12120499133E+03  0.47000000000E+01 0. -1.
        -11    1    4    4    0    0  0.52974075690E+01  0.58660117493E+02  0.65658252928E+01  0.59263664863E+02  0.00000000000E+00 0.  1.
         12    1    4    4    0    0 -0.14862304014E+01 -0.24774207114E+02 -0.11856207915E+02  0.27505270132E+02  0.00000000000E+00 0. -1.
         -5    1    5    5    0  501 -0.68536850370E+01 -0.47671011401E+02  0.61632521602E+02  0.78359147811E+02  0.47000000000E+01 0.  1.
         13    1    6    6    0    0  0.55564817912E+02 -0.15912589252E+02 -0.32119247395E+02  0.66123411433E+02  0.00000000000E+00 0. -1.
        -14    1    6    6    0    0  0.16478227906E+02  0.40822115902E+02  0.12802613787E+02  0.45846309136E+02  0.00000000000E+00 0.  1.
</event>
<event>
12    1  0.1348628E-002  0.3048108E+03  0.7818608E-02  0.1082860E+00
         -2   -1    0    0    0  501 -0.00000000000E+00  0.00000000000E+00  0.15283590185E+03  0.15283590185E+03  0.00000000000E+00 0. -1.
          2   -1    0    0  502    0  0.00000000000E+00 -0.00000000000E+00 -0.61251689063E+03  0.61251689063E+03  0.00000000000E+00 0.  1.
          6    2    1    2  502    0  0.23012621334E+03 -0.10156911291E+03 -0.19689542593E+03  0.36316547658E+03  0.17276283126E+03 0.  0.
         24    2    3    3    0    0  0.13907595940E+03 -0.35377388496E+02 -0.18880501172E+03  0.25020956516E+03  0.79773504039E+02 0.  0.
         -6    2    1    2    0  501 -0.23012621334E+03  0.10156911291E+03 -0.26278556284E+03  0.40218731589E+03  0.17153432969E+03 0.  0.
        -24    2    5    5    0    0 -0.19497668806E+03  0.85157071151E+02 -0.27857663621E+03  0.36004123375E+03  0.82201655120E+02 0.  0.
          5    1    3    3  502    0  0.91050253939E+02 -0.66191724410E+02 -0.80904142098E+01  0.11295591142E+03  0.47000000000E+01 0. -1.
        -11    1    4    4    0    0  0.13775676889E+03 -0.10053291636E+02 -0.16738235047E+03  0.21701347261E+03  0.00000000000E+00 0.  1.
         12    1    4    4    0    0  0.13191905158E+01 -0.25324096860E+02 -0.21422661252E+02  0.33196092548E+02  0.00000000000E+00 0. -1.
         -5    1    5    5    0  501 -0.35149525280E+02  0.16412041755E+02  0.15791073365E+02  0.42146082143E+02  0.47000000000E+01 0.  1.
         13    1    6    6    0    0 -0.57121031843E+02  0.25869461963E+02 -0.29608230677E+02  0.69344708989E+02  0.00000000000E+00 0. -1.
        -14    1    6    6    0    0 -0.13785565622E+03  0.59287609189E+02 -0.24896840553E+03  0.29069652476E+03  0.00000000000E+00 0.  1.
</event>
<event>
12    1  0.1348628E-002  0.1948483E+03  0.7818608E-02  0.1154160E+00
          1   -1    0    0  502    0  0.00000000000E+00  0.00000000000E+00  0.74965927013E+03  0.74965927013E+03  0.00000000000E+00 0. -1.
         -1   -1    0    0    0  501 -0.00000000000E+00 -0.00000000000E+00 -0.51881312547E+02  0.51881312547E+02  0.00000000000E+00 0.  1.
          6    2    1    2  502    0 -0.49813246802E+02  0.75867861389E+02  0.41512320010E+03  0.45970476141E+03  0.17539642088E+03 0.  0.
         24    2    3    3    0    0  0.34299759043E+02  0.62442369810E+02  0.19059579568E+03  0.21951757001E+03  0.82375258403E+02 0.  0.
         -6    2    1    2    0  501  0.49813246802E+02 -0.75867861389E+02  0.28265475749E+03  0.34183582127E+03  0.16947189980E+03 0.  0.
        -24    2    5    5    0    0  0.34705641229E+02 -0.38003002098E+02  0.28565709602E+03  0.30068862996E+03  0.78517297348E+02 0.  0.
          5    1    3    3  502    0 -0.84113005845E+02  0.13425491580E+02  0.22452740442E+03  0.24018719140E+03  0.47000000000E+01 0. -1.
        -11    1    4    4    0    0  0.65677668982E+01  0.73411012929E+02  0.10060775197E+03  0.12471660731E+03  0.00000000000E+00 0.  1.
         12    1    4    4    0    0  0.27731992145E+02 -0.10968643119E+02  0.89988043705E+02  0.94800962706E+02  0.00000000000E+00 0. -1.
         -5    1    5    5    0  501  0.15107605574E+02 -0.37864859291E+02 -0.30023385310E+01  0.41147191301E+02  0.47000000000E+01 0.  1.
         11    1    6    6    0    0  0.53267961187E+02 -0.48217903244E+02  0.23614398346E+03  0.24683278309E+03  0.00000000000E+00 0. -1.
        -12    1    6    6    0    0 -0.18562319958E+02  0.10214901146E+02  0.49513112555E+02  0.53855846874E+02  0.00000000000E+00 0.  1.
</event>
<event>
12    1  0.1348628E-002  0.1719200E+03  0.7818608E-02  0.1175860E+00
         -3   -1    0    0    0  501 -0.00000000000E+00  0.00000000000E+00  0.23246891972E+03  0.23246891972E+03  0.00000000000E+00 0. -1.
          3   -1    0    0  502    0  0.00000000000E+00 -0.00000000000E+00 -0.16032011404E+03  0.16032011404E+03  0.00000000000E+00 0.  1.
          6    2    1    2  502    0  0.10376715996E+02 -0.71829709815E+01  0.12531730204E+03  0.21226975329E+03  0.17086471450E+03 0.  0.
         24    2    3    3    0    0  0.33065253045E+02 -0.86031676741E+01  0.15372594841E+03  0.17558286379E+03  0.77655324284E+02 0.  0.
         -6    2    1    2    0  501 -0.10376715996E+02  0.71829709815E+01 -0.53168496361E+02  0.18051928047E+03  0.17204955771E+03 0.  0.
        -24    2    5    5    0    0 -0.40219041875E+01 -0.49717338285E+02  0.14970996718E+02  0.91395157222E+02  0.75106288561E+02 0.  0.
          5    1    3    3  502    0 -0.22688537049E+02  0.14201966926E+01 -0.28408646370E+02  0.36686889493E+02  0.47000000000E+01 0. -1.
        -13    1    4    4    0    0 -0.81554117083E+01 -0.17003380197E+02  0.29984990076E+01  0.19094938453E+02  0.00000000000E+00 0.  1.
         14    1    4    4    0    0  0.41220664754E+02  0.84002125226E+01  0.15072744941E+03  0.15648792534E+03  0.00000000000E+00 0. -1.
         -5    1    5    5    0  501 -0.63548118083E+01  0.56900309267E+02 -0.68139493079E+02  0.89124123248E+02  0.47000000000E+01 0.  1.
         13    1    6    6    0    0  0.48818294897E+01  0.19067522421E+02  0.94030378502E+01  0.21813293911E+02  0.00000000000E+00 0. -1.
        -14    1    6    6    0    0 -0.89037336772E+01 -0.68784860706E+02  0.55679588673E+01  0.69581863310E+02  0.00000000000E+00 0.  1.
</event>
<event>
12    1  0.1348628E-002  0.2133163E+03  0.7818608E-02  0.1138966E+00
          2   -1    0    0  502    0  0.00000000000E+00  0.00000000000E+00  0.17341217945E+04  0.17341217945E+04  0.00000000000E+00 0.  1.
         -2   -1    0    0    0  501 -0.00000000000E+00 -0.00000000000E+00 -0.29599283323E+02  0.29599283323E+02  0.00000000000E+00 0. -1.
          6    2    1    2  502    0 -0.11583750524E+03  0.51387034930E+02  0.55672788739E+03  0.59635147043E+03  0.17213419387E+03 0.  0.
         24    2    3    3    0    0 -0.12464015100E+03  0.86066647260E+02  0.38664611425E+03  0.42248352733E+03  0.77810527458E+02 0.  0.
         -6    2    1    2    0  501  0.11583750524E+03 -0.51387034930E+02  0.11477946238E+04  0.11673696074E+04  0.17105656054E+03 0.  0.
        -24    2    5    5    0    0  0.23263823087E+02  0.34559630097E+01  0.29708124829E+03  0.30986568420E+03  0.84890076065E+02 0.  0.
          5    1    3    3  502    0  0.88026457598E+01 -0.34679612330E+02  0.17008177314E+03  0.17386794310E+03  0.47000000000E+01 0. -1.
        -13    1    4    4    0    0 -0.40434430723E+02 -0.76640859187E+00  0.16603101729E+03  0.17088542732E+03  0.00000000000E+00 0.  1.
         14    1    4    4    0    0 -0.84205720276E+02  0.86833055852E+02  0.22061509697E+03  0.25159810000E+03  0.00000000000E+00 0. -1.
         -5    1    5    5    0  501  0.92573682152E+02 -0.54842997940E+02  0.85071337547E+03  0.85750392317E+03  0.47000000000E+01 0.  1.
         13    1    6    6    0    0  0.61477659500E+01  0.33133642028E+02  0.49238529035E+02  0.59666288654E+02  0.00000000000E+00 0. -1.
        -14    1    6    6    0    0  0.17116057137E+02 -0.29677679019E+02  0.24784271926E+03  0.25019939555E+03  0.00000000000E+00 0.  1.
</event>
<event>
12    1  0.1348628E-002  0.2109043E+03  0.7818608E-02  0.1140852E+00
         -2   -1    0    0    0  501 -0.00000000000E+00  0.00000000000E+00  0.10955444628E+03  0.10955444628E+03  0.00000000000E+00 0. -1.
          2   -1    0    0  502    0  0.00000000000E+00 -0.00000000000E+00 -0.41413607204E+03  0.41413607204E+03  0.00000000000E+00 0.  1.
          6    2    1    2  502    0  0.11544048214E+03 -0.49316997943E+01 -0.11300531891E+03  0.23559099565E+03  0.17141204318E+03 0.  0.
         24    2    3    3    0    0  0.73529376749E+02  0.59007315789E+02 -0.98344678373E+02  0.15760533767E+03  0.79242249698E+02 0.  0.
         -6    2    1    2    0  501 -0.11544048214E+03  0.49316997943E+01 -0.19157630684E+03  0.28809952267E+03  0.18151866857E+03 0.  0.
        -24    2    5    5    0    0 -0.73859658435E+02 -0.66033612016E+02 -0.14859870513E+03  0.19517910172E+03  0.78724961244E+02 0.  0.
          5    1    3    3  502    0  0.41911105388E+02 -0.63939015584E+02 -0.14660640542E+02  0.77985657974E+02  0.47000000000E+01 0. -1.
        -13    1    4    4    0    0  0.57858329720E+02  0.69768515113E+02 -0.45443208003E+02  0.10139189895E+03  0.00000000000E+00 0.  1.
         14    1    4    4    0    0  0.15671047029E+02 -0.10761199324E+02 -0.52901470370E+02  0.56213438724E+02  0.00000000000E+00 0. -1.
         -5    1    5    5    0  501 -0.41580823702E+02  0.70965311811E+02 -0.42977601711E+02  0.92920420947E+02  0.47000000000E+01 0.  1.
         11    1    6    6    0    0 -0.83883113454E+02 -0.64296806843E+02 -0.99909492202E+02  0.14543851871E+03  0.00000000000E+00 0. -1.
        -12    1    6    6    0    0  0.10023455019E+02 -0.17368051736E+01 -0.48689212929E+02  0.49740583012E+02  0.00000000000E+00 0.  1.
</event>
<event>
12    1  0.1348628E-002  0.1768888E+03  0.7818608E-02  0.1170849E+00
         -1   -1    0    0    0  501 -0.00000000000E+00  0.00000000000E+00  0.36505203356E+02  0.36505203356E+02  0.00000000000E+00 0.  1.
          1   -1    0    0  502    0  0.00000000000E+00 -0.00000000000E+00 -0.86428261418E+03  0.86428261418E+03  0.00000000000E+00 0. -1.
          6    2    1    2  502    0  0.10432229572E+02  0.38293386840E+02 -0.37519785519E+03  0.41521394498E+03  0.17336082220E+03 0.  0.
         24    2    3    3    0    0 -0.14695052247E+02 -0.23286232880E+02 -0.90868637017E+02  0.12317178336E+03  0.78460090615E+02 0.  0.
         -6    2    1    2    0  501 -0.10432229572E+02 -0.38293386840E+02 -0.45257955563E+03  0.48557387256E+03  0.17140162382E+03 0.  0.
        -24    2    5    5    0    0  0.56804844216E+02 -0.43635076000E+02 -0.26316984300E+03  0.28445826657E+03  0.80791886783E+02 0.  0.
          5    1    3    3  502    0  0.25127281819E+02  0.61579619720E+02 -0.28432921818E+03  0.29204216162E+03  0.47000000000E+01 0. -1.
        -11    1    4    4    0    0 -0.34452055322E+02  0.16455529468E+02 -0.49369720721E+02  0.62410719352E+02  0.00000000000E+00 0.  1.
         12    1    4    4    0    0  0.19757003075E+02 -0.39741762348E+02 -0.41498916296E+02  0.60761064003E+02  0.00000000000E+00 0. -1.
         -5    1    5    5    0  501 -0.67237073788E+02  0.53416891603E+01 -0.18940971263E+03  0.20111560599E+03  0.47000000000E+01 0.  1.
         13    1    6    6    0    0  0.58748933413E+01 -0.49635335053E+02 -0.80748743944E+02  0.94965996579E+02  0.00000000000E+00 0. -1.
        -14    1    6    6    0    0  0.50929950874E+02  0.60002590529E+01 -0.18242109906E+03  0.18949226999E+03  0.00000000000E+00 0.  1.
</event>
<event>
12    1  0.1348628E-002  0.3399185E+03  0.7818608E-02  0.1066831E+00
         -1   -1    0    0    0  501 -0.00000000000E+00  0.00000000000E+00  0.14005390474E+03  0.14005390474E+03  0.00000000000E+00 0. -1.
          1   -1    0    0  502    0  0.00000000000E+00 -0.00000000000E+00 -0.84608210653E+03  0.84608210653E+03  0.00000000000E+00 0.  1.
          6    2    1    2  502    0  0.96914317773E+02  0.27666060364E+03 -0.43044212558E+03  0.54823032050E+03  0.17129677827E+03 0.  0.
         24    2    3    3    0    0  0.58275509835E+02  0.52205179020E+02 -0.14904558807E+03  0.18618157179E+03  0.79546053255E+02 0.  0.
         -6    2    1    2    0  501 -0.96914317773E+02 -0.27666060364E+03 -0.27558607621E+03  0.43790569078E+03  0.17285900041E+03 0.  0.
        -24    2    5    5    0    0 -0.38883303622E+02 -0.54667160915E+02 -0.12826030195E+03  0.16518667609E+03  0.79595999374E+02 0.  0.
          5    1    3    3  502    0  0.38638807938E+02  0.22445542462E+03 -0.28139653751E+03  0.36204874871E+03  0.47000000000E+01 0. -1.
        -11    1    4    4    0    0 -0.15460308457E+02 -0.47794764934E+01 -0.10782285413E+02  0.19445364791E+02  0.00000000000E+00 0.  1.
         12    1    4    4    0    0  0.73735818292E+02  0.56984655514E+02 -0.13826330266E+03  0.16673620700E+03  0.00000000000E+00 0. -1.
         -5    1    5    5    0  501 -0.58031014150E+02 -0.22199344272E+03 -0.14732577426E+03  0.27271901469E+03  0.47000000000E+01 0.  1.
         13    1    6    6    0    0  0.69464965941E+01 -0.12658865584E+02 -0.92183586807E+02  0.93307632964E+02  0.00000000000E+00 0. -1.
        -14    1    6    6    0    0 -0.45829800217E+02 -0.42008295331E+02 -0.36076715147E+02  0.71879043123E+02  0.00000000000E+00 0.  1.
</event>
<event>
12    1  0.1348628E-002  0.1766872E+03  0.7818608E-02  0.1171048E+00
          2   -1    0    0  502    0  0.00000000000E+00  0.00000000000E+00  0.71020227658E+03  0.71020227658E+03  0.00000000000E+00 0. -1.
         -2   -1    0    0    0  501 -0.00000000000E+00 -0.00000000000E+00 -0.80709170126E+02  0.80709170126E+02  0.00000000000E+00 0.  1.
          6    2    1    2  502    0 -0.42710268616E+02  0.49982809397E+01  0.58111280052E+03  0.60723391231E+03  0.17085604313E+03 0.  0.
         24    2    3    3    0    0 -0.51615672847E+02  0.34760197564E+02  0.13867166508E+03  0.16367858742E+03  0.60732201236E+02 0.  0.
         -6    2    1    2    0  501  0.42710268616E+02 -0.49982809397E+01  0.48380305933E+02  0.18367753439E+03  0.17189424883E+03 0.  0.
        -24    2    5    5    0    0  0.39134786414E+02 -0.96019823017E+01  0.98555055862E+02  0.13294713257E+03  0.79612256907E+02 0.  0.
          5    1    3    3  502    0  0.89054042312E+01 -0.29761916624E+02  0.44244113544E+03  0.44355532489E+03  0.47000000000E+01 0. -1.
        -11    1    4    4    0    0 -0.17224643269E+02 -0.17219576844E+02  0.33349080145E+02  0.41296044713E+02  0.00000000000E+00 0.  1.
         12    1    4    4    0    0 -0.34391029577E+02  0.51979774409E+02  0.10532258493E+03  0.12238254271E+03  0.00000000000E+00 0. -1.
         -5    1    5    5    0  501  0.35754822012E+01  0.46037013619E+01 -0.50174749928E+02  0.50730401828E+02  0.47000000000E+01 0.  1.
         13    1    6    6    0    0  0.13304637423E+02 -0.25005738693E+02  0.98894365243E+02  0.10287077244E+03  0.00000000000E+00 0. -1.
        -14    1    6    6    0    0  0.25830148991E+02  0.15403756391E+02 -0.33930938179E+00  0.30076360131E+02  0.00000000000E+00 0.  1.
</event>
<event>
12    1  0.1348628E-002  0.2483856E+03  0.7818608E-02  0.1114329E+00
         -1   -1    0    0    0  501 -0.00000000000E+00  0.00000000000E+00  0.61950439297E+02  0.61950439297E+02  0.00000000000E+00 0.  1.
          1   -1    0    0  502    0  0.00000000000E+00 -0.00000000000E+00 -0.10014350604E+04  0.10014350604E+04  0.00000000000E+00 0. -1.
          6    2    1    2  502    0  0.54378141140E+02 -0.17071032305E+03 -0.43124782921E+03  0.49795026742E+03  0.17286058544E+03 0.  0.
         24    2    3    3    0    0  0.10127221326E+03 -0.14762909100E+03 -0.33930041452E+03  0.39208141298E+03  0.80948461536E+02 0.  0.
         -6    2    1    2    0  501 -0.54378141140E+02  0.17071032305E+03 -0.50823679193E+03  0.56543523231E+03  0.17121147344E+03 0.  0.
        -24    2    5    5    0    0  0.31947696769E+01  0.15636342303E+03 -0.45616314374E+03  0.48635155235E+03  0.63192500758E+02 0.  0.
          5    1    3    3  502    0 -0.46894072117E+02 -0.23081232054E+02 -0.91947414686E+02  0.10586885444E+03  0.47000000000E+01 0. -1.
        -13    1    4    4    0    0  0.50807343313E+02 -0.35862607114E+02 -0.57264382332E+02  0.84538288411E+02  0.00000000000E+00 0.  1.
         14    1    4    4    0    0  0.50464869944E+02 -0.11176648388E+03 -0.28203603219E+03  0.30754312457E+03  0.00000000000E+00 0. -1.
         -5    1    5    5    0  501 -0.57572910817E+02  0.14346900024E+02 -0.52073648188E+02  0.79083679959E+02  0.47000000000E+01 0.  1.
         11    1    6    6    0    0  0.46157710015E+01  0.87751983939E+02 -0.34236567829E+03  0.35346283213E+03  0.00000000000E+00 0. -1.
        -12    1    6    6    0    0 -0.14210013245E+01  0.68611439088E+02 -0.11379746545E+03  0.13288872022E+03  0.00000000000E+00 0.  1.
</event>
<event>
12    1  0.1348628E-002  0.3067162E+03  0.7818608E-02  0.1081931E+00
         -2   -1    0    0    0  501 -0.00000000000E+00  0.00000000000E+00  0.16448616795E+03  0.16448616795E+03  0.00000000000E+00 0. -1.
          2   -1    0    0  502    0  0.00000000000E+00 -0.00000000000E+00 -0.58417650919E+03  0.58417650919E+03  0.00000000000E+00 0.  1.
          6    2    1    2  502    0  0.25434693418E+03  0.18122705798E+02 -0.26319077651E+03  0.40322248849E+03  0.16822067349E+03 0.  0.
         24    2    3    3    0    0  0.25636909486E+03  0.46138095007E+02 -0.25665922886E+03  0.37400430440E+03  0.78431010085E+02 0.  0.
         -6    2    1    2    0  501 -0.25434693418E+03 -0.18122705798E+02 -0.15649956473E+03  0.34544018866E+03  0.17267314437E+03 0.  0.
        -24    2    5    5    0    0 -0.23864879238E+03  0.26145518612E+02 -0.10010751255E+03  0.27189930956E+03  0.79188927404E+02 0.  0.
          5    1    3    3  502    0 -0.20221606849E+01 -0.28015389209E+02 -0.65315476544E+01  0.29218184084E+02  0.47000000000E+01 0. -1.
        -11    1    4    4    0    0  0.18682372878E+03  0.35871265023E+02 -0.23080891423E+03  0.29910300597E+03  0.00000000000E+00 0.  1.
         12    1    4    4    0    0  0.69545366076E+02  0.10266829984E+02 -0.25850314626E+02  0.74901298432E+02  0.00000000000E+00 0. -1.
         -5    1    5    5    0  501 -0.15698141794E+02 -0.44268224410E+02 -0.56392052185E+02  0.73540879094E+02  0.47000000000E+01 0.  1.
         13    1    6    6    0    0 -0.12729827654E+03 -0.23368550572E+02 -0.36705109882E+02  0.13452957094E+03  0.00000000000E+00 0. -1.
        -14    1    6    6    0    0 -0.11135051584E+03  0.49514069184E+02 -0.63402402668E+02  0.13736973862E+03  0.00000000000E+00 0.  1.
</event>
<event>
12    1  0.1348628E-002  0.1998047E+03  0.7818608E-02  0.1149904E+00
         -1   -1    0    0    0  501 -0.00000000000E+00  0.00000000000E+00  0.18272090024E+02  0.18272090024E+02  0.00000000000E+00 0.  1.
          1   -1    0    0  502    0  0.00000000000E+00 -0.00000000000E+00 -0.26437946857E+04  0.26437946857E+04  0.00000000000E+00 0. -1.
          6    2    1    2  502    0 -0.93339697532E+02  0.41431421826E+02 -0.75517252335E+03  0.78101507587E+03  0.17108520352E+03 0.  0.
         24    2    3    3    0    0 -0.49816242993E+02  0.85725636423E+02 -0.60504075005E+03  0.61847920938E+03  0.81312240195E+02 0.  0.
         -6    2    1    2    0  501  0.93339697532E+02 -0.41431421826E+02 -0.18703500723E+04  0.18810516999E+04  0.17238689808E+03 0.  0.
        -24    2    5    5    0    0  0.12532593868E+03 -0.32371520716E+02 -0.11604041327E+04  0.11703122760E+04  0.79615111063E+02 0.  0.
          5    1    3    3  502    0 -0.43523454539E+02 -0.44294214597E+02 -0.15013177330E+03  0.16253586649E+03  0.47000000000E+01 0. -1.
        -11    1    4    4    0    0 -0.19907299780E+02 -0.51284966095E+01 -0.36004702082E+02  0.41460108949E+02  0.00000000000E+00 0.  1.
         12    1    4    4    0    0 -0.29908943212E+02  0.90854133032E+02 -0.56903604797E+03  0.57701910043E+03  0.00000000000E+00 0. -1.
         -5    1    5    5    0  501 -0.31986241148E+02 -0.90599011095E+01 -0.70994593969E+03  0.71073942392E+03  0.47000000000E+01 0.  1.
         13    1    6    6    0    0  0.12240042973E+03 -0.24647664076E+02 -0.11511781805E+04  0.11579294347E+04  0.00000000000E+00 0. -1.
        -14    1    6    6    0    0  0.29255089532E+01 -0.77238566402E+01 -0.92259521948E+01  0.12382841271E+02  0.00000000000E+00 0.  1.
</event>
<event>
12    1  0.1348628E-002  0.2268944E+03  0.7818608E-02  0.1128845E+00
          2   -1    0    0  502    0  0.00000000000E+00  0.00000000000E+00  0.90032306349E+03  0.90032306349E+03  0.00000000000E+00 0. -1.
         -2   -1    0    0    0  501 -0.00000000000E+00 -0.00000000000E+00 -0.57572613610E+02  0.57572613610E+02  0.00000000000E+00 0.  1.
          6    2    1    2  502    0  0.38802392871E+01  0.15120969632E+03  0.45624781275E+03  0.50851536876E+03  0.16597103695E+03 0.  0.
         24    2    3    3    0    0  0.32590330624E+02  0.16932796032E+03  0.39298387436E+03  0.43656429694E+03  0.80112246646E+02 0.  0.
         -6    2    1    2    0  501 -0.38802392871E+01 -0.15120969632E+03  0.38650263714E+03  0.44938030835E+03  0.17227578036E+03 0.  0.
        -24    2    5    5    0    0 -0.64394907334E+02 -0.60163975127E+02  0.22413782283E+03  0.25358508031E+03  0.79380232682E+02 0.  0.
          5    1    3    3  502    0 -0.28710091337E+02 -0.18118263995E+02  0.63263938388E+02  0.71951071814E+02  0.47000000000E+01 0. -1.
        -13    1    4    4    0    0 -0.18865626132E+02  0.67455343020E+02  0.99602229450E+02  0.12176509871E+03  0.00000000000E+00 0.  1.
         14    1    4    4    0    0  0.51455956756E+02  0.10187261730E+03  0.29338164491E+03  0.31479919824E+03  0.00000000000E+00 0. -1.
         -5    1    5    5    0  501  0.60514668047E+02 -0.91045721195E+02  0.16236481430E+03  0.19579522803E+03  0.47000000000E+01 0.  1.
         11    1    6    6    0    0 -0.56608966001E+02 -0.77955328041E+02  0.16199197702E+03  0.18847548599E+03  0.00000000000E+00 0. -1.
        -12    1    6    6    0    0 -0.77859413332E+01  0.17791352914E+02  0.62145845813E+02  0.65109594321E+02  0.00000000000E+00 0.  1.
</event>
<event>
12    1  0.1348628E-002  0.1950176E+03  0.7818608E-02  0.1154012E+00
         -1   -1    0    0    0  501 -0.00000000000E+00  0.00000000000E+00  0.36753828142E+02  0.36753828142E+02  0.00000000000E+00 0.  1.
          1   -1    0    0  502    0  0.00000000000E+00 -0.00000000000E+00 -0.13289456109E+04  0.13289456109E+04  0.00000000000E+00 0. -1.
          6    2    1    2  502    0  0.52842856761E+02 -0.70624152644E+02 -0.32835544612E+03  0.38259867544E+03  0.17545457817E+03 0.  0.
         24    2    3    3    0    0  0.74236612135E+02 -0.88317502474E+02 -0.16032770760E+03  0.21222802565E+03  0.77618974614E+02 0.  0.
         -6    2    1    2    0  501 -0.52842856761E+02  0.70624152644E+02 -0.96383633660E+03  0.98310076357E+03  0.17241371505E+03 0.  0.
        -24    2    5    5    0    0 -0.15035256314E+02 -0.30532813236E+02 -0.43704673709E+03  0.44533546295E+03  0.78457074546E+02 0.  0.
          5    1    3    3  502    0 -0.21393755374E+02  0.17693349830E+02 -0.16802773852E+03  0.17037064979E+03  0.47000000000E+01 0. -1.
        -13    1    4    4    0    0  0.22033519194E+02 -0.50229778093E+02 -0.12948709723E+03  0.14062508639E+03  0.00000000000E+00 0.  1.
         14    1    4    4    0    0  0.52203092941E+02 -0.38087724381E+02 -0.30840610375E+02  0.71602939251E+02  0.00000000000E+00 0. -1.
         -5    1    5    5    0  501 -0.37807600447E+02  0.10115696588E+03 -0.52678959951E+03  0.53776530062E+03  0.47000000000E+01 0.  1.
         11    1    6    6    0    0 -0.20798832914E+02  0.21858565836E+02 -0.10975409742E+03  0.11382596475E+03  0.00000000000E+00 0. -1.
        -12    1    6    6    0    0  0.57635766007E+01 -0.52391379072E+02 -0.32729263967E+03  0.33150949821E+03  0.00000000000E+00 0.  1.
</event>
<event>
12    1  0.1348628E-002  0.1755717E+03  0.7818608E-02  0.1172159E+00
         -1   -1    0    0    0  501 -0.00000000000E+00  0.00000000000E+00  0.11237093093E+02  0.11237093093E+02  0.00000000000E+00 0. -1.
          1   -1    0    0  502    0  0.00000000000E+00 -0.00000000000E+00 -0.27861400531E+04  0.27861400531E+04  0.00000000000E+00 0.  1.
          6    2    1    2  502    0  0.29554811602E+02  0.20709341673E+02 -0.11982543160E+04  0.12107479138E+04  0.16969013350E+03 0.  0.
         24    2    3    3    0    0  0.51916198068E+02  0.35834566684E+02 -0.11571148122E+04  0.11613176315E+04  0.75924600553E+02 0.  0.
         -6    2    1    2    0  501 -0.29554811602E+02 -0.20709341673E+02 -0.15766486440E+04  0.15866292323E+04  0.17397991404E+03 0.  0.
        -24    2    5    5    0    0 -0.45495552441E+02  0.40123063082E+02 -0.64335739491E+03  0.65120989623E+03  0.80534997886E+02 0.  0.
          5    1    3    3  502    0 -0.22361386467E+02 -0.15125225011E+02 -0.41139503799E+02  0.49430282309E+02  0.47000000000E+01 0. -1.
        -11    1    4    4    0    0 -0.14182493043E+02 -0.10785107455E+02 -0.20300833513E+03  0.20378872831E+03  0.00000000000E+00 0.  1.
         12    1    4    4    0    0  0.66098691111E+02  0.46619674139E+02 -0.95410647705E+03  0.95752890323E+03  0.00000000000E+00 0. -1.
         -5    1    5    5    0  501  0.15940740839E+02 -0.60832404755E+02 -0.93329124909E+03  0.93541933608E+03  0.47000000000E+01 0.  1.
         13    1    6    6    0    0 -0.51768174403E+02 -0.78730925108E+01 -0.34522409982E+03  0.34917274889E+03  0.00000000000E+00 0. -1.
        -14    1    6    6    0    0  0.62726219620E+01  0.47996155593E+02 -0.29813329508E+03  0.30203714734E+03  0.00000000000E+00 0.  1.
</event>
<event>
12    1  0.1348628E-002  0.1786525E+03  0.7818608E-02  0.1169114E+00
          2   -1    0    0  502    0  0.00000000000E+00  0.00000000000E+00  0.18186418234E+04  0.18186418234E+04  0.00000000000E+00 0.  1.
         -2   -1    0    0    0  501 -0.00000000000E+00 -0.00000000000E+00 -0.17584741261E+02  0.17584741261E+02  0.00000000000E+00 0. -1.
          6    2    1    2  502    0 -0.26035801249E+02 -0.37296511412E+02  0.85637217188E+03  0.87467322882E+03  0.17207866731E+03 0.  0.
         24    2    3    3    0    0 -0.78577213692E+02 -0.50086015147E+02  0.54741936269E+03  0.56098851493E+03  0.79731849383E+02 0.  0.
         -6    2    1    2    0  501  0.26035801249E+02  0.37296511412E+02  0.94468491026E+03  0.96155333584E+03  0.17345415900E+03 0.  0.
        -24    2    5    5    0    0  0.56632600786E+02  0.64732876615E+02  0.43814900802E+03  0.45333130903E+03  0.78339809344E+02 0.  0.
          5    1    3    3  502    0  0.52541412443E+02  0.12789503735E+02  0.30895280919E+03  0.31368471390E+03  0.47000000000E+01 0. -1.
        -13    1    4    4    0    0 -0.77113097120E+02 -0.20135512541E+02  0.48763956657E+03  0.49410951771E+03  0.00000000000E+00 0.  1.
         14    1    4    4    0    0 -0.14641165712E+01 -0.29950502607E+02  0.59779796123E+02  0.66878997213E+02  0.00000000000E+00 0. -1.
         -5    1    5    5    0  501 -0.30596799538E+02 -0.27436365202E+02  0.50653590224E+03  0.50822202681E+03  0.47000000000E+01 0.  1.
         13    1    6    6    0    0  0.48384581423E+02  0.14529998446E+02  0.10735390276E+03  0.11864674042E+03  0.00000000000E+00 0. -1.
        -14    1    6    6    0    0  0.82480193633E+01  0.50202878169E+02  0.33079510526E+03  0.33468456861E+03  0.00000000000E+00 0.  1.
</event>
<event>
12    1  0.1348628E-002  0.3234638E+03  0.7818608E-02  0.1074066E+00
          2   -1    0    0  502    0  0.00000000000E+00  0.00000000000E+00  0.39058940301E+03  0.39058940301E+03  0.00000000000E+00 0. -1.
         -2   -1    0    0    0  501 -0.00000000000E+00 -0.00000000000E+00 -0.43126404497E+03  0.43126404497E+03  0.00000000000E+00 0.  1.
          6    2    1    2  502    0 -0.23591858924E+03 -0.13938107976E+03  0.23258838306E+03  0.39855137941E+03  0.17222421419E+03 0.  0.
         24    2    3    3    0    0 -0.33869377995E+02 -0.49964307597E+02  0.63571667333E+02  0.12032847758E+03  0.82425838366E+02 0.  0.
         -6    2    1    2    0  501  0.23591858924E+03  0.13938107976E+03 -0.27326302502E+03  0.42330206857E+03  0.17154385522E+03 0.  0.
        -24    2    5    5    0    0  0.11352297271E+03  0.88514985548E+02 -0.62295820750E+02  0.17410877459E+03  0.75569359567E+02 0.  0.
          5    1    3    3  502    0 -0.20204921124E+03 -0.89416772163E+02  0.16901671573E+03  0.27822290183E+03  0.47000000000E+01 0. -1.
        -11    1    4    4    0    0 -0.22042951485E+02  0.20365458180E+02  0.12011964112E+02  0.32325390622E+02  0.00000000000E+00 0.  1.
         12    1    4    4    0    0 -0.11826426510E+02 -0.70329765777E+02  0.51559703221E+02  0.88003086959E+02  0.00000000000E+00 0. -1.
         -5    1    5    5    0  501  0.12239561652E+03  0.50866094213E+02 -0.21096720427E+03  0.24919329398E+03  0.47000000000E+01 0.  1.
         13    1    6    6    0    0  0.12434693188E+03  0.76074204932E+02 -0.52554930852E+02  0.15495633217E+03  0.00000000000E+00 0. -1.
        -14    1    6    6    0    0 -0.10823959167E+02  0.12440780616E+02 -0.97408898988E+01  0.19152442414E+02  0.00000000000E+00 0.  1.
</event>
<event>
12    1  0.1348628E-002  0.1969287E+03  0.7818608E-02  0.1152356E+00
         -2   -1    0    0    0  501 -0.00000000000E+00  0.00000000000E+00  0.68994229135E+02  0.68994229135E+02  0.00000000000E+00 0. -1.
          2   -1    0    0  502    0  0.00000000000E+00 -0.00000000000E+00 -0.56291878699E+03  0.56291878699E+03  0.00000000000E+00 0.  1.
          6    2    1    2  502    0 -0.87147852761E+02 -0.29397449978E+02 -0.23558680928E+03  0.30742223814E+03  0.17478080411E+03 0.  0.
         24    2    3    3    0    0 -0.77534277101E+02 -0.42965346965E+02 -0.60922083074E+02  0.13190481664E+03  0.76353096087E+02 0.  0.
         -6    2    1    2    0  501  0.87147852761E+02  0.29397449978E+02 -0.25833774857E+03  0.32449077799E+03  0.17348462283E+03 0.  0.
        -24    2    5    5    0    0  0.42588307881E+01  0.53275369042E+02 -0.71881444052E+02  0.11899433404E+03  0.78334583343E+02 0.  0.
          5    1    3    3  502    0 -0.96135756601E+01  0.13567896987E+02 -0.17466472621E+03  0.17551742149E+03  0.47000000000E+01 0. -1.
        -11    1    4    4    0    0  0.85610337606E+01 -0.65365104124E-01  0.94263487784E+01  0.12733876980E+02  0.00000000000E+00 0.  1.
         12    1    4    4    0    0 -0.86095310862E+02 -0.42899981861E+02 -0.70348431852E+02  0.11917093966E+03  0.00000000000E+00 0. -1.
         -5    1    5    5    0  501  0.82889021973E+02 -0.23877919063E+02 -0.18645630452E+03  0.20549644395E+03  0.47000000000E+01 0.  1.
         13    1    6    6    0    0  0.23580005695E+02  0.61722054581E+02 -0.72247011660E+02  0.97904337923E+02  0.00000000000E+00 0. -1.
        -14    1    6    6    0    0 -0.19321174907E+02 -0.84466855393E+01  0.36556760822E+00  0.21089996113E+02  0.00000000000E+00 0.  1.
</event>
<event>
12    1  0.1348628E-002  0.1826674E+03  0.7818608E-02  0.1165246E+00
         -2   -1    0    0    0  501 -0.00000000000E+00  0.00000000000E+00  0.31204261586E+02  0.31204261586E+02  0.00000000000E+00 0.  1.
          2   -1    0    0  502    0  0.00000000000E+00 -0.00000000000E+00 -0.11452968932E+04  0.11452968932E+04  0.00000000000E+00 0. -1.
          6    2    1    2  502    0 -0.12271042789E+02 -0.63055906197E+02 -0.40578709058E+03  0.44504231805E+03  0.17109317982E+03 0.  0.
         24    2    3    3    0    0 -0.15818911901E+02 -0.10473843304E+03 -0.35051405731E+03  0.37556412992E+03  0.83474151608E+02 0.  0.
         -6    2    1    2    0  501  0.12271042789E+02  0.63055906197E+02 -0.70830554105E+03  0.73145883674E+03  0.17090542582E+03 0.  0.
        -24    2    5    5    0    0 -0.30418382972E+02  0.12687426808E+02 -0.59764374533E+03  0.60251119691E+03  0.68959750903E+02 0.  0.
          5    1    3    3  502    0  0.35478691119E+01  0.41682526840E+02 -0.55273033271E+02  0.69478188131E+02  0.47000000000E+01 0. -1.
        -11    1    4    4    0    0  0.56170570850E+01  0.72411800824E+01 -0.27205463003E+01  0.95596752797E+01  0.00000000000E+00 0.  1.
         12    1    4    4    0    0 -0.21435968986E+02 -0.11197961312E+03 -0.34779351101E+03  0.36600445464E+03  0.00000000000E+00 0. -1.
         -5    1    5    5    0  501  0.42689425762E+02  0.50368479389E+02 -0.11066179572E+03  0.12894763983E+03  0.47000000000E+01 0.  1.
         11    1    6    6    0    0 -0.49473517670E+02 -0.46401103447E+01 -0.34541274043E+03  0.34896865307E+03  0.00000000000E+00 0. -1.
        -12    1    6    6    0    0  0.19055134697E+02  0.17327537153E+02 -0.25223100490E+03  0.25354254384E+03  0.00000000000E+00 0.  1.
</event>
<event>
12    1  0.1348628E-002  0.2047095E+03  0.7818608E-02  0.1145825E+00
         -2   -1    0    0    0  501 -0.00000000000E+00  0.00000000000E+00  0.11937352367E+04  0.11937352367E+04  0.00000000000E+00 0.  1.
          2   -1    0    0  502    0  0.00000000000E+00 -0.00000000000E+00 -0.35165708915E+02  0.35165708915E+02  0.00000000000E+00 0. -1.
          6    2    1    2  502    0  0.10020361405E+03 -0.45867225511E+02  0.60544640592E+03  0.63918823902E+03  0.17277640991E+03 0.  0.
         24    2    3    3    0    0  0.20736781798E+02  0.28602876860E+02  0.38020190854E+03  0.38895245586E+03  0.74043115675E+02 0.  0.
         -6    2    1    2    0  501 -0.10020361405E+03  0.45867225511E+02  0.55312312190E+03  0.58971270663E+03  0.17225365521E+03 0.  0.
        -24    2    5    5    0    0 -0.10456054969E+03  0.77329397076E+02  0.52584498789E+03  0.54758151007E+03  0.80123746076E+02 0.  0.
          5    1    3    3  502    0  0.79466832251E+02 -0.74470102370E+02  0.22524449738E+03  0.25023578316E+03  0.47000000000E+01 0. -1.
        -13    1    4    4    0    0  0.25604259038E+01 -0.83543822889E+01  0.28608923689E+03  0.28622264576E+03  0.00000000000E+00 0.  1.
         14    1    4    4    0    0  0.18176355894E+02  0.36957259149E+02  0.94112671652E+02  0.10272981010E+03  0.00000000000E+00 0. -1.
         -5    1    5    5    0  501  0.43569356384E+01 -0.31462171566E+02  0.27278134012E+02  0.42131196552E+02  0.47000000000E+01 0.  1.
         11    1    6    6    0    0 -0.27806814295E+02  0.40846273197E+02  0.82508119995E+02  0.96172900655E+02  0.00000000000E+00 0. -1.
        -12    1    6    6    0    0 -0.76753735392E+02  0.36483123880E+02  0.44333686789E+03  0.45140860942E+03  0.00000000000E+00 0.  1.
</event>
<event>
12    1  0.1348628E-002  0.1825259E+03  0.7818608E-02  0.1165381E+00
          2   -1    0    0  502    0  0.00000000000E+00  0.00000000000E+00  0.11959235174E+03  0.11959235174E+03  0.00000000000E+00 0.  1.
         -2   -1    0    0    0  501 -0.00000000000E+00 -0.00000000000E+00 -0.27903543477E+03  0.27903543477E+03  0.00000000000E+00 0. -1.
          6    2    1    2  502    0 -0.23099391029E+02 -0.49385952960E+02 -0.88413819903E+02  0.20511318698E+03  0.17686679085E+03 0.  0.
         24    2    3    3    0    0 -0.72306035338E+02 -0.23358823981E+02 -0.10308894471E+03  0.14735373255E+03  0.72883431400E+02 0.  0.
         -6    2    1    2    0  501  0.23099391029E+02  0.49385952960E+02 -0.71029263128E+02  0.19351459953E+03  0.17155229464E+03 0.  0.
        -24    2    5    5    0    0 -0.18909888055E+02  0.29487060992E+00  0.18031415759E+02  0.83384638033E+02  0.79184563462E+02 0.  0.
          5    1    3    3  502    0  0.49206644309E+02 -0.26027128979E+02  0.14675124804E+02  0.57759454422E+02  0.47000000000E+01 0. -1.
        -13    1    4    4    0    0 -0.65662531443E+02 -0.15270119939E+02 -0.30464031857E+02  0.73978387624E+02  0.00000000000E+00 0.  1.
         14    1    4    4    0    0 -0.66435038951E+01 -0.80887040424E+01 -0.72624912851E+02  0.73375344930E+02  0.00000000000E+00 0. -1.
         -5    1    5    5    0  501  0.42009279084E+02  0.49091082351E+02 -0.89060678887E+02  0.11012996150E+03  0.47000000000E+01 0.  1.
         11    1    6    6    0    0 -0.14866775672E+02 -0.10527912740E+01 -0.30879664801E+02  0.34288235396E+02  0.00000000000E+00 0. -1.
        -12    1    6    6    0    0 -0.40431123823E+01  0.13476618839E+01  0.48911080560E+02  0.49096402637E+02  0.00000000000E+00 0.  1.
</event>
<event>
12    1  0.1348628E-002  0.1808948E+03  0.7818608E-02  0.1166940E+00
          3   -1    0    0  502    0  0.00000000000E+00  0.00000000000E+00  0.12326270883E+04  0.12326270883E+04  0.00000000000E+00 0. -1.
         -3   -1    0    0    0  501 -0.00000000000E+00 -0.00000000000E+00 -0.39542236615E+02  0.39542236615E+02  0.00000000000E+00 0.  1.
          6    2    1    2  502    0  0.22309860724E+02 -0.47047026125E+02  0.23506480728E+03  0.29748138670E+03  0.17472423776E+03 0.  0.
         24    2    3    3    0    0  0.40084659594E+02 -0.90734868736E+02  0.12786798041E+03  0.18027293667E+03  0.79426160324E+02 0.  0.
         -6    2    1    2    0  501 -0.22309860724E+02  0.47047026125E+02  0.95802004438E+03  0.97468793819E+03  0.17176442840E+03 0.  0.
        -24    2    5    5    0    0 -0.53711330158E+02  0.49930386324E+02  0.91376096331E+03  0.92014142312E+03  0.79518488498E+02 0.  0.
          5    1    3    3  502    0 -0.17774798869E+02  0.43687842611E+02  0.10719682687E+03  0.11720845003E+03  0.47000000000E+01 0. -1.
        -11    1    4    4    0    0  0.26882545195E+01  0.10677426878E+02 -0.21245828211E+01  0.11213741983E+02  0.00000000000E+00 0.  1.
         12    1    4    4    0    0  0.37396405074E+02 -0.10141229561E+03  0.12999256323E+03  0.16905919469E+03  0.00000000000E+00 0. -1.
         -5    1    5    5    0  501  0.31401469433E+02 -0.28833601997E+01  0.44259081075E+02  0.54546515069E+02  0.47000000000E+01 0.  1.
         13    1    6    6    0    0 -0.51241869751E+02  0.16532654403E+02  0.79291650613E+03  0.79474250142E+03  0.00000000000E+00 0. -1.
        -14    1    6    6    0    0 -0.24694604066E+01  0.33397731921E+02  0.12084445718E+03  0.12539892170E+03  0.00000000000E+00 0.  1.
</event>
<event>
12    1  0.1348628E-002  0.2516806E+03  0.7818608E-02  0.1112247E+00
          1   -1    0    0  502    0  0.00000000000E+00  0.00000000000E+00  0.96350948165E+03  0.96350948165E+03  0.00000000000E+00 0.  1.
         -1   -1    0    0    0  501 -0.00000000000E+00 -0.00000000000E+00 -0.73868018637E+02  0.73868018637E+02  0.00000000000E+00 0. -1.
          6    2    1    2  502    0  0.12193950872E+03 -0.13721310185E+03  0.27299571999E+03  0.37139841066E+03  0.17237586027E+03 0.  0.
         24    2    3    3    0    0  0.67970862287E+02 -0.15736827725E+01  0.94753890467E+02  0.14095773153E+03  0.79172392432E+02 0.  0.
         -6    2    1    2    0  501 -0.12193950872E+03  0.13721310185E+03  0.61664574303E+03  0.66597908963E+03  0.17198690741E+03 0.  0.
        -24    2    5    5    0    0 -0.57441126806E+02  0.82333929475E+02  0.17875887445E+03  0.21995356962E+03  0.79664788962E+02 0.  0.
          5    1    3    3  502    0  0.53968646428E+02 -0.13563941908E+03  0.17824182952E+03  0.23044067913E+03  0.47000000000E+01 0. -1.
        -13    1    4    4    0    0  0.25665907132E+02 -0.11699397311E+01 -0.10318982861E+02  0.27687342869E+02  0.00000000000E+00 0.  1.
         14    1    4    4    0    0  0.42304955156E+02 -0.40374304139E+00  0.10507287333E+03  0.11327038867E+03  0.00000000000E+00 0. -1.
         -5    1    5    5    0  501 -0.64498381910E+02  0.54879172376E+02  0.43788686858E+03  0.44602552001E+03  0.47000000000E+01 0.  1.
         11    1    6    6    0    0 -0.18170859202E+02  0.60151042819E+01 -0.25940796484E+01  0.19315559864E+02  0.00000000000E+00 0. -1.
        -12    1    6    6    0    0 -0.39270267604E+02  0.76318825193E+02  0.18135295410E+03  0.20063800975E+03  0.00000000000E+00 0.  1.
</event>
<event>
12    1  0.1348628E-002  0.1845182E+03  0.7818608E-02  0.1163501E+00
          1   -1    0    0  502    0  0.00000000000E+00  0.00000000000E+00  0.64905397988E+02  0.64905397988E+02  0.00000000000E+00 0. -1.
         -1   -1    0    0    0  501 -0.00000000000E+00 -0.00000000000E+00 -0.52947539652E+03  0.52947539652E+03  0.00000000000E+00 0.  1.
          6    2    1    2  502    0  0.50174766867E+02  0.44130264062E+02 -0.25153000351E+03  0.30843180986E+03  0.16552296286E+03 0.  0.
         24    2    3    3    0    0 -0.28464977618E+01 -0.25672160021E+02 -0.16699753222E+03  0.18656523687E+03  0.79064843583E+02 0.  0.
         -6    2    1    2    0  501 -0.50174766867E+02 -0.44130264062E+02 -0.21303999503E+03  0.28594898465E+03  0.17864992277E+03 0.  0.
        -24    2    5    5    0    0 -0.11659542976E+02  0.43063890444E+02 -0.13023630793E+03  0.15959715977E+03  0.80742268382E+02 0.  0.
          5    1    3    3  502    0  0.53021264629E+02  0.69802424083E+02 -0.84532471284E+02  0.12186657299E+03  0.47000000000E+01 0. -1.
        -13    1    4    4    0    0  0.10225264112E+02  0.25165862059E+02 -0.84729288088E+02  0.88977125708E+02  0.00000000000E+00 0.  1.
         14    1    4    4    0    0 -0.13071761874E+02 -0.50838022080E+02 -0.82268244134E+02  0.97588111163E+02  0.00000000000E+00 0. -1.
         -5    1    5    5    0  501 -0.38515223891E+02 -0.87194154506E+02 -0.82803687101E+02  0.12635182487E+03  0.47000000000E+01 0.  1.
         13    1    6    6    0    0 -0.98720098073E+01 -0.15685574345E+02 -0.80485180342E+02  0.82591513334E+02  0.00000000000E+00 0. -1.
        -14    1    6    6    0    0 -0.17875331682E+01  0.58749464789E+02 -0.49751127584E+02  0.77005646441E+02  0.00000000000E+00 0.  1.
</event>
<event>
12    1  0.1348628E-002  0.1912246E+03  0.7818608E-02  0.1157361E+00
         -1   -1    0    0    0  501 -0.00000000000E+00  0.00000000000E+00  0.59250221194E+02  0.59250221194E+02  0.00000000000E+00 0. -1.
          1   -1    0    0  502    0  0.00000000000E+00 -0.00000000000E+00 -0.74841646946E+03  0.74841646946E+03  0.00000000000E+00 0.  1.
          6    2    1    2  502    0  0.64652429883E+02  0.43860579642E+02 -0.51010014486E+03  0.54394105024E+03  0.17194772815E+03 0.  0.
         24    2    3    3    0    0  0.38190272266E+02 -0.41477875136E+02 -0.31334059682E+03  0.32779455503E+03  0.78025826927E+02 0.  0.
         -6    2    1    2    0  501 -0.64652429883E+02 -0.43860579642E+02 -0.17906610340E+03  0.26372564041E+03  0.17715207276E+03 0.  0.
        -24    2    5    5    0    0  0.11793201796E+02 -0.52526730002E+02 -0.47401418883E+02  0.11115855381E+03  0.84918741151E+02 0.  0.
          5    1    3    3  502    0  0.26462157616E+02  0.85338454778E+02 -0.19675954803E+03  0.21614649521E+03  0.47000000000E+01 0. -1.
        -13    1    4    4    0    0  0.68557330211E+01  0.22597372746E+01 -0.21953970556E+03  0.21965834791E+03  0.00000000000E+00 0.  1.
         14    1    4    4    0    0  0.31334539245E+02 -0.43737612410E+02 -0.93800891265E+02  0.10813620712E+03  0.00000000000E+00 0. -1.
         -5    1    5    5    0  501 -0.76445631679E+02  0.86661503602E+01 -0.13166468452E+03  0.15256708660E+03  0.47000000000E+01 0.  1.
         11    1    6    6    0    0  0.13621922214E+02  0.10153223261E+02  0.15021800537E+02  0.22678165684E+02  0.00000000000E+00 0. -1.
        -12    1    6    6    0    0 -0.18287204175E+01 -0.62679953263E+02 -0.62423219420E+02  0.88480388122E+02  0.00000000000E+00 0.  1.
</event>
<event>
12    1  0.1348628E-002  0.2784208E+03  0.7818608E-02  0.1096555E+00
          2   -1    0    0  502    0  0.00000000000E+00  0.00000000000E+00  0.34768514793E+03  0.34768514793E+03  0.00000000000E+00 0. -1.
         -2   -1    0    0    0  501 -0.00000000000E+00 -0.00000000000E+00 -0.25652500333E+03  0.25652500333E+03  0.00000000000E+00 0.  1.
          6    2    1    2  502    0  0.19827946992E+03 -0.79011542192E+02 -0.64131575711E+02  0.28240272499E+03  0.17343836970E+03 0.  0.
         24    2    3    3    0    0  0.91802694966E+01 -0.16662177583E+02 -0.27605628284E+02  0.79912760536E+02  0.72540148013E+02 0.  0.
         -6    2    1    2    0  501 -0.19827946992E+03  0.79011542192E+02  0.15529172031E+03  0.32180742627E+03  0.18408402759E+03 0.  0.
        -24    2    5    5    0    0 -0.40150317052E+02  0.70015573627E+01  0.11000438344E+03  0.14218755047E+03  0.80344666084E+02 0.  0.
          5    1    3    3  502    0  0.18909920042E+03 -0.62349364609E+02 -0.36525947426E+02  0.20248996445E+03  0.47000000000E+01 0. -1.
        -11    1    4    4    0    0  0.32055691968E+02 -0.87962647326E+01  0.10428207945E+02  0.34838042162E+02  0.00000000000E+00 0.  1.
         12    1    4    4    0    0 -0.22875422471E+02 -0.78659128502E+01 -0.38033836229E+02  0.45074718374E+02  0.00000000000E+00 0. -1.
         -5    1    5    5    0  501 -0.15812915287E+03  0.72009984829E+02  0.45287336878E+02  0.17961987580E+03  0.47000000000E+01 0.  1.
         11    1    6    6    0    0 -0.47570493906E+02  0.32191759586E+02  0.48012426399E+02  0.74862903794E+02  0.00000000000E+00 0. -1.
        -12    1    6    6    0    0  0.74201768539E+01 -0.25190202223E+02  0.61991957036E+02  0.67324646674E+02  0.00000000000E+00 0.  1.
</event>
<event>
12    1  0.1348628E-002  0.1746310E+03  0.7818608E-02  0.1173103E+00
         -1   -1    0    0    0  501 -0.00000000000E+00  0.00000000000E+00  0.15261659539E+02  0.15261659539E+02  0.00000000000E+00 0.  1.
          1   -1    0    0  502    0  0.00000000000E+00 -0.00000000000E+00 -0.20805673869E+04  0.20805673869E+04  0.00000000000E+00 0. -1.
          6    2    1    2  502    0 -0.19372542953E+02  0.63209554093E+01 -0.81891500686E+03  0.83713332408E+03  0.17249685192E+03 0.  0.
         24    2    3    3    0    0 -0.52762479596E+02 -0.14672069489E+02 -0.73733170100E+03  0.74639457404E+03  0.10221386394E+03 0.  0.
         -6    2    1    2    0  501  0.19372542953E+02 -0.63209554093E+01 -0.12463907205E+04  0.12586957223E+04  0.17438418346E+03 0.  0.
        -24    2    5    5    0    0  0.49387746341E+02 -0.13545009660E+02 -0.38102367540E+03  0.39276540638E+03  0.80392825898E+02 0.  0.
          5    1    3    3  502    0  0.33389936643E+02  0.20993024899E+02 -0.81583305861E+02  0.90738750038E+02  0.47000000000E+01 0. -1.
        -11    1    4    4    0    0 -0.45507343950E+02  0.91189158260E+01 -0.12153037234E+03  0.13009113875E+03  0.00000000000E+00 0.  1.
         12    1    4    4    0    0 -0.72551356451E+01 -0.23790985315E+02 -0.61580132866E+03  0.61630343529E+03  0.00000000000E+00 0. -1.
         -5    1    5    5    0  501 -0.30015203388E+02  0.72240542511E+01 -0.86536704507E+03  0.86593031596E+03  0.47000000000E+01 0.  1.
         13    1    6    6    0    0 -0.24065182244E+00 -0.33261656540E+02 -0.73996914821E+02  0.81129150816E+02  0.00000000000E+00 0. -1.
        -14    1    6    6    0    0  0.49628398163E+02  0.19716646880E+02 -0.30702676058E+03  0.31163625556E+03  0.00000000000E+00 0.  1.
</event>
<event>
12    1  0.1348628E-002  0.2226183E+03  0.7818608E-02  0.1131946E+00
          2   -1    0    0  502    0  0.00000000000E+00  0.00000000000E+00  0.19756299097E+04  0.19756299097E+04  0.00000000000E+00 0. -1.
         -2   -1    0    0    0  501 -0.00000000000E+00 -0.00000000000E+00 -0.15153553872E+03  0.15153553872E+03  0.00000000000E+00 0.  1.
          6    2    1    2  502    0  0.13675736311E+03 -0.64336729183E+02 -0.55308879406E+02  0.23531282604E+03  0.17167196297E+03 0.  0.
         24    2    3    3    0    0  0.51085368357E+02  0.51776637260E+01  0.25275922911E+02  0.98608978719E+02  0.80301527652E+02 0.  0.
         -6    2    1    2    0  501 -0.13675736311E+03  0.64336729183E+02  0.18794032504E+04  0.18918526224E+04  0.15526743438E+03 0.  0.
        -24    2    5    5    0    0 -0.14585157582E+03  0.63134735975E+02  0.18678440421E+04  0.18763653764E+04  0.81529032246E+02 0.  0.
          5    1    3    3  502    0  0.85671994756E+02 -0.69514392909E+02 -0.80584802317E+02  0.13670384732E+03  0.47000000000E+01 0. -1.
        -13    1    4    4    0    0  0.47191505627E+02 -0.25090437795E+02 -0.73327250892E+01  0.53947540531E+02  0.00000000000E+00 0.  1.
         14    1    4    4    0    0  0.38938627298E+01  0.30268101521E+02  0.32608648001E+02  0.44661438189E+02  0.00000000000E+00 0. -1.
         -5    1    5    5    0  501  0.90942127073E+01  0.12019932074E+01  0.11559208351E+02  0.15487246048E+02  0.47000000000E+01 0.  1.
         13    1    6    6    0    0 -0.44419048666E+02  0.57246409073E+02  0.99323814151E+03  0.99587760744E+03  0.00000000000E+00 0. -1.
        -14    1    6    6    0    0 -0.10143252715E+03  0.58883269023E+01  0.87460590056E+03  0.88048776894E+03  0.00000000000E+00 0.  1.
</event>
<event>
12    1  0.1348628E-002  0.1872936E+03  0.7818608E-02  0.1160925E+00
          1   -1    0    0  502    0  0.00000000000E+00  0.00000000000E+00  0.13354198662E+03  0.13354198662E+03  0.00000000000E+00 0. -1.
         -1   -1    0    0    0  501 -0.00000000000E+00 -0.00000000000E+00 -0.26393102763E+03  0.26393102763E+03  0.00000000000E+00 0.  1.
          6    2    1    2  502    0 -0.61908526099E+00 -0.59398062939E+02 -0.76341159787E+02  0.19800913552E+03  0.17277480118E+03 0.  0.
         24    2    3    3    0    0 -0.51339907124E+02 -0.63179543962E+01  0.23331134816E+01  0.90297339656E+02  0.73976101000E+02 0.  0.
         -6    2    1    2    0  501  0.61908526099E+00  0.59398062939E+02 -0.54047881223E+02  0.19946387873E+03  0.18258190574E+03 0.  0.
        -24    2    5    5    0    0  0.66988969225E+02  0.19995100847E+02  0.10806282751E+00  0.10505778149E+03  0.78420658750E+02 0.  0.
          5    1    3    3  502    0  0.50720821863E+02 -0.53080108543E+02 -0.78674273269E+02  0.10771179586E+03  0.47000000000E+01 0. -1.
        -13    1    4    4    0    0 -0.52863796593E+02 -0.32708194523E+02 -0.63153918887E+01  0.62484327266E+02  0.00000000000E+00 0.  1.
         14    1    4    4    0    0  0.15238894681E+01  0.26390240127E+02  0.86485053703E+01  0.27813012390E+02  0.00000000000E+00 0. -1.
         -5    1    5    5    0  501 -0.66369883964E+02  0.39402962092E+02 -0.54155944051E+02  0.94406097234E+02  0.47000000000E+01 0.  1.
         13    1    6    6    0    0  0.38391254510E+02 -0.37818666622E+01  0.36439301230E+02  0.53066124905E+02  0.00000000000E+00 0. -1.
        -14    1    6    6    0    0  0.28597714714E+02  0.23776967510E+02 -0.36331238402E+02  0.51991656587E+02  0.00000000000E+00 0.  1.
</event>
<event>
12    1  0.1348628E-002  0.2775662E+03  0.7818608E-02  0.1097026E+00
         -1   -1    0    0    0  501 -0.00000000000E+00  0.00000000000E+00  0.47263450169E+02  0.47263450169E+02  0.00000000000E+00 0. -1.
          1   -1    0    0  502    0  0.00000000000E+00 -0.00000000000E+00 -0.16804088978E+04  0.16804088978E+04  0.00000000000E+00 0.  1.
          6    2    1    2  502    0 -0.93077530955E+02  0.19724212691E+03 -0.66735913828E+03  0.72281923286E+03  0.17184743395E+03 0.  0.
         24    2    3    3    0    0 -0.49498845104E+02  0.17983958224E+03 -0.37041040532E+03  0.42214899751E+03  0.78825736423E+02 0.  0.
         -6    2    1    2    0  501  0.93077530955E+02 -0.19724212691E+03 -0.96578630934E+03  0.10048531151E+04  0.17151881591E+03 0.  0.
        -24    2    5    5    0    0  0.40093538584E+02 -0.29262591544E+02 -0.45265748589E+03  0.46231490704E+03  0.79827831205E+02 0.  0.
          5    1    3    3  502    0 -0.43578685851E+02  0.17402544670E+02 -0.29694873295E+03  0.30067023535E+03  0.47000000000E+01 0. -1.
        -11    1    4    4    0    0  0.10176242440E+02  0.44158568251E+02 -0.14872247026E+03  0.15547317524E+03  0.00000000000E+00 0.  1.
         12    1    4    4    0    0 -0.59675087544E+02  0.13568101399E+03 -0.22168793506E+03  0.26667582227E+03  0.00000000000E+00 0. -1.
         -5    1    5    5    0  501  0.52983992371E+02 -0.16797953536E+03 -0.51312882345E+03  0.54253820806E+03  0.47000000000E+01 0.  1.
         11    1    6    6    0    0  0.61912230566E+02 -0.31911839305E+02 -0.29376700705E+03  0.30191148407E+03  0.00000000000E+00 0. -1.
        -12    1    6    6    0    0 -0.21818691981E+02  0.26492477615E+01 -0.15889047884E+03  0.16040342297E+03  0.00000000000E+00 0.  1.
</event>
<event>
12    1  0.1348628E-002  0.1800173E+03  0.7818608E-02  0.1167786E+00
          2   -1    0    0  502    0  0.00000000000E+00  0.00000000000E+00  0.30837208521E+04  0.30837208521E+04  0.00000000000E+00 0.  1.
         -2   -1    0    0    0  501 -0.00000000000E+00 -0.00000000000E+00 -0.10618082057E+02  0.10618082057E+02  0.00000000000E+00 0. -1.
          6    2    1    2  502    0  0.42090924867E+02  0.30067444727E+02  0.16920735303E+04  0.17016046788E+04  0.17224968395E+03 0.  0.
         24    2    3    3    0    0  0.83669368055E+02  0.54161863130E+02  0.13363508959E+04  0.13426200126E+04  0.82829406541E+02 0.  0.
         -6    2    1    2    0  501 -0.42090924867E+02 -0.30067444727E+02  0.13810292397E+04  0.13927342553E+04  0.17260141356E+03 0.  0.
        -24    2    5    5    0    0 -0.16095987712E+02  0.50521179421E+02  0.62192454614E+03  0.62890686067E+03  0.76956012843E+02 0.  0.
          5    1    3    3  502    0 -0.41578443189E+02 -0.24094418403E+02  0.35572263438E+03  0.35898466617E+03  0.47000000000E+01 0. -1.
        -13    1    4    4    0    0 -0.13660918559E+02  0.82347245995E+01  0.36045664873E+03  0.36080940536E+03  0.00000000000E+00 0.  1.
         14    1    4    4    0    0  0.97330286614E+02  0.45927138531E+02  0.97589424721E+03  0.98181060724E+03  0.00000000000E+00 0. -1.
         -5    1    5    5    0  501 -0.25994937154E+02 -0.80588624148E+02  0.75910469355E+03  0.76382739468E+03  0.47000000000E+01 0.  1.
         13    1    6    6    0    0  0.57891388493E+01 -0.16948507722E+02  0.22360985817E+03  0.22432595639E+03  0.00000000000E+00 0. -1.
        -14    1    6    6    0    0 -0.21885126562E+02  0.67469687143E+02  0.39831468797E+03  0.40458090427E+03  0.00000000000E+00 0.  1.
</event>
<event>
12    1  0.1348628E-002  0.1915890E+03  0.7818608E-02  0.1157036E+00
         -1   -1    0    0    0  501 -0.00000000000E+00  0.00000000000E+00  0.71294744840E+02  0.71294744840E+02  0.00000000000E+00 0.  1.
          1   -1    0    0  502    0  0.00000000000E+00 -0.00000000000E+00 -0.51540094733E+03  0.51540094733E+03  0.00000000000E+00 0. -1.
          6    2    1    2  502    0 -0.63356801471E+02 -0.56354057709E+02 -0.23189060088E+03  0.30095323470E+03  0.17207479359E+03 0.  0.
         24    2    3    3    0    0  0.77386834275E+01 -0.73553184325E+02 -0.91564071339E+02  0.14263708637E+03  0.80569231742E+02 0.  0.
         -6    2    1    2    0  501  0.63356801471E+02  0.56354057709E+02 -0.21221560161E+03  0.28574245746E+03  0.17153258093E+03 0.  0.
        -24    2    5    5    0    0  0.75152860881E+02  0.99728891782E+01 -0.63820195275E+02  0.12975000113E+03  0.83753414567E+02 0.  0.
          5    1    3    3  502    0 -0.71095484898E+02  0.17199126615E+02 -0.14032652954E+03  0.15831614833E+03  0.47000000000E+01 0. -1.
        -11    1    4    4    0    0 -0.68335025487E+00 -0.21386452907E+02  0.13312307554E+02  0.25200493407E+02  0.00000000000E+00 0.  1.
         12    1    4    4    0    0  0.84220336823E+01 -0.52166731417E+02 -0.10487637889E+03  0.11743659297E+03  0.00000000000E+00 0. -1.
         -5    1    5    5    0  501 -0.11796059411E+02  0.46381168531E+02 -0.14839540633E+03  0.15599245633E+03  0.47000000000E+01 0.  1.
         13    1    6    6    0    0  0.22003579141E+02  0.18951067556E+02 -0.69719814146E+02  0.75525842869E+02  0.00000000000E+00 0. -1.
        -14    1    6    6    0    0  0.53149281740E+02 -0.89781783782E+01  0.58996188709E+01  0.54224158263E+02  0.00000000000E+00 0.  1.
</event>
<event>
12    1  0.1348628E-002  0.1905352E+03  0.7818608E-02  0.1157979E+00
         -1   -1    0    0    0  501 -0.00000000000E+00  0.00000000000E+00  0.27701312187E+03  0.27701312187E+03  0.00000000000E+00 0. -1.
          1   -1    0    0  502    0  0.00000000000E+00 -0.00000000000E+00 -0.40371911437E+03  0.40371911437E+03  0.00000000000E+00 0.  1.
          6    2    1    2  502    0  0.83683655662E+02 -0.32985016837E+01 -0.34296296393E+03  0.39186210549E+03  0.17005434647E+03 0.  0.
         24    2    3    3    0    0  0.64162051069E+01  0.39780919969E+02 -0.95879773926E+02  0.12937727114E+03  0.76953609120E+02 0.  0.
         -6    2    1    2    0  501 -0.83683655662E+02  0.32985016837E+01  0.21625697142E+03  0.28887013075E+03  0.17223542148E+03 0.  0.
        -24    2    5    5    0    0 -0.25337121278E+02 -0.13207062487E+01  0.21435977013E+03  0.23012198585E+03  0.79764047924E+02 0.  0.
          5    1    3    3  502    0  0.77267450555E+02 -0.43079421653E+02 -0.24708319000E+03  0.26248483435E+03  0.47000000000E+01 0. -1.
        -11    1    4    4    0    0  0.39756936283E+02  0.14842018623E+02 -0.64636448781E+02  0.77322506494E+02  0.00000000000E+00 0.  1.
         12    1    4    4    0    0 -0.33340731176E+02  0.24938901347E+02 -0.31243325145E+02  0.52054764642E+02  0.00000000000E+00 0. -1.
         -5    1    5    5    0  501 -0.58346534384E+02  0.46192079324E+01  0.18972012956E+01  0.58748144901E+02  0.47000000000E+01 0.  1.
         13    1    6    6    0    0 -0.20491068469E+02  0.26515994863E+02  0.34647281512E+02  0.48201825554E+02  0.00000000000E+00 0. -1.
        -14    1    6    6    0    0 -0.48460528093E+01 -0.27836701112E+02  0.17971248861E+03  0.18192016029E+03  0.00000000000E+00 0.  1.
</event>
<event>
12    1  0.1348628E-002  0.1859957E+03  0.7818608E-02  0.1162123E+00
          1   -1    0    0  502    0  0.00000000000E+00  0.00000000000E+00  0.93406939851E+03  0.93406939851E+03  0.00000000000E+00 0. -1.
         -1   -1    0    0    0  501 -0.00000000000E+00 -0.00000000000E+00 -0.40448422008E+02  0.40448422008E+02  0.00000000000E+00 0.  1.
          6    2    1    2  502    0 -0.49756298144E+02  0.51507267707E+02  0.30689025842E+03  0.35922972440E+03  0.17244035592E+03 0.  0.
         24    2    3    3    0    0 -0.70280844410E+02  0.60725861339E+02  0.31242500307E+03  0.33558732887E+03  0.79890208577E+02 0.  0.
         -6    2    1    2    0  501  0.49756298144E+02 -0.51507267707E+02  0.58673071809E+03  0.61528809612E+03  0.17087368975E+03 0.  0.
        -24    2    5    5    0    0  0.98656601289E+02 -0.42129441962E+02  0.45871973144E+03  0.47785416303E+03  0.80079924153E+02 0.  0.
          5    1    3    3  502    0  0.20524546266E+02 -0.92185936319E+01 -0.55347446557E+01  0.23642395530E+02  0.47000000000E+01 0. -1.
        -11    1    4    4    0    0 -0.27709436958E+02  0.61081627019E+02  0.11082624136E+03  0.12954240167E+03  0.00000000000E+00 0.  1.
         12    1    4    4    0    0 -0.42571407452E+02 -0.35576567992E+00  0.20159876171E+03  0.20604492720E+03  0.00000000000E+00 0. -1.
         -5    1    5    5    0  501 -0.48900303145E+02 -0.93778257454E+01  0.12801098665E+03  0.13743393309E+03  0.47000000000E+01 0.  1.
         11    1    6    6    0    0 -0.13463950158E+02  0.40445465123E-01  0.34119550884E+02  0.36680012843E+02  0.00000000000E+00 0. -1.
        -12    1    6    6    0    0  0.11212055145E+03 -0.42169887427E+02  0.42460018056E+03  0.44117415018E+03  0.00000000000E+00 0.  1.
</event>
<event>
12    1  0.1348628E-002  0.1985125E+03  0.7818608E-02  0.1151000E+00
         -1   -1    0    0    0  501 -0.00000000000E+00  0.00000000000E+00  0.50282777550E+03  0.50282777550E+03  0.00000000000E+00 0.  1.
          1   -1    0    0  502    0  0.00000000000E+00 -0.00000000000E+00 -0.94736953781E+02  0.94736953781E+02  0.00000000000E+00 0. -1.
          6    2    1    2  502    0  0.72251393744E+02 -0.69689528688E+02  0.81097953198E+02  0.21577026779E+03  0.17292494367E+03 0.  0.
         24    2    3    3    0    0  0.14531067271E+02 -0.10200107963E+03  0.39707697210E+02  0.13759792164E+03  0.82104291366E+02 0.  0.
         -6    2    1    2    0  501 -0.72251393744E+02  0.69689528688E+02  0.32699286852E+03  0.38179446149E+03  0.16960477722E+03 0.  0.
        -24    2    5    5    0    0 -0.31722424108E+02 -0.19396343378E+02  0.96053380839E+02  0.13092790941E+03  0.80829049013E+02 0.  0.
          5    1    3    3  502    0  0.57720326473E+02  0.32311550938E+02  0.41390255987E+02  0.78172346152E+02  0.47000000000E+01 0. -1.
        -13    1    4    4    0    0 -0.26124666570E+02 -0.79725495020E+02  0.35334078225E+02  0.91033784079E+02  0.00000000000E+00 0.  1.
         14    1    4    4    0    0  0.40655733841E+02 -0.22275584605E+02  0.43736189848E+01  0.46564137560E+02  0.00000000000E+00 0. -1.
         -5    1    5    5    0  501 -0.40528969636E+02  0.89085872066E+02  0.23093948768E+03  0.25086655208E+03  0.47000000000E+01 0.  1.
         13    1    6    6    0    0 -0.12774451842E+02  0.24887452928E+02  0.57174017943E+01  0.28552768980E+02  0.00000000000E+00 0. -1.
        -14    1    6    6    0    0 -0.18947972265E+02 -0.44283796307E+02  0.90335979045E+02  0.10237514043E+03  0.00000000000E+00 0.  1.
</event>
<event>
12    1  0.1348628E-002  0.3545716E+03  0.7818608E-02  0.1060754E+00
         -2   -1    0    0    0  501 -0.00000000000E+00  0.00000000000E+00  0.92211706433E+02  0.92211706433E+02  0.00000000000E+00 0. -1.
          2   -1    0    0  502    0  0.00000000000E+00 -0.00000000000E+00 -0.14790790987E+04  0.14790790987E+04  0.00000000000E+00 0.  1.
          6    2    1    2  502    0 -0.25360015853E+03  0.17775587045E+03 -0.47389864730E+03  0.59192320096E+03  0.17286687953E+03 0.  0.
         24    2    3    3    0    0 -0.26965117298E+03  0.18021802373E+03 -0.43949569920E+03  0.55359109821E+03  0.90090749991E+02 0.  0.
         -6    2    1    2    0  501  0.25360015853E+03 -0.17775587045E+03 -0.91296874493E+03  0.97936760413E+03  0.17244936915E+03 0.  0.
        -24    2    5    5    0    0  0.22763700083E+03 -0.18295926665E+03 -0.69085972932E+03  0.75563636871E+03  0.91686742339E+02 0.  0.
          5    1    3    3  502    0  0.16051014443E+02 -0.24621532888E+01 -0.34402948102E+02  0.38332102755E+02  0.47000000000E+01 0. -1.
        -13    1    4    4    0    0 -0.43539554817E+02 -0.48899910664E+01 -0.68813888806E+02  0.81577914528E+02  0.00000000000E+00 0.  1.
         14    1    4    4    0    0 -0.22611161816E+03  0.18510801480E+03 -0.37068181039E+03  0.47201318368E+03  0.00000000000E+00 0. -1.
         -5    1    5    5    0  501  0.25963157708E+02  0.52033962015E+01 -0.22210901561E+03  0.22373123542E+03  0.47000000000E+01 0.  1.
         13    1    6    6    0    0  0.89200451135E+02 -0.99457577047E+02 -0.21566158348E+03  0.25368967008E+03  0.00000000000E+00 0. -1.
        -14    1    6    6    0    0  0.13843654969E+03 -0.83501689600E+02 -0.47519814584E+03  0.50194669863E+03  0.00000000000E+00 0.  1.
</event>
<event>
12    1  0.1348628E-002  0.1928534E+03  0.7818608E-02  0.1155913E+00
         -2   -1    0    0    0  501 -0.00000000000E+00  0.00000000000E+00  0.79935344479E+02  0.79935344479E+02  0.00000000000E+00 0. -1.
          2   -1    0    0  502    0  0.00000000000E+00 -0.00000000000E+00 -0.74130330248E+03  0.74130330248E+03  0.00000000000E+00 0.  1.
          6    2    1    2  502    0  0.82051160786E+02  0.30794870178E+02 -0.58130721552E+03  0.61248095134E+03  0.17185493863E+03 0.  0.
         24    2    3    3    0    0 -0.55781418840E+01  0.20747228878E+02 -0.42226342415E+03  0.43055550685E+03  0.81302410361E+02 0.  0.
         -6    2    1    2    0  501 -0.82051160786E+02 -0.30794870178E+02 -0.80060742482E+02  0.20875769561E+03  0.17172459339E+03 0.  0.
        -24    2    5    5    0    0  0.11918779757E+02 -0.17692392950E+02  0.29999330668E+01  0.82570570842E+02  0.79710861817E+02 0.  0.
          5    1    3    3  502    0  0.87629302670E+02  0.10047641300E+02 -0.15904379136E+03  0.18192544449E+03  0.47000000000E+01 0. -1.
        -13    1    4    4    0    0  0.26828757995E+02 -0.15036943554E+02 -0.24172257125E+03  0.24367128140E+03  0.00000000000E+00 0.  1.
         14    1    4    4    0    0 -0.32406899879E+02  0.35784172431E+02 -0.18054085290E+03  0.18688422545E+03  0.00000000000E+00 0. -1.
         -5    1    5    5    0  501 -0.93969940543E+02 -0.13102477228E+02 -0.83060675549E+02  0.12618712477E+03  0.47000000000E+01 0.  1.
         13    1    6    6    0    0  0.34337716556E+02  0.15806435167E+02  0.14761549432E+02  0.40581097972E+02  0.00000000000E+00 0. -1.
        -14    1    6    6    0    0 -0.22418936799E+02 -0.33498828117E+02 -0.11761616366E+02  0.41989472870E+02  0.00000000000E+00 0.  1.
</event>
<event>
12    1  0.1348628E-002  0.2033693E+03  0.7818608E-02  0.1146927E+00
          2   -1    0    0  502    0  0.00000000000E+00  0.00000000000E+00  0.36349017590E+04  0.36349017590E+04  0.00000000000E+00 0.  1.
         -2   -1    0    0    0  501 -0.00000000000E+00 -0.00000000000E+00 -0.11583251036E+02  0.11583251036E+02  0.00000000000E+00 0. -1.
          6    2    1    2  502    0 -0.93103214344E+02 -0.56505629991E+02  0.15796833554E+04  0.15928717907E+04  0.17314717372E+03 0.  0.
         24    2    3    3    0    0 -0.53737653581E+02  0.37006642500E+02  0.80251146262E+03  0.80909093274E+03  0.79663434607E+02 0.  0.
         -6    2    1    2    0  501  0.93103214344E+02  0.56505629991E+02  0.20436351526E+04  0.20536132193E+04  0.17035704506E+03 0.  0.
        -24    2    5    5    0    0  0.93732460119E+02  0.26665155880E+02  0.82766932220E+03  0.83727204983E+03  0.80567821738E+02 0.  0.
          5    1    3    3  502    0 -0.39365560763E+02 -0.93512272490E+02  0.77717189275E+03  0.78378085800E+03  0.47000000000E+01 0. -1.
        -11    1    4    4    0    0 -0.11549471386E+02  0.13159832667E+01  0.12204707649E+02  0.16854583651E+02  0.00000000000E+00 0.  1.
         12    1    4    4    0    0 -0.42188182195E+02  0.35690659233E+02  0.79030675497E+03  0.79223634909E+03  0.00000000000E+00 0. -1.
         -5    1    5    5    0  501 -0.62924577463E+00  0.29840474110E+02  0.12159658304E+04  0.12163411695E+04  0.47000000000E+01 0.  1.
         11    1    6    6    0    0  0.36384504308E+02  0.35679947897E+02  0.60559954111E+03  0.60773982511E+03  0.00000000000E+00 0. -1.
        -12    1    6    6    0    0  0.57347955811E+02 -0.90147920167E+01  0.22206978109E+03  0.22953222472E+03  0.00000000000E+00 0.  1.
</event>
<event>
12    1  0.1348628E-002  0.2470396E+03  0.7818608E-02  0.1115190E+00
         -1   -1    0    0    0  501 -0.00000000000E+00  0.00000000000E+00  0.98611909015E+02  0.98611909015E+02  0.00000000000E+00 0. -1.
          1   -1    0    0  502    0  0.00000000000E+00 -0.00000000000E+00 -0.61926210167E+03  0.61926210167E+03  0.00000000000E+00 0.  1.
          6    2    1    2  502    0 -0.16356059255E+03  0.68402498528E+02 -0.26948319379E+03  0.36571052648E+03  0.17231374933E+03 0.  0.
         24    2    3    3    0    0 -0.17872793003E+03  0.47263285064E+02 -0.17349232117E+03  0.26614521074E+03  0.80970344011E+02 0.  0.
         -6    2    1    2    0  501  0.16356059255E+03 -0.68402498528E+02 -0.25116699886E+03  0.35216348420E+03  0.17176521489E+03 0.  0.
        -24    2    5    5    0    0  0.18662011699E+03 -0.41316088477E+02 -0.23061019140E+03  0.31081027864E+03  0.82993262952E+02 0.  0.
          5    1    3    3  502    0  0.15167337482E+02  0.21139213463E+02 -0.95990872620E+02  0.99565315741E+02  0.47000000000E+01 0. -1.
        -11    1    4    4    0    0 -0.61339096194E+02  0.39745765102E+02 -0.11111819282E+03  0.13300174187E+03  0.00000000000E+00 0.  1.
         12    1    4    4    0    0 -0.11738883383E+03  0.75175199628E+01 -0.62374128348E+02  0.13314346887E+03  0.00000000000E+00 0. -1.
         -5    1    5    5    0  501 -0.23059524448E+02 -0.27086410051E+02 -0.20556807463E+02  0.41353205562E+02  0.47000000000E+01 0.  1.
         13    1    6    6    0    0  0.63048510720E+02 -0.24643129015E+02 -0.28754386204E+02  0.73547353709E+02  0.00000000000E+00 0. -1.
        -14    1    6    6    0    0  0.12357160627E+03 -0.16672959462E+02 -0.20185580519E+03  0.23726292493E+03  0.00000000000E+00 0.  1.
</event>
<event>
12    1  0.1348628E-002  0.2170383E+03  0.7818608E-02  0.1136111E+00
          2   -1    0    0  502    0  0.00000000000E+00  0.00000000000E+00  0.11141530729E+04  0.11141530729E+04  0.00000000000E+00 0. -1.
         -2   -1    0    0    0  501 -0.00000000000E+00 -0.00000000000E+00 -0.57372544389E+02  0.57372544389E+02  0.00000000000E+00 0.  1.
          6    2    1    2  502    0 -0.81282121732E+02  0.10427254707E+03  0.82876868607E+03  0.85670751367E+03  0.17207754528E+03 0.  0.
         24    2    3    3    0    0 -0.37254110218E+02  0.58826727454E+02  0.21763191944E+03  0.24228581334E+03  0.80562462685E+02 0.  0.
         -6    2    1    2    0  501  0.81282121732E+02 -0.10427254707E+03  0.22801184244E+03  0.31481810362E+03  0.17216704297E+03 0.  0.
        -24    2    5    5    0    0  0.47066996626E+02 -0.13685597539E+03  0.14227410759E+03  0.21681094181E+03  0.76290252512E+02 0.  0.
          5    1    3    3  502    0 -0.44028011514E+02  0.45445819613E+02  0.61113676662E+03  0.61442170033E+03  0.47000000000E+01 0. -1.
        -13    1    4    4    0    0  0.76887911932E+00  0.65235789733E+02  0.16155936300E+03  0.17423469003E+03  0.00000000000E+00 0.  1.
         14    1    4    4    0    0 -0.38022989337E+02 -0.64090622790E+01  0.56072556439E+02  0.68051123305E+02  0.00000000000E+00 0. -1.
         -5    1    5    5    0  501  0.34215125106E+02  0.32583428322E+02  0.85737734857E+02  0.98007161808E+02  0.47000000000E+01 0.  1.
         11    1    6    6    0    0  0.73101287251E+01 -0.65372146521E+02  0.11142190371E+03  0.12939009293E+03  0.00000000000E+00 0. -1.
        -12    1    6    6    0    0  0.39756867901E+02 -0.71483828868E+02  0.30852203880E+02  0.87420848882E+02  0.00000000000E+00 0.  1.
</event>
<event>
12    1  0.1348628E-002  0.2290125E+03  0.7818608E-02  0.1127337E+00
          2   -1    0    0  502    0  0.00000000000E+00  0.00000000000E+00  0.50598355756E+03  0.50598355756E+03  0.00000000000E+00 0. -1.
         -2   -1    0    0    0  501 -0.00000000000E+00 -0.00000000000E+00 -0.10423981125E+03  0.10423981125E+03  0.00000000000E+00 0.  1.
          6    2    1    2  502    0 -0.12754575494E+03  0.78228135059E+02  0.22377318014E+03  0.32019727264E+03  0.17339058953E+03 0.  0.
         24    2    3    3    0    0 -0.80211795983E+02  0.46052609862E+02  0.40179310704E+02  0.12783156107E+03  0.78560523854E+02 0.  0.
         -6    2    1    2    0  501  0.12754575494E+03 -0.78228135059E+02  0.17797056617E+03  0.29002609617E+03  0.17336104903E+03 0.  0.
        -24    2    5    5    0    0  0.11216577672E+03 -0.69959099258E+01  0.16557731080E+03  0.21595682855E+03  0.81187448049E+02 0.  0.
          5    1    3    3  502    0 -0.47333958956E+02  0.32175525197E+02  0.18359386943E+03  0.19236571156E+03  0.47000000000E+01 0. -1.
        -11    1    4    4    0    0 -0.76607395435E+02  0.61448978305E+01  0.42262474321E+02  0.87707294682E+02  0.00000000000E+00 0.  1.
         12    1    4    4    0    0 -0.36044005482E+01  0.39907712032E+02 -0.20831636172E+01  0.40124266393E+02  0.00000000000E+00 0. -1.
         -5    1    5    5    0  501  0.15379978222E+02 -0.71232225133E+02  0.12393255362E+02  0.74069267621E+02  0.47000000000E+01 0.  1.
         11    1    6    6    0    0  0.81683628941E+02  0.19729238325E+01  0.16506237377E+03  0.18417843224E+03  0.00000000000E+00 0. -1.
        -12    1    6    6    0    0  0.30482147775E+02 -0.89688337583E+01  0.51493703216E+00  0.31778396311E+02  0.00000000000E+00 0.  1.
</event>
<event>
12    1  0.1348628E-002  0.1960021E+03  0.7818608E-02  0.1153157E+00
          2   -1    0    0  502    0  0.00000000000E+00  0.00000000000E+00  0.50949146895E+02  0.50949146895E+02  0.00000000000E+00 0. -1.
         -2   -1    0    0    0  501 -0.00000000000E+00 -0.00000000000E+00 -0.78310516894E+03  0.78310516894E+03  0.00000000000E+00 0.  1.
          6    2    1    2  502    0  0.56862053390E+02  0.76796526335E+02 -0.28511482627E+03  0.34579837917E+03  0.17074851480E+03 0.  0.
         24    2    3    3    0    0 -0.32777475142E+02  0.39261820865E+02 -0.17242815729E+03  0.19692099823E+03  0.80190751734E+02 0.  0.
         -6    2    1    2    0  501 -0.56862053390E+02 -0.76796526335E+02 -0.44704119578E+03  0.48825593666E+03  0.17151393353E+03 0.  0.
        -24    2    5    5    0    0 -0.77216020771E+02 -0.14014724856E+02 -0.37146652728E+03  0.38780963707E+03  0.79058252784E+02 0.  0.
          5    1    3    3  502    0  0.89639528532E+02  0.37534705470E+02 -0.11268666898E+03  0.14887738094E+03  0.47000000000E+01 0. -1.
        -13    1    4    4    0    0  0.19693275748E+02 -0.99844156690E+01 -0.54060487444E+02  0.58395633130E+02  0.00000000000E+00 0.  1.
         14    1    4    4    0    0 -0.52470750890E+02  0.49246236534E+02 -0.11836766984E+03  0.13852536510E+03  0.00000000000E+00 0. -1.
         -5    1    5    5    0  501  0.20353967380E+02 -0.62781801479E+02 -0.75574668492E+02  0.10044629960E+03  0.47000000000E+01 0.  1.
         11    1    6    6    0    0 -0.33393804330E+01  0.22748013745E+02 -0.39157761664E+02  0.45408742435E+02  0.00000000000E+00 0. -1.
        -12    1    6    6    0    0 -0.73876640338E+02 -0.36762738600E+02 -0.33230876562E+03  0.34240089463E+03  0.00000000000E+00 0.  1.
</event>
<event>
12    1  0.1348628E-002  0.2122775E+03  0.7818608E-02  0.1139775E+00
          2   -1    0    0  502    0  0.00000000000E+00  0.00000000000E+00  0.34836736866E+03  0.34836736866E+03  0.00000000000E+00 0. -1.
         -2   -1    0    0    0  501 -0.00000000000E+00 -0.00000000000E+00 -0.22524396300E+03  0.22524396300E+03  0.00000000000E+00 0.  1.
          6    2    1    2  502    0 -0.66901494060E+02  0.10459827816E+03 -0.12554899717E+03  0.24674868928E+03  0.17235357632E+03 0.  0.
         24    2    3    3    0    0 -0.94956205972E+02  0.48840593802E+02 -0.13066588197E+03  0.18394535549E+03  0.73213635614E+02 0.  0.
         -6    2    1    2    0  501  0.66901494060E+02 -0.10459827816E+03  0.24867240282E+03  0.32686264238E+03  0.17200178300E+03 0.  0.
        -24    2    5    5    0    0  0.22928725249E+01 -0.90463127528E+02  0.22714198189E+03  0.25715091105E+03  0.79650966138E+02 0.  0.
          5    1    3    3  502    0  0.28054711912E+02  0.55757684361E+02  0.51168847999E+01  0.62803333796E+02  0.47000000000E+01 0. -1.
        -11    1    4    4    0    0 -0.31988910269E+02  0.53740139447E+02 -0.87067495086E+02  0.10720094061E+03  0.00000000000E+00 0.  1.
         12    1    4    4    0    0 -0.62967295703E+02 -0.48995456457E+01 -0.43598386881E+02  0.76744414874E+02  0.00000000000E+00 0. -1.
         -5    1    5    5    0  501  0.64608621536E+02 -0.14135150635E+02  0.21530420931E+02  0.69711731335E+02  0.47000000000E+01 0.  1.
         13    1    6    6    0    0  0.55994576929E+01 -0.10176069410E+03  0.16525298349E+03  0.19415236630E+03  0.00000000000E+00 0. -1.
        -14    1    6    6    0    0 -0.33065851681E+01  0.11297566571E+02  0.61888998404E+02  0.62998544740E+02  0.00000000000E+00 0.  1.
</event>
<event>
12    1  0.1348628E-002  0.3302257E+03  0.7818608E-02  0.1071037E+00
          2   -1    0    0  502    0  0.00000000000E+00  0.00000000000E+00  0.27060245264E+03  0.27060245264E+03  0.00000000000E+00 0.  1.
         -2   -1    0    0    0  501 -0.00000000000E+00 -0.00000000000E+00 -0.56009074678E+03  0.56009074678E+03  0.00000000000E+00 0. -1.
          6    2    1    2  502    0 -0.23723785772E+03  0.15246314960E+03 -0.36464570913E+03  0.49179184930E+03  0.17136486434E+03 0.  0.
         24    2    3    3    0    0 -0.10345872150E+03  0.11692721859E+03 -0.27396495227E+03  0.32624805043E+03  0.83697752867E+02 0.  0.
         -6    2    1    2    0  501  0.23723785772E+03 -0.15246314960E+03  0.75157414994E+02  0.33890135012E+03  0.17227499807E+03 0.  0.
        -24    2    5    5    0    0  0.51007113280E+02 -0.87753283979E+02  0.57226214161E+02  0.14087894015E+03  0.79181258752E+02 0.  0.
          5    1    3    3  502    0 -0.13377913622E+03  0.35535931018E+02 -0.90680756862E+02  0.16554379888E+03  0.47000000000E+01 0. -1.
        -13    1    4    4    0    0 -0.47158696076E+02  0.85778382959E+02 -0.96403017760E+02  0.13738782854E+03  0.00000000000E+00 0.  1.
         14    1    4    4    0    0 -0.56300025427E+02  0.31148835628E+02 -0.17756193451E+03  0.18886022188E+03  0.00000000000E+00 0. -1.
         -5    1    5    5    0  501  0.18623074444E+03 -0.64709865626E+02  0.17931200834E+02  0.19802240996E+03  0.47000000000E+01 0.  1.
         11    1    6    6    0    0  0.39253019607E+02 -0.10157464382E+02 -0.48233900241E+01  0.40831834667E+02  0.00000000000E+00 0. -1.
        -12    1    6    6    0    0  0.11754093673E+02 -0.77595819597E+02  0.62049604185E+02  0.10004710549E+03  0.00000000000E+00 0.  1.
</event>
<event>
12    1  0.1348628E-002  0.1773013E+03  0.7818608E-02  0.1170441E+00
         -2   -1    0    0    0  501 -0.00000000000E+00  0.00000000000E+00  0.90272646425E+02  0.90272646425E+02  0.00000000000E+00 0.  1.
          2   -1    0    0  502    0  0.00000000000E+00 -0.00000000000E+00 -0.35440520108E+03  0.35440520108E+03  0.00000000000E+00 0. -1.
          6    2    1    2  502    0  0.33116993491E+02 -0.29713855942E+02 -0.16118679647E+03  0.23939349522E+03  0.17131378726E+03 0.  0.
         24    2    3    3    0    0 -0.38301487726E+02 -0.39720778333E+02 -0.57251082032E+02  0.11280178660E+03  0.80011327155E+02 0.  0.
         -6    2    1    2    0  501 -0.33116993491E+02  0.29713855942E+02 -0.10294575819E+03  0.20528435229E+03  0.17194239638E+03 0.  0.
        -24    2    5    5    0    0 -0.29437547016E+02 -0.40009150265E+02 -0.97585136099E+02  0.13510129030E+03  0.79134054450E+02 0.  0.
          5    1    3    3  502    0  0.71418481217E+02  0.10006922390E+02 -0.10393571443E+03  0.12659170862E+03  0.47000000000E+01 0. -1.
        -11    1    4    4    0    0  0.16068483354E+02  0.11156487686E+02 -0.11947522038E+01  0.19598234809E+02  0.00000000000E+00 0.  1.
         12    1    4    4    0    0 -0.54369971081E+02 -0.50877266018E+02 -0.56056329828E+02  0.93203551792E+02  0.00000000000E+00 0. -1.
         -5    1    5    5    0  501 -0.36794464748E+01  0.69723006207E+02 -0.53606220869E+01  0.70183061988E+02  0.47000000000E+01 0.  1.
         13    1    6    6    0    0  0.13804191468E+02 -0.13867648526E+02 -0.78799904921E+02  0.81192933148E+02  0.00000000000E+00 0. -1.
        -14    1    6    6    0    0 -0.43241738484E+02 -0.26141501738E+02 -0.18785231178E+02  0.53908357150E+02  0.00000000000E+00 0.  1.
</event>
<event>
12    1  0.1348628E-002  0.1728568E+03  0.7818608E-02  0.1174901E+00
          1   -1    0    0  502    0  0.00000000000E+00  0.00000000000E+00  0.92497123120E+02  0.92497123120E+02  0.00000000000E+00 0. -1.
         -1   -1    0    0    0  501 -0.00000000000E+00 -0.00000000000E+00 -0.37998931954E+03  0.37998931954E+03  0.00000000000E+00 0.  1.
          6    2    1    2  502    0  0.12354530483E+02 -0.13936082490E+02 -0.52697334605E+02  0.18126946071E+03  0.17243769742E+03 0.  0.
         24    2    3    3    0    0 -0.17460674618E+02 -0.68120597628E+02 -0.13197541870E+02  0.10773557898E+03  0.80544949485E+02 0.  0.
         -6    2    1    2    0  501 -0.12354530483E+02  0.13936082490E+02 -0.23479486182E+03  0.29121698195E+03  0.17126545076E+03 0.  0.
        -24    2    5    5    0    0 -0.64912926863E+02  0.24587919713E+02 -0.20209270460E+03  0.22822993763E+03  0.80182225628E+02 0.  0.
          5    1    3    3  502    0  0.29815205101E+02  0.54184515137E+02 -0.39499792735E+02  0.73533881728E+02  0.47000000000E+01 0. -1.
        -13    1    4    4    0    0 -0.12483490005E+02 -0.31447762311E+02 -0.46798541342E+02  0.57748616856E+02  0.00000000000E+00 0.  1.
         14    1    4    4    0    0 -0.49771846132E+01 -0.36672835317E+02  0.33600999472E+02  0.49986962124E+02  0.00000000000E+00 0. -1.
         -5    1    5    5    0  501  0.52558396381E+02 -0.10651837223E+02 -0.32702157216E+02  0.62987044326E+02  0.47000000000E+01 0.  1.
         11    1    6    6    0    0  0.23181170352E+01 -0.15569684201E+02 -0.56015577838E+01  0.16708266886E+02  0.00000000000E+00 0. -1.
        -12    1    6    6    0    0 -0.67231043899E+02  0.40157603914E+02 -0.19649114682E+03  0.21152167074E+03  0.00000000000E+00 0.  1.
</event>
<event>
12    1  0.1348628E-002  0.1751776E+03  0.7818608E-02  0.1172553E+00
          1   -1    0    0  502    0  0.00000000000E+00  0.00000000000E+00  0.10960306873E+04  0.10960306873E+04  0.00000000000E+00 0. -1.
         -1   -1    0    0    0  501 -0.00000000000E+00 -0.00000000000E+00 -0.39151326193E+02  0.39151326193E+02  0.00000000000E+00 0.  1.
          6    2    1    2  502    0  0.36440876804E+01  0.33479781333E+02  0.22700494574E+03  0.28716274612E+03  0.17261813994E+03 0.  0.
         24    2    3    3    0    0  0.18936101670E+02  0.25906055921E+02  0.31959469393E+02  0.91315778180E+02  0.79293530510E+02 0.  0.
         -6    2    1    2    0  501 -0.36440876804E+01 -0.33479781333E+02  0.82987441535E+03  0.84801926736E+03  0.17120443167E+03 0.  0.
        -24    2    5    5    0    0  0.60680607805E+02 -0.17462516540E+02  0.54118603943E+03  0.55178070199E+03  0.87135171796E+02 0.  0.
          5    1    3    3  502    0 -0.15292013989E+02  0.75737254118E+01  0.19504547634E+03  0.19584696794E+03  0.47000000000E+01 0. -1.
        -11    1    4    4    0    0  0.42783299058E+02 -0.72674170595E+01  0.24339566013E+02  0.49755808733E+02  0.00000000000E+00 0.  1.
         12    1    4    4    0    0 -0.23847197388E+02  0.33173472981E+02  0.76199033801E+01  0.41559969447E+02  0.00000000000E+00 0. -1.
         -5    1    5    5    0  501 -0.64324695485E+02 -0.16017264793E+02  0.28868837593E+03  0.29623856538E+03  0.47000000000E+01 0.  1.
         11    1    6    6    0    0  0.62586248093E+02 -0.10754718812E+02  0.54109315177E+03  0.54480684772E+03  0.00000000000E+00 0. -1.
        -12    1    6    6    0    0 -0.19056402888E+01 -0.67077977274E+01  0.92887660090E-01  0.69738542700E+01  0.00000000000E+00 0.  1.
</event>
<event>
12    1  0.1348628E-002  0.3749977E+03  0.7818608E-02  0.1052798E+00
         -2   -1    0    0    0  501 -0.00000000000E+00  0.00000000000E+00  0.36764367761E+02  0.36764367761E+02  0.00000000000E+00 0.  1.
          2   -1    0    0  502    0  0.00000000000E+00 -0.00000000000E+00 -0.41241893917E+04  0.41241893917E+04  0.00000000000E+00 0. -1.
          6    2    1    2  502    0  0.21813915920E+02  0.33260972836E+03 -0.14837500780E+04  0.15304241877E+04  0.17198494679E+03 0.  0.
         24    2    3    3    0    0 -0.14292143171E+02  0.32794469610E+03 -0.13580584305E+04  0.13994818711E+04  0.80466252007E+02 0.  0.
         -6    2    1    2    0  501 -0.21813915920E+02 -0.33260972836E+03 -0.26036749459E+04  0.26305295718E+04  0.17163194813E+03 0.  0.
        -24    2    5    5    0    0  0.15837876060E+02 -0.31764831918E+03 -0.21249526173E+04  0.21500728525E+04  0.78983239672E+02 0.  0.
          5    1    3    3  502    0  0.36106059091E+02  0.46650322605E+01 -0.12569164750E+03  0.13094231662E+03  0.47000000000E+01 0. -1.
        -13    1    4    4    0    0 -0.36437310779E+02  0.11277826209E+03 -0.57568298521E+03  0.58775633852E+03  0.00000000000E+00 0.  1.
         14    1    4    4    0    0  0.22145167607E+02  0.21516643401E+03 -0.78237544532E+03  0.81172553256E+03  0.00000000000E+00 0. -1.
         -5    1    5    5    0  501 -0.37651791980E+02 -0.14961409177E+02 -0.47872232860E+03  0.48045671928E+03  0.47000000000E+01 0.  1.
         11    1    6    6    0    0  0.26289770318E+02 -0.19642956505E+03 -0.10771133132E+04  0.10951935060E+04  0.00000000000E+00 0. -1.
        -12    1    6    6    0    0 -0.10451894258E+02 -0.12121875413E+03 -0.10478393041E+04  0.10548793465E+04  0.00000000000E+00 0.  1.
</event>
<event>
12    1  0.1348628E-002  0.1871236E+03  0.7818608E-02  0.1161082E+00
         -1   -1    0    0    0  501 -0.00000000000E+00  0.00000000000E+00  0.32711525456E+02  0.32711525456E+02  0.00000000000E+00 0.  1.
          1   -1    0    0  502    0  0.00000000000E+00 -0.00000000000E+00 -0.12363546238E+04  0.12363546238E+04  0.00000000000E+00 0. -1.
          6    2    1    2  502    0 -0.63371833275E+02 -0.39278073073E+02 -0.83376904108E+03  0.85446917972E+03  0.17142931182E+03 0.  0.
         24    2    3    3    0    0  0.19379767065E+02 -0.59354320045E+02 -0.47694248336E+03  0.48759295353E+03  0.79838870330E+02 0.  0.
         -6    2    1    2    0  501  0.63371833275E+02  0.39278073073E+02 -0.36987405731E+03  0.41459696959E+03  0.17182861415E+03 0.  0.
        -24    2    5    5    0    0  0.10725832940E+03  0.13043588406E+02 -0.26916938272E+03  0.30155806383E+03  0.82526509974E+02 0.  0.
          5    1    3    3  502    0 -0.82751600341E+02  0.20076246972E+02 -0.35682655771E+03  0.36687622618E+03  0.47000000000E+01 0. -1.
        -13    1    4    4    0    0 -0.11219078046E+02 -0.67923747516E+02 -0.29778838306E+03  0.30564264145E+03  0.00000000000E+00 0.  1.
         14    1    4    4    0    0  0.30598845111E+02  0.85694274712E+01 -0.17915410030E+03  0.18195031208E+03  0.00000000000E+00 0. -1.
         -5    1    5    5    0  501 -0.43886496122E+02  0.26234484667E+02 -0.10070467460E+03  0.11303890575E+03  0.47000000000E+01 0.  1.
         11    1    6    6    0    0  0.54383762149E+02  0.43506000224E+02 -0.18436689663E+03  0.19708251626E+03  0.00000000000E+00 0. -1.
        -12    1    6    6    0    0  0.52874567249E+02 -0.30462411818E+02 -0.84802486087E+02  0.10447554758E+03  0.00000000000E+00 0.  1.
</event>
<event>
12    1  0.1348628E-002  0.1784476E+03  0.7818608E-02  0.1169314E+00
         -1   -1    0    0    0  501 -0.00000000000E+00  0.00000000000E+00  0.10409628459E+03  0.10409628459E+03  0.00000000000E+00 0. -1.
          1   -1    0    0  502    0  0.00000000000E+00 -0.00000000000E+00 -0.56375400494E+03  0.56375400494E+03  0.00000000000E+00 0.  1.
          6    2    1    2  502    0  0.42323105152E+02  0.24397242815E+02 -0.45620206902E+03  0.49014576292E+03  0.17244149860E+03 0.  0.
         24    2    3    3    0    0  0.45059181673E+02  0.23907155035E+02 -0.46789988240E+03  0.47723626492E+03  0.78881371026E+02 0.  0.
         -6    2    1    2    0  501 -0.42323105152E+02 -0.24397242815E+02 -0.34556513200E+01  0.17770452661E+03  0.17082296850E+03 0.  0.
        -24    2    5    5    0    0 -0.14469948321E+02  0.12838638939E+02  0.59440764002E+02  0.99344088279E+02  0.77212909521E+02 0.  0.
          5    1    3    3  502    0 -0.27360765208E+01  0.49008778014E+00  0.11697813374E+02  0.12909497996E+02  0.47000000000E+01 0. -1.
        -13    1    4    4    0    0 -0.75184595910E+01  0.36156940933E+01 -0.30027718410E+03  0.30039305546E+03  0.00000000000E+00 0.  1.
         14    1    4    4    0    0  0.52577641264E+02  0.20291460942E+02 -0.16762269830E+03  0.17684320946E+03  0.00000000000E+00 0. -1.
         -5    1    5    5    0  501 -0.27853156831E+02 -0.37235881754E+02 -0.62896415322E+02  0.78360438333E+02  0.47000000000E+01 0.  1.
         11    1    6    6    0    0  0.16440945731E+02  0.36888556222E+02  0.31899962878E+02  0.51465307813E+02  0.00000000000E+00 0. -1.
        -12    1    6    6    0    0 -0.30910894052E+02 -0.24049917283E+02  0.27540801124E+02  0.47878780466E+02  0.00000000000E+00 0.  1.
</event>
<event>
12    1  0.1348628E-002  0.1839730E+03  0.7818608E-02  0.1164012E+00
         -1   -1    0    0    0  501 -0.00000000000E+00  0.00000000000E+00  0.53893402707E+03  0.53893402707E+03  0.00000000000E+00 0. -1.
          1   -1    0    0  502    0  0.00000000000E+00 -0.00000000000E+00 -0.98355901471E+02  0.98355901471E+02  0.00000000000E+00 0.  1.
          6    2    1    2  502    0  0.79733845314E+01 -0.60745065619E+02  0.41059993384E+03  0.44926770753E+03  0.17174291688E+03 0.  0.
         24    2    3    3    0    0 -0.41532907163E+02 -0.73696882295E+02  0.20066494613E+03  0.23313485131E+03  0.83241969288E+02 0.  0.
         -6    2    1    2    0  501 -0.79733845314E+01  0.60745065619E+02  0.29978191757E+02  0.18802222101E+03  0.17521451354E+03 0.  0.
        -24    2    5    5    0    0 -0.72169983395E+02  0.47749039971E+02  0.24017222617E+02  0.12208495430E+03  0.82700857089E+02 0.  0.
          5    1    3    3  502    0  0.49506291695E+02  0.12951816676E+02  0.20993498771E+03  0.21613285622E+03  0.47000000000E+01 0. -1.
        -13    1    4    4    0    0 -0.71689866199E+01  0.63163749440E+01 -0.42706215187E+01  0.10465618460E+02  0.00000000000E+00 0.  1.
         14    1    4    4    0    0 -0.34363920543E+02 -0.80013257239E+02  0.20493556765E+03  0.22266923285E+03  0.00000000000E+00 0. -1.
         -5    1    5    5    0  501  0.64196598864E+02  0.12996025648E+02  0.59609691396E+01  0.65937266712E+02  0.47000000000E+01 0.  1.
         11    1    6    6    0    0 -0.21950671744E+02  0.58653317401E+02 -0.54218021713E+01  0.62860477018E+02  0.00000000000E+00 0. -1.
        -12    1    6    6    0    0 -0.50219311652E+02 -0.10904277430E+02  0.29439024789E+02  0.59224477284E+02  0.00000000000E+00 0.  1.
</event>
<event>
12    1  0.1348628E-002  0.1769026E+03  0.7818608E-02  0.1170835E+00
         -1   -1    0    0    0  501 -0.00000000000E+00  0.00000000000E+00  0.22689741060E+03  0.22689741060E+03  0.00000000000E+00 0.  1.
          1   -1    0    0  502    0  0.00000000000E+00 -0.00000000000E+00 -0.13851375592E+03  0.13851375592E+03  0.00000000000E+00 0. -1.
          6    2    1    2  502    0 -0.31966525727E+02  0.12574801628E+02  0.32002019591E+02  0.17836099284E+03  0.17207129368E+03 0.  0.
         24    2    3    3    0    0 -0.90601936748E+01 -0.31139973977E+02  0.73992651934E+02  0.11339188589E+03  0.79567720565E+02 0.  0.
         -6    2    1    2    0  501  0.31966525727E+02 -0.12574801628E+02  0.56381635093E+02  0.18705017368E+03  0.17501112620E+03 0.  0.
        -24    2    5    5    0    0  0.74836385983E+02 -0.51443954852E+02  0.42424656273E+02  0.12733817113E+03  0.78537845708E+02 0.  0.
          5    1    3    3  502    0 -0.22906332052E+02  0.43714775606E+02 -0.41990632344E+02  0.64969106958E+02  0.47000000000E+01 0. -1.
        -13    1    4    4    0    0 -0.41356260168E+02 -0.18248409893E+02  0.20605361901E+02  0.49678221162E+02  0.00000000000E+00 0.  1.
         14    1    4    4    0    0  0.32296066494E+02 -0.12891564085E+02  0.53387290033E+02  0.63713664725E+02  0.00000000000E+00 0. -1.
         -5    1    5    5    0  501 -0.42869860256E+02  0.38869153224E+02  0.13956978820E+02  0.59712002549E+02  0.47000000000E+01 0.  1.
         11    1    6    6    0    0  0.34403579176E+02  0.18531548493E+02  0.17014706738E+02  0.42620708524E+02  0.00000000000E+00 0. -1.
        -12    1    6    6    0    0  0.40432806806E+02 -0.69975503345E+02  0.25409949535E+02  0.84717462604E+02  0.00000000000E+00 0.  1.
</event>
<event>
12    1  0.1348628E-002  0.2685705E+03  0.7818608E-02  0.1102101E+00
         -1   -1    0    0    0  501 -0.00000000000E+00  0.00000000000E+00  0.14035242650E+03  0.14035242650E+03  0.00000000000E+00 0. -1.
          1   -1    0    0  502    0  0.00000000000E+00 -0.00000000000E+00 -0.51694478583E+03  0.51694478583E+03  0.00000000000E+00 0.  1.
          6    2    1    2  502    0  0.18680785599E+03  0.90222540803E+02 -0.16289286785E+03  0.31377220168E+03  0.16994595089E+03 0.  0.
         24    2    3    3    0    0  0.16891727624E+03  0.12002345943E+03 -0.16674293224E+03  0.27848650216E+03  0.82539986737E+02 0.  0.
         -6    2    1    2    0  501 -0.18680785599E+03 -0.90222540803E+02 -0.21369949148E+03  0.34352501065E+03  0.17118609276E+03 0.  0.
        -24    2    5    5    0    0 -0.56717776614E+02 -0.29633370844E+02 -0.26818752575E+02  0.10785367841E+03  0.82571954102E+02 0.  0.
          5    1    3    3  502    0  0.17890579750E+02 -0.29800918630E+02  0.38500643841E+01  0.35285699522E+02  0.47000000000E+01 0. -1.
        -11    1    4    4    0    0  0.53241138036E+02  0.73251317856E+02 -0.35136514854E+02  0.97133665756E+02  0.00000000000E+00 0.  1.
         12    1    4    4    0    0  0.11567613820E+03  0.46772141577E+02 -0.13160641738E+03  0.18135283641E+03  0.00000000000E+00 0. -1.
         -5    1    5    5    0  501 -0.13009007937E+03 -0.60589169959E+02 -0.18688073890E+03  0.23567133224E+03  0.47000000000E+01 0.  1.
         13    1    6    6    0    0 -0.11546433415E+02  0.26811874691E+02  0.36129575817E+01  0.29415135756E+02  0.00000000000E+00 0. -1.
        -14    1    6    6    0    0 -0.45171343199E+02 -0.56445245535E+02 -0.30431710157E+02  0.78438542649E+02  0.00000000000E+00 0.  1.
</event>
<event>
12    1  0.1348628E-002  0.2208500E+03  0.7818608E-02  0.1133251E+00
         -2   -1    0    0    0  501 -0.00000000000E+00  0.00000000000E+00  0.21204531522E+03  0.21204531522E+03  0.00000000000E+00 0.  1.
          2   -1    0    0  502    0  0.00000000000E+00 -0.00000000000E+00 -0.23014207833E+03  0.23014207833E+03  0.00000000000E+00 0. -1.
          6    2    1    2  502    0 -0.14060511682E+03 -0.10820463730E+02 -0.40374621456E+01  0.21979712728E+03  0.16854552723E+03 0.  0.
         24    2    3    3    0    0 -0.11287018956E+03  0.52386155789E+02  0.12268221945E+02  0.14871781753E+03  0.80513917875E+02 0.  0.
         -6    2    1    2    0  501  0.14060511682E+03  0.10820463730E+02 -0.14059300957E+02  0.22239026627E+03  0.17138519562E+03 0.  0.
        -24    2    5    5    0    0  0.13946724860E+03 -0.35379859916E+02 -0.36458322050E+02  0.17081923957E+03  0.84540850716E+02 0.  0.
          5    1    3    3  502    0 -0.27734927260E+02 -0.63206619519E+02 -0.16305684090E+02  0.71079309752E+02  0.47000000000E+01 0. -1.
        -11    1    4    4    0    0 -0.67116856951E+02 -0.11678546674E+02  0.15725535906E+02  0.69916760644E+02  0.00000000000E+00 0.  1.
         12    1    4    4    0    0 -0.45753332608E+02  0.64064702464E+02 -0.34573139615E+01  0.78801056886E+02  0.00000000000E+00 0. -1.
         -5    1    5    5    0  501  0.11378682173E+01  0.46200323645E+02  0.22399021093E+02  0.51571026700E+02  0.47000000000E+01 0.  1.
         11    1    6    6    0    0  0.48779849156E+01 -0.25013307898E+02  0.10965064355E+02  0.27743340555E+02  0.00000000000E+00 0. -1.
        -12    1    6    6    0    0  0.13458926369E+03 -0.10366552018E+02 -0.47423386405E+02  0.14307589901E+03  0.00000000000E+00 0.  1.
</event>
<event>
12    1  0.1348628E-002  0.2412943E+03  0.7818608E-02  0.1118934E+00
         -1   -1    0    0    0  501 -0.00000000000E+00  0.00000000000E+00  0.18329403376E+03  0.18329403376E+03  0.00000000000E+00 0.  1.
          1   -1    0    0  502    0  0.00000000000E+00 -0.00000000000E+00 -0.31766339890E+03  0.31766339890E+03  0.00000000000E+00 0. -1.
          6    2    1    2  502    0 -0.63820980982E+02 -0.15656543951E+03 -0.68912036233E+02  0.25086345217E+03  0.17203996174E+03 0.  0.
         24    2    3    3    0    0  0.20950289970E+02 -0.12450489058E+03 -0.36358998575E+02  0.15444852886E+03  0.81191063929E+02 0.  0.
         -6    2    1    2    0  501  0.63820980982E+02  0.15656543951E+03 -0.65457328909E+02  0.25009398048E+03  0.17226863528E+03 0.  0.
        -24    2    5    5    0    0  0.97540110904E+02  0.15976137028E+03 -0.42109790840E+02  0.20868877272E+03  0.82097507297E+02 0.  0.
          5    1    3    3  502    0 -0.84771270952E+02 -0.32060548934E+02 -0.32553037658E+02  0.96414923314E+02  0.47000000000E+01 0. -1.
        -13    1    4    4    0    0  0.10926722108E+02 -0.28355317295E+02  0.25509152413E+02  0.39675359252E+02  0.00000000000E+00 0.  1.
         14    1    4    4    0    0  0.10023567863E+02 -0.96149573283E+02 -0.61868150988E+02  0.11477316961E+03  0.00000000000E+00 0. -1.
         -5    1    5    5    0  501 -0.33719129922E+02 -0.31959307660E+01 -0.23347538069E+02  0.41405207764E+02  0.47000000000E+01 0.  1.
         13    1    6    6    0    0  0.24492829847E+02  0.11293997341E+03 -0.38642035118E+02  0.12185459854E+03  0.00000000000E+00 0. -1.
        -14    1    6    6    0    0  0.73047281056E+02  0.46821396867E+02 -0.34677557224E+01  0.86834174171E+02  0.00000000000E+00 0.  1.
</event>
<event>
12    1  0.1348628E-002  0.2468752E+03  0.7818608E-02  0.1115296E+00
         -2   -1    0    0    0  501 -0.00000000000E+00  0.00000000000E+00  0.70137803950E+02  0.70137803950E+02  0.00000000000E+00 0. -1.
          2   -1    0    0  502    0  0.00000000000E+00 -0.00000000000E+00 -0.88724923449E+03  0.88724923449E+03  0.00000000000E+00 0.  1.
          6    2    1    2  502    0 -0.11361285752E+03  0.13615160937E+03 -0.47699521676E+03  0.53701725385E+03  0.17151662309E+03 0.  0.
         24    2    3    3    0    0 -0.11294458718E+03  0.12585621591E+03 -0.48712853504E+03  0.52181147037E+03  0.79979585539E+02 0.  0.
         -6    2    1    2    0  501  0.11361285752E+03 -0.13615160937E+03 -0.34011621378E+03  0.42036978459E+03  0.17200748469E+03 0.  0.
        -24    2    5    5    0    0  0.12586709789E+02 -0.56014847433E+02 -0.23324158770E+03  0.25282140698E+03  0.78872918033E+02 0.  0.
          5    1    3    3  502    0 -0.66827034195E+00  0.10295393462E+02  0.10133318284E+02  0.15205783480E+02  0.47000000000E+01 0. -1.
        -11    1    4    4    0    0 -0.74576787042E+02  0.83438696121E+02 -0.20129363344E+03  0.23031031249E+03  0.00000000000E+00 0.  1.
         12    1    4    4    0    0 -0.38367800135E+02  0.42417519788E+02 -0.28583490160E+03  0.29150115788E+03  0.00000000000E+00 0. -1.
         -5    1    5    5    0  501  0.10102614773E+03 -0.80136761938E+02 -0.10687462609E+03  0.16754837761E+03  0.47000000000E+01 0.  1.
         13    1    6    6    0    0  0.20339739692E+02  0.14115192051E+02 -0.86909716224E+02  0.90367264159E+02  0.00000000000E+00 0. -1.
        -14    1    6    6    0    0 -0.77530299028E+01 -0.70130039484E+02 -0.14633187147E+03  0.16245414282E+03  0.00000000000E+00 0.  1.
</event>
<event>
12    1  0.1348628E-002  0.1971769E+03  0.7818608E-02  0.1152143E+00
         -2   -1    0    0    0  501 -0.00000000000E+00  0.00000000000E+00  0.17041299808E+02  0.17041299808E+02  0.00000000000E+00 0.  1.
          2   -1    0    0  502    0  0.00000000000E+00 -0.00000000000E+00 -0.23923076746E+04  0.23923076746E+04  0.00000000000E+00 0. -1.
          6    2    1    2  502    0  0.81761653348E+02 -0.50603298345E+02 -0.92619115793E+03  0.94687049167E+03  0.17172071864E+03 0.  0.
         24    2    3    3    0    0 -0.22221253196E+01  0.31348178274E+02 -0.41594608516E+03  0.42328530864E+03  0.71914258896E+02 0.  0.
         -6    2    1    2    0  501 -0.81761653348E+02  0.50603298345E+02 -0.14490752168E+04  0.14624784827E+04  0.17256496336E+03 0.  0.
        -24    2    5    5    0    0 -0.12138678038E+03  0.18425070694E+02 -0.10680294995E+04  0.10780002418E+04  0.79519028247E+02 0.  0.
          5    1    3    3  502    0  0.83983778667E+02 -0.81951476619E+02 -0.51024507277E+03  0.52358518303E+03  0.47000000000E+01 0. -1.
        -13    1    4    4    0    0  0.32203539858E+02  0.18413688691E+02 -0.13730863525E+03  0.14223147761E+03  0.00000000000E+00 0.  1.
         14    1    4    4    0    0 -0.34425665177E+02  0.12934489583E+02 -0.27863744991E+03  0.28105383103E+03  0.00000000000E+00 0. -1.
         -5    1    5    5    0  501  0.39625127033E+02  0.32178227651E+02 -0.38104571733E+03  0.38447824089E+03  0.47000000000E+01 0.  1.
         13    1    6    6    0    0 -0.66666129911E+02  0.43405235454E+02 -0.44327969891E+03  0.45036127588E+03  0.00000000000E+00 0. -1.
        -14    1    6    6    0    0 -0.54720650470E+02 -0.24980164760E+02 -0.62474980059E+03  0.62763896593E+03  0.00000000000E+00 0.  1.
</event>
<event>
12    1  0.1348628E-002  0.2313687E+03  0.7818608E-02  0.1125680E+00
         -2   -1    0    0    0  501 -0.00000000000E+00  0.00000000000E+00  0.32072944595E+02  0.32072944595E+02  0.00000000000E+00 0. -1.
          2   -1    0    0  502    0  0.00000000000E+00 -0.00000000000E+00 -0.20810529068E+04  0.20810529068E+04  0.00000000000E+00 0.  1.
          6    2    1    2  502    0 -0.11642214674E+03  0.10278245953E+03 -0.14969688841E+04  0.15148457880E+04  0.17240525267E+03 0.  0.
         24    2    3    3    0    0 -0.87430917412E+02  0.41672100035E+02 -0.57490308145E+03  0.59029054256E+03  0.92458868319E+02 0.  0.
         -6    2    1    2    0  501  0.11642214674E+03 -0.10278245953E+03 -0.55201107808E+03  0.59828006339E+03  0.17060027460E+03 0.  0.
        -24    2    5    5    0    0  0.14882369057E+03 -0.83120158381E+02 -0.50486226244E+03  0.53760414605E+03  0.71238067156E+02 0.  0.
          5    1    3    3  502    0 -0.28991229324E+02  0.61110359493E+02 -0.92206580266E+03  0.92455524543E+03  0.47000000000E+01 0. -1.
        -13    1    4    4    0    0  0.94233061537E+01  0.68782567887E+01 -0.23159891435E+03  0.23189257479E+03  0.00000000000E+00 0.  1.
         14    1    4    4    0    0 -0.96854223566E+02  0.34793843246E+02 -0.34330416710E+03  0.35839796777E+03  0.00000000000E+00 0. -1.
         -5    1    5    5    0  501 -0.32401543832E+02 -0.19662301147E+02 -0.47148815642E+02  0.60675917344E+02  0.47000000000E+01 0.  1.
         11    1    6    6    0    0  0.52429082267E+02 -0.76781046656E+01 -0.84123665156E+02  0.99421089302E+02  0.00000000000E+00 0. -1.
        -12    1    6    6    0    0  0.96394608302E+02 -0.75442053716E+02 -0.42073859728E+03  0.43818305675E+03  0.00000000000E+00 0.  1.
</event>
<event>
12    1  0.1348628E-002  0.3342951E+03  0.7818608E-02  0.1069252E+00
         -2   -1    0    0    0  501 -0.00000000000E+00  0.00000000000E+00  0.35771446518E+02  0.35771446518E+02  0.00000000000E+00 0.  1.
          2   -1    0    0  502    0  0.00000000000E+00 -0.00000000000E+00 -0.33663034475E+04  0.33663034475E+04  0.00000000000E+00 0. -1.
          6    2    1    2  502    0 -0.28619321785E+03 -0.31611831407E+02 -0.12107373475E+04  0.12561416915E+04  0.17059061689E+03 0.  0.
         24    2    3    3    0    0 -0.29745010556E+03 -0.84550667749E+01 -0.10899819044E+04  0.11325823118E+04  0.78320416169E+02 0.  0.
         -6    2    1    2    0  501  0.28619321785E+03  0.31611831407E+02 -0.21197946535E+04  0.21459332026E+04  0.16909781507E+03 0.  0.
        -24    2    5    5    0    0  0.14875759376E+03  0.74263685373E+02 -0.14077834675E+04  0.14195106325E+04  0.74244377292E+02 0.  0.
          5    1    3    3  502    0  0.11256887708E+02 -0.23156764632E+02 -0.12075544310E+03  0.12355937968E+03  0.47000000000E+01 0. -1.
        -11    1    4    4    0    0 -0.11507112733E+03 -0.20794762284E+02 -0.30625095077E+03  0.32781615477E+03  0.00000000000E+00 0.  1.
         12    1    4    4    0    0 -0.18237897823E+03  0.12339695510E+02 -0.78373095362E+03  0.80476615700E+03  0.00000000000E+00 0. -1.
         -5    1    5    5    0  501  0.13743562409E+03 -0.42651853965E+02 -0.71201118596E+03  0.72642257010E+03  0.47000000000E+01 0.  1.
         13    1    6    6    0    0  0.12644660776E+03  0.26256250009E+02 -0.99330103962E+03  0.10016611656E+04  0.00000000000E+00 0. -1.
        -14    1    6    6    0    0  0.22310986004E+02  0.48007435364E+02 -0.41448242790E+03  0.41784946689E+03  0.00000000000E+00 0.  1.
</event>
<event>
12    1  0.1348628E-002  0.2096571E+03  0.7818608E-02  0.1141838E+00
         -1   -1    0    0    0  501 -0.00000000000E+00  0.00000000000E+00  0.20152137849E+03  0.20152137849E+03  0.00000000000E+00 0. -1.
          1   -1    0    0  502    0  0.00000000000E+00 -0.00000000000E+00 -0.23073325361E+03  0.23073325361E+03  0.00000000000E+00 0.  1.
          6    2    1    2  502    0  0.11634154743E+03 -0.22808292237E+02 -0.65113996958E+02  0.21923934414E+03  0.17254125178E+03 0.  0.
         24    2    3    3    0    0  0.11585156898E+03 -0.20793310537E+02 -0.10614216390E+03  0.17789081680E+03  0.80777694605E+02 0.  0.
         -6    2    1    2    0  501 -0.11634154743E+03  0.22808292237E+02  0.35902121846E+02  0.21301528796E+03  0.17329447971E+03 0.  0.
        -24    2    5    5    0    0 -0.15071426310E+03  0.14037396068E+02  0.39553951919E+02  0.17704532737E+03  0.82877591908E+02 0.  0.
          5    1    3    3  502    0  0.48997844417E+00 -0.20149816994E+01  0.41028166943E+02  0.41348527336E+02  0.47000000000E+01 0. -1.
        -13    1    4    4    0    0  0.65285957133E+02  0.49978551083E+01 -0.10169865409E+03  0.12095392097E+03  0.00000000000E+00 0.  1.
         14    1    4    4    0    0  0.50565611851E+02 -0.25791165646E+02 -0.44435098081E+01  0.56936895829E+02  0.00000000000E+00 0. -1.
         -5    1    5    5    0  501  0.34372715671E+02  0.87708961685E+01 -0.36518300728E+01  0.35969960593E+02  0.47000000000E+01 0.  1.
         11    1    6    6    0    0 -0.57338749963E+02  0.69188716465E+01  0.57720255835E+02  0.81653113632E+02  0.00000000000E+00 0. -1.
        -12    1    6    6    0    0 -0.93375513136E+02  0.71185244217E+01 -0.18166303916E+02  0.95392213735E+02  0.00000000000E+00 0.  1.
</event>
<event>
12    1  0.1348628E-002  0.3163416E+03  0.7818608E-02  0.1077345E+00
          1   -1    0    0  502    0  0.00000000000E+00  0.00000000000E+00  0.60017844517E+03  0.60017844517E+03  0.00000000000E+00 0. -1.
         -1   -1    0    0    0  501 -0.00000000000E+00 -0.00000000000E+00 -0.16920415034E+03  0.16920415034E+03  0.00000000000E+00 0.  1.
          6    2    1    2  502    0 -0.15225661115E+03  0.21785433220E+03  0.16926524201E+03  0.35907894530E+03  0.17217543701E+03 0.  0.
         24    2    3    3    0    0 -0.65929462881E+02  0.19911356168E+03  0.98184786970E+02  0.24559716660E+03  0.81760695503E+02 0.  0.
         -6    2    1    2    0  501  0.15225661115E+03 -0.21785433220E+03  0.26170905282E+03  0.41030365021E+03  0.17092358337E+03 0.  0.
        -24    2    5    5    0    0  0.60915073017E+02 -0.32696877556E+02  0.11725110627E+03  0.15827835799E+03  0.80774282809E+02 0.  0.
          5    1    3    3  502    0 -0.86327148269E+02  0.18740770516E+02  0.71080455037E+02  0.11348177870E+03  0.47000000000E+01 0. -1.
        -13    1    4    4    0    0 -0.17235134817E+02  0.15291601635E+02 -0.11834172788E+02  0.25902328048E+02  0.00000000000E+00 0.  1.
         14    1    4    4    0    0 -0.48694328065E+02  0.18382196005E+03  0.11001895976E+03  0.21969483855E+03  0.00000000000E+00 0. -1.
         -5    1    5    5    0  501  0.91341538133E+02 -0.18515745464E+03  0.14445794655E+03  0.25202529222E+03  0.47000000000E+01 0.  1.
         13    1    6    6    0    0  0.21650849789E+02 -0.46035607109E+02  0.10220305758E+03  0.11416436133E+03  0.00000000000E+00 0. -1.
        -14    1    6    6    0    0  0.39264223228E+02  0.13338729552E+02  0.15048048683E+02  0.44113996656E+02  0.00000000000E+00 0.  1.
</event>
<event>
12    1  0.1348628E-002  0.1803365E+03  0.7818608E-02  0.1167478E+00
         -2   -1    0    0    0  501 -0.00000000000E+00  0.00000000000E+00  0.77284675686E+02  0.77284675686E+02  0.00000000000E+00 0.  1.
          2   -1    0    0  502    0  0.00000000000E+00 -0.00000000000E+00 -0.47030180284E+03  0.47030180284E+03  0.00000000000E+00 0. -1.
          6    2    1    2  502    0  0.25738286341E+02  0.48552501139E+02 -0.28450809915E+03  0.33639883997E+03  0.17087865959E+03 0.  0.
         24    2    3    3    0    0  0.72803162973E+01  0.77418042753E+02 -0.10579335303E+03  0.15436871436E+03  0.81184420171E+02 0.  0.
         -6    2    1    2    0  501 -0.25738286341E+02 -0.48552501139E+02 -0.10850902801E+03  0.21118763856E+03  0.17264473571E+03 0.  0.
        -24    2    5    5    0    0 -0.41753765131E+02 -0.34002117163E+02  0.55777824959E+01  0.94971892782E+02  0.78032223387E+02 0.  0.
          5    1    3    3  502    0  0.18457970044E+02 -0.28865541615E+02 -0.17871474612E+03  0.18203012561E+03  0.47000000000E+01 0. -1.
        -11    1    4    4    0    0  0.71998106372E+00  0.60513499196E+02 -0.15771964779E+02  0.62539242326E+02  0.00000000000E+00 0.  1.
         12    1    4    4    0    0  0.65603352336E+01  0.16904543557E+02 -0.90021388253E+02  0.91829472035E+02  0.00000000000E+00 0. -1.
         -5    1    5    5    0  501  0.16015478791E+02 -0.14550383975E+02 -0.11408681051E+03  0.11621574578E+03  0.47000000000E+01 0.  1.
         11    1    6    6    0    0 -0.34130817190E+02 -0.70641068735E+01  0.38381792254E+02  0.51845696683E+02  0.00000000000E+00 0. -1.
        -12    1    6    6    0    0 -0.76229479418E+01 -0.26938010290E+02 -0.32804009758E+02  0.43126196098E+02  0.00000000000E+00 0.  1.
</event>
<event>
12    1  0.1348628E-002  0.2634750E+03  0.7818608E-02  0.1105073E+00
          1   -1    0    0  502    0  0.00000000000E+00  0.00000000000E+00  0.14941406434E+04  0.14941406434E+04  0.00000000000E+00 0. -1.
         -1   -1    0    0    0  501 -0.00000000000E+00 -0.00000000000E+00 -0.47070314054E+02  0.47070314054E+02  0.00000000000E+00 0.  1.
          6    2    1    2  502    0 -0.10777634281E+03  0.15898524896E+03  0.65183526043E+03  0.70512264709E+03  0.18819322846E+03 0.  0.
         24    2    3    3    0    0  0.75769523979E+01  0.24907532967E+02  0.13303122653E+03  0.15697765510E+03  0.79163637895E+02 0.  0.
         -6    2    1    2    0  501  0.10777634281E+03 -0.15898524896E+03  0.79523506896E+03  0.83608831041E+03  0.17248999520E+03 0.  0.
        -24    2    5    5    0    0  0.12805228008E+01 -0.11134513872E+03  0.50904962655E+03  0.52700072213E+03  0.78732834166E+02 0.  0.
          5    1    3    3  502    0 -0.11535329521E+03  0.13407771600E+03  0.51880403391E+03  0.54814499199E+03  0.47000000000E+01 0. -1.
        -13    1    4    4    0    0  0.20584684880E+02 -0.14206938905E+02  0.10295882656E+03  0.10595322709E+03  0.00000000000E+00 0.  1.
         14    1    4    4    0    0 -0.13007732482E+02  0.39114471872E+02  0.30072399964E+02  0.51024428010E+02  0.00000000000E+00 0. -1.
         -5    1    5    5    0  501  0.10649582001E+03 -0.47640110247E+02  0.28618544241E+03  0.30908758828E+03  0.47000000000E+01 0.  1.
         13    1    6    6    0    0  0.37893252026E+01 -0.74884451897E+02  0.45868564701E+03  0.46477366846E+03  0.00000000000E+00 0. -1.
        -14    1    6    6    0    0 -0.25088024018E+01 -0.36460686820E+02  0.50363979547E+02  0.62227053672E+02  0.00000000000E+00 0.  1.
</event>
<event>
12    1  0.1348628E-002  0.3775894E+03  0.7818608E-02  0.1051828E+00
         -3   -1    0    0    0  501 -0.00000000000E+00  0.00000000000E+00  0.29447690473E+03  0.29447690473E+03  0.00000000000E+00 0.  1.
          3   -1    0    0  502    0  0.00000000000E+00 -0.00000000000E+00 -0.58451924056E+03  0.58451924056E+03  0.00000000000E+00 0. -1.
          6    2    1    2  502    0  0.15719403668E+03  0.29665932178E+03  0.36917046605E+02  0.37992906414E+03  0.17397271937E+03 0.  0.
         24    2    3    3    0    0  0.69228997977E+02  0.66148499295E+02 -0.17371084573E+02  0.12725857021E+03  0.82004335212E+02 0.  0.
         -6    2    1    2    0  501 -0.15719403668E+03 -0.29665932178E+03 -0.32695938243E+03  0.49906708115E+03  0.17160651316E+03 0.  0.
        -24    2    5    5    0    0 -0.15922977290E+03 -0.26305600053E+03 -0.21880893637E+03  0.38570069987E+03  0.79593336731E+02 0.  0.
          5    1    3    3  502    0  0.87965038708E+02  0.23051082248E+03  0.54288131178E+02  0.25267049393E+03  0.47000000000E+01 0. -1.
        -13    1    4    4    0    0  0.16652935309E+02  0.71236626354E+02 -0.12438102925E+02  0.74207031965E+02  0.00000000000E+00 0.  1.
         14    1    4    4    0    0  0.52576062668E+02 -0.50881270584E+01 -0.49329816484E+01  0.53051538248E+02  0.00000000000E+00 0. -1.
         -5    1    5    5    0  501  0.20357362168E+01 -0.33603321245E+02 -0.10815044606E+03  0.11336638128E+03  0.47000000000E+01 0.  1.
         11    1    6    6    0    0 -0.78309759523E+02 -0.12445017139E+03 -0.56732685695E+02  0.15760349369E+03  0.00000000000E+00 0. -1.
        -12    1    6    6    0    0 -0.80920013379E+02 -0.13860582914E+03 -0.16207625067E+03  0.22809720618E+03  0.00000000000E+00 0.  1.
</event>
<event>
12    1  0.1348628E-002  0.2550793E+03  0.7818608E-02  0.1110136E+00
          3   -1    0    0  502    0  0.00000000000E+00  0.00000000000E+00  0.26930076285E+03  0.26930076285E+03  0.00000000000E+00 0. -1.
         -3   -1    0    0    0  501 -0.00000000000E+00 -0.00000000000E+00 -0.24676724834E+03  0.24676724834E+03  0.00000000000E+00 0.  1.
          6    2    1    2  502    0  0.18608541771E+03  0.38576713363E+02 -0.26058042599E+02  0.25378035153E+03  0.16616106565E+03 0.  0.
         24    2    3    3    0    0  0.19545805395E+03 -0.73651542918E+00 -0.15805999030E+02  0.21182119680E+03  0.80087430354E+02 0.  0.
         -6    2    1    2    0  501 -0.18608541771E+03 -0.38576713363E+02  0.48591557100E+02  0.26228765966E+03  0.17411987679E+03 0.  0.
        -24    2    5    5    0    0 -0.17075445729E+03 -0.61279724626E+02  0.86457229394E+02  0.21531570839E+03  0.77289795135E+02 0.  0.
          5    1    3    3  502    0 -0.93726362364E+01  0.39313228792E+02 -0.10252043569E+02  0.41959154727E+02  0.47000000000E+01 0. -1.
        -13    1    4    4    0    0  0.91661138641E+02 -0.40272377073E+02 -0.54080324223E+01  0.10026402898E+03  0.00000000000E+00 0.  1.
         14    1    4    4    0    0  0.10379691530E+03  0.39535861644E+02 -0.10397966607E+02  0.11155716782E+03  0.00000000000E+00 0. -1.
         -5    1    5    5    0  501 -0.15330960418E+02  0.22703011263E+02 -0.37865672294E+02  0.46971951269E+02  0.47000000000E+01 0.  1.
         11    1    6    6    0    0 -0.14931062021E+03 -0.20161814063E+02  0.62440560510E+02  0.16309194846E+03  0.00000000000E+00 0. -1.
        -12    1    6    6    0    0 -0.21443837077E+02 -0.41117910563E+02  0.24016668885E+02  0.52223759937E+02  0.00000000000E+00 0.  1.
</event>
<event>
12    1  0.1348628E-002  0.1816782E+03  0.7818608E-02  0.1166189E+00
          2   -1    0    0  502    0  0.00000000000E+00  0.00000000000E+00  0.38328206191E+03  0.38328206191E+03  0.00000000000E+00 0.  1.
         -2   -1    0    0    0  501 -0.00000000000E+00 -0.00000000000E+00 -0.94934955515E+02  0.94934955515E+02  0.00000000000E+00 0. -1.
          6    2    1    2  502    0 -0.42752895273E+02  0.39537938096E+02  0.71185526311E+02  0.19497896667E+03  0.17192544804E+03 0.  0.
         24    2    3    3    0    0 -0.79586296163E+02  0.36009428460E+02  0.94485813791E+02  0.15100007175E+03  0.79011361119E+02 0.  0.
         -6    2    1    2    0  501  0.42752895273E+02 -0.39537938096E+02  0.21716158008E+03  0.28323805076E+03  0.17226021865E+03 0.  0.
        -24    2    5    5    0    0  0.53464568154E+02 -0.78698166273E+02  0.99969808809E+02  0.15912413268E+03  0.79212786247E+02 0.  0.
          5    1    3    3  502    0  0.36833400890E+02  0.35285096358E+01 -0.23300287480E+02  0.43978894916E+02  0.47000000000E+01 0. -1.
        -13    1    4    4    0    0 -0.32922445289E+02  0.30182842303E+02  0.93887603801E+02  0.10397006069E+03  0.00000000000E+00 0.  1.
         14    1    4    4    0    0 -0.46663850875E+02  0.58265861569E+01  0.59820998918E+00  0.47030011056E+02  0.00000000000E+00 0. -1.
         -5    1    5    5    0  501 -0.10711672880E+02  0.39160228177E+02  0.11719177127E+03  0.12411391808E+03  0.47000000000E+01 0.  1.
         13    1    6    6    0    0  0.92105008542E+01 -0.38366423519E+02  0.90206001244E+02  0.98457800301E+02  0.00000000000E+00 0. -1.
        -14    1    6    6    0    0  0.44254067300E+02 -0.40331742754E+02  0.97638075655E+01  0.60666332379E+02  0.00000000000E+00 0.  1.
</event>
<event>
12    1  0.1348628E-002  0.2195577E+03  0.7818608E-02  0.1134213E+00
         -2   -1    0    0    0  501 -0.00000000000E+00  0.00000000000E+00  0.61576037647E+02  0.61576037647E+02  0.00000000000E+00 0. -1.
          2   -1    0    0  502    0  0.00000000000E+00 -0.00000000000E+00 -0.80170140351E+03  0.80170140351E+03  0.00000000000E+00 0.  1.
          6    2    1    2  502    0  0.25005856193E+02  0.13385814155E+03 -0.30470414179E+03  0.37585148246E+03  0.17284799084E+03 0.  0.
         24    2    3    3    0    0 -0.40693699169E+02  0.34456451612E+02 -0.17544987582E+03  0.19999391848E+03  0.79822830655E+02 0.  0.
         -6    2    1    2    0  501 -0.25005856193E+02 -0.13385814155E+03 -0.43542122407E+03  0.48742595869E+03  0.17160748217E+03 0.  0.
        -24    2    5    5    0    0  0.36383975732E+02 -0.13011181697E+03 -0.31721150290E+03  0.35409038734E+03  0.80647295213E+02 0.  0.
          5    1    3    3  502    0  0.65699555362E+02  0.99401689936E+02 -0.12925426597E+03  0.17585756398E+03  0.47000000000E+01 0. -1.
        -11    1    4    4    0    0 -0.40943302401E+02  0.53887221900E+02 -0.91408742909E+02  0.11373541654E+03  0.00000000000E+00 0.  1.
         12    1    4    4    0    0  0.24960323214E+00 -0.19430770288E+02 -0.84041132908E+02  0.86258501936E+02  0.00000000000E+00 0. -1.
         -5    1    5    5    0  501 -0.61389831925E+02 -0.37463245832E+01 -0.11820972117E+03  0.13333557136E+03  0.47000000000E+01 0.  1.
         13    1    6    6    0    0 -0.17019102291E+02 -0.16870716174E+02 -0.18735094361E+02  0.30418327826E+02  0.00000000000E+00 0. -1.
        -14    1    6    6    0    0  0.53403078023E+02 -0.11324110079E+03 -0.29847640854E+03  0.32367205951E+03  0.00000000000E+00 0.  1.
</event>
<event>
12    1  0.1348628E-002  0.1781857E+03  0.7818608E-02  0.1169571E+00
          1   -1    0    0  502    0  0.00000000000E+00  0.00000000000E+00  0.12858628798E+04  0.12858628798E+04  0.00000000000E+00 0. -1.
         -1   -1    0    0    0  501 -0.00000000000E+00 -0.00000000000E+00 -0.31831674541E+02  0.31831674541E+02  0.00000000000E+00 0.  1.
          6    2    1    2  502    0 -0.29919598346E+02 -0.38014686492E+02  0.93795073540E+03  0.95465115979E+03  0.17107587816E+03 0.  0.
         24    2    3    3    0    0 -0.66427736372E+02 -0.22200573694E+02  0.36334741855E+03  0.37865290281E+03  0.80319142221E+02 0.  0.
         -6    2    1    2    0  501  0.29919598346E+02  0.38014686492E+02  0.31608046989E+03  0.36304339458E+03  0.17191086106E+03 0.  0.
        -24    2    5    5    0    0  0.24715300795E+02 -0.26235890339E+02  0.78821517466E+02  0.11713869385E+03  0.78800215400E+02 0.  0.
          5    1    3    3  502    0  0.36508138026E+02 -0.15814112798E+02  0.57460331685E+03  0.57599825698E+03  0.47000000000E+01 0. -1.
        -13    1    4    4    0    0 -0.12402633758E+02 -0.30307394790E+02  0.45010455847E+02  0.55662416752E+02  0.00000000000E+00 0.  1.
         14    1    4    4    0    0 -0.54025102613E+02  0.81068210954E+01  0.31833696270E+03  0.32299048606E+03  0.00000000000E+00 0. -1.
         -5    1    5    5    0  501  0.52042975514E+01  0.64250576831E+02  0.23725895242E+03  0.24590470073E+03  0.47000000000E+01 0.  1.
         13    1    6    6    0    0  0.11641485981E+02 -0.21965699242E+02  0.93662025337E+02  0.96905062454E+02  0.00000000000E+00 0. -1.
        -14    1    6    6    0    0  0.13073814814E+02 -0.42701910976E+01 -0.14840507871E+02  0.20233631401E+02  0.00000000000E+00 0.  1.
</event>
<event>
12    1  0.1348628E-002  0.2665142E+03  0.7818608E-02  0.1103291E+00
         -2   -1    0    0    0  501 -0.00000000000E+00  0.00000000000E+00  0.28318795584E+03  0.28318795584E+03  0.00000000000E+00 0. -1.
          2   -1    0    0  502    0  0.00000000000E+00 -0.00000000000E+00 -0.28881170872E+03  0.28881170872E+03  0.00000000000E+00 0.  1.
          6    2    1    2  502    0  0.20159966395E+03 -0.37818652278E+02  0.10090692756E+03  0.28283424260E+03  0.16655427283E+03 0.  0.
         24    2    3    3    0    0  0.12664733758E+03  0.35992871747E+02  0.50335084521E+02  0.16601988726E+03  0.87715148628E+02 0.  0.
         -6    2    1    2    0  501 -0.20159966395E+03  0.37818652278E+02 -0.10653068044E+03  0.28916542196E+03  0.17376760463E+03 0.  0.
        -24    2    5    5    0    0 -0.84514619452E+02  0.73101555872E+02 -0.19017472449E+02  0.13871794773E+03  0.79965282416E+02 0.  0.
          5    1    3    3  502    0  0.74952326370E+02 -0.73811524026E+02  0.50571843038E+02  0.11681435535E+03  0.47000000000E+01 0. -1.
        -13    1    4    4    0    0 -0.98026376352E+01  0.70461362700E+01 -0.83628676709E+01  0.14685955761E+02  0.00000000000E+00 0.  1.
         14    1    4    4    0    0  0.13644997521E+03  0.28946735477E+02  0.58697952192E+02  0.15133393149E+03  0.00000000000E+00 0. -1.
         -5    1    5    5    0  501 -0.11708504449E+03 -0.35282903594E+02 -0.87513207990E+02  0.15044747423E+03  0.47000000000E+01 0.  1.
         13    1    6    6    0    0 -0.44535344418E+02 -0.81411153302E+01  0.35154244585E+01  0.45409612093E+02  0.00000000000E+00 0. -1.
        -14    1    6    6    0    0 -0.39979275033E+02  0.81242671202E+02 -0.22532896908E+02  0.93308335637E+02  0.00000000000E+00 0.  1.
</event>
<event>
12    1  0.1348628E-002  0.1711327E+03  0.7818608E-02  0.1176672E+00
          1   -1    0    0  502    0  0.00000000000E+00  0.00000000000E+00  0.56450927794E+03  0.56450927794E+03  0.00000000000E+00 0.  1.
         -1   -1    0    0    0  501 -0.00000000000E+00 -0.00000000000E+00 -0.60719963808E+02  0.60719963808E+02  0.00000000000E+00 0. -1.
          6    2    1    2  502    0  0.11172161006E+02  0.16650157949E+02  0.37423650493E+03  0.41256177888E+03  0.17248830346E+03 0.  0.
         24    2    3    3    0    0 -0.17203796943E+02  0.21522324007E+02  0.37498112376E+03  0.38337997893E+03  0.74901161584E+02 0.  0.
         -6    2    1    2    0  501 -0.11172161006E+02 -0.16650157949E+02  0.12955280920E+03  0.21266746286E+03  0.16745588806E+03 0.  0.
        -24    2    5    5    0    0  0.85352360308E+01 -0.62849384435E+02  0.12587902196E+03  0.16208745951E+03  0.80024502408E+02 0.  0.
          5    1    3    3  502    0  0.28375957949E+02 -0.48721660577E+01 -0.74461882639E+00  0.29181799959E+02  0.47000000000E+01 0. -1.
        -13    1    4    4    0    0  0.19499026306E+02  0.34889768697E+02  0.21630322093E+03  0.21996497760E+03  0.00000000000E+00 0.  1.
         14    1    4    4    0    0 -0.36702823249E+02 -0.13367444690E+02  0.15867790283E+03  0.16341500133E+03  0.00000000000E+00 0. -1.
         -5    1    5    5    0  501 -0.19707397037E+02  0.46199226486E+02  0.36737872441E+01  0.50580003347E+02  0.47000000000E+01 0.  1.
         11    1    6    6    0    0  0.20042835317E+02 -0.70830189292E+02  0.60668744563E+02  0.95390395373E+02  0.00000000000E+00 0. -1.
        -12    1    6    6    0    0 -0.11507599286E+02  0.79808048570E+01  0.65210277392E+02  0.66697064142E+02  0.00000000000E+00 0.  1.
</event>
<event>
12    1  0.1348628E-002  0.2381821E+03  0.7818608E-02  0.1121010E+00
         -3   -1    0    0    0  501 -0.00000000000E+00  0.00000000000E+00  0.52534369694E+03  0.52534369694E+03  0.00000000000E+00 0.  1.
          3   -1    0    0  502    0  0.00000000000E+00 -0.00000000000E+00 -0.25992940371E+03  0.25992940371E+03  0.00000000000E+00 0. -1.
          6    2    1    2  502    0 -0.95164492538E+02  0.13532272977E+03  0.43288328839E+03  0.49404753969E+03  0.17124984169E+03 0.  0.
         24    2    3    3    0    0 -0.19741791760E+02  0.13750644158E+03  0.34176218477E+03  0.37564780188E+03  0.70796329708E+02 0.  0.
         -6    2    1    2    0  501  0.95164492538E+02 -0.13532272977E+03 -0.16746899516E+03  0.29122556095E+03  0.17145827825E+03 0.  0.
        -24    2    5    5    0    0 -0.15801784509E+02 -0.68924830684E+02 -0.78754702535E+02  0.13433543583E+03  0.82724708943E+02 0.  0.
          5    1    3    3  502    0 -0.75422700779E+02 -0.21837118067E+01  0.91121103622E+02  0.11839973782E+03  0.47000000000E+01 0. -1.
        -11    1    4    4    0    0  0.24262098217E+02  0.74915275319E+02  0.15607439707E+03  0.17481465987E+03  0.00000000000E+00 0.  1.
         12    1    4    4    0    0 -0.44003889976E+02  0.62591166263E+02  0.18568778770E+03  0.20083314200E+03  0.00000000000E+00 0. -1.
         -5    1    5    5    0  501  0.11096627705E+03 -0.66397899091E+02 -0.88714292627E+02  0.15689012512E+03  0.47000000000E+01 0.  1.
         13    1    6    6    0    0  0.27184633454E+02 -0.19786326124E+01 -0.32080432482E+02  0.42096002557E+02  0.00000000000E+00 0. -1.
        -14    1    6    6    0    0 -0.42986417963E+02 -0.66946198072E+02 -0.46674270052E+02  0.92239433273E+02  0.00000000000E+00 0.  1.
</event>
<event>
12    1  0.1348628E-002  0.2116425E+03  0.7818608E-02  0.1140272E+00
          2   -1    0    0  502    0  0.00000000000E+00  0.00000000000E+00  0.13509163772E+04  0.13509163772E+04  0.00000000000E+00 0. -1.
         -2   -1    0    0    0  501 -0.00000000000E+00 -0.00000000000E+00 -0.34105142035E+02  0.34105142035E+02  0.00000000000E+00 0.  1.
          6    2    1    2  502    0 -0.12172976933E+03 -0.20702719857E+02  0.54347410154E+03  0.58329238586E+03  0.17210220511E+03 0.  0.
         24    2    3    3    0    0 -0.54932333997E+02  0.40439450433E+02  0.40046673616E+03  0.41395999407E+03  0.79601252833E+02 0.  0.
         -6    2    1    2    0  501  0.12172976933E+03  0.20702719857E+02  0.77333713364E+03  0.80172913340E+03  0.17167568760E+03 0.  0.
        -24    2    5    5    0    0  0.67042982594E+02  0.22578553590E+02  0.21022450483E+03  0.23594464605E+03  0.80442407781E+02 0.  0.
          5    1    3    3  502    0 -0.66797435335E+02 -0.61142170290E+02  0.14300736539E+03  0.16933239179E+03  0.47000000000E+01 0. -1.
        -13    1    4    4    0    0 -0.17121399807E+02 -0.24111749986E+02  0.96959947990E+02  0.10136937572E+03  0.00000000000E+00 0.  1.
         14    1    4    4    0    0 -0.37810934191E+02  0.64551200419E+02  0.30350678817E+03  0.31259061836E+03  0.00000000000E+00 0. -1.
         -5    1    5    5    0  501  0.54686786739E+02 -0.18758337334E+01  0.56311262881E+03  0.56578448735E+03  0.47000000000E+01 0.  1.
         11    1    6    6    0    0  0.41241847493E+02 -0.28045198699E+02  0.10886542428E+03  0.11974599683E+03  0.00000000000E+00 0. -1.
        -12    1    6    6    0    0  0.25801135100E+02  0.50623752289E+02  0.10135908055E+03  0.11619864921E+03  0.00000000000E+00 0.  1.
</event>
<event>
12    1  0.1348628E-002  0.1703316E+03  0.7818608E-02  0.1177503E+00
         -2   -1    0    0    0  501 -0.00000000000E+00  0.00000000000E+00  0.63761238918E+02  0.63761238918E+02  0.00000000000E+00 0.  1.
          2   -1    0    0  502    0  0.00000000000E+00 -0.00000000000E+00 -0.49168218039E+03  0.49168218039E+03  0.00000000000E+00 0. -1.
          6    2    1    2  502    0  0.28554444888E+01 -0.15309332426E+02 -0.14485549471E+03  0.22776761274E+03  0.17507838770E+03 0.  0.
         24    2    3    3    0    0 -0.35380562782E+02  0.27473765175E+02 -0.30476101052E+02  0.99716367575E+02  0.83713614373E+02 0.  0.
         -6    2    1    2    0  501 -0.28554444888E+01  0.15309332426E+02 -0.28306544676E+03  0.32767580657E+03  0.16432546316E+03 0.  0.
        -24    2    5    5    0    0  0.43776114688E+01  0.41462560933E+02 -0.28611862124E+03  0.29996803989E+03  0.79866464164E+02 0.  0.
          5    1    3    3  502    0  0.38236007271E+02 -0.42783097601E+02 -0.11437939366E+03  0.12805124516E+03  0.47000000000E+01 0. -1.
        -13    1    4    4    0    0  0.10586783092E+02  0.32159037365E+02  0.13005455266E+02  0.36268795502E+02  0.00000000000E+00 0.  1.
         14    1    4    4    0    0 -0.45967345874E+02 -0.46852721898E+01 -0.43481556318E+02  0.63447572073E+02  0.00000000000E+00 0. -1.
         -5    1    5    5    0  501 -0.72330559576E+01 -0.26153228506E+02  0.30531744823E+01  0.27707766677E+02  0.47000000000E+01 0.  1.
         11    1    6    6    0    0 -0.23787356278E+01 -0.23122683137E+02 -0.10550513805E+03  0.10803541555E+03  0.00000000000E+00 0. -1.
        -12    1    6    6    0    0  0.67563470965E+01  0.64585244070E+02 -0.18061348319E+03  0.19193262434E+03  0.00000000000E+00 0.  1.
</event>
<event>
12    1  0.1348628E-002  0.1747855E+03  0.7818608E-02  0.1172947E+00
         -2   -1    0    0    0  501 -0.00000000000E+00  0.00000000000E+00  0.38345583372E+02  0.38345583372E+02  0.00000000000E+00 0.  1.
          2   -1    0    0  502    0  0.00000000000E+00 -0.00000000000E+00 -0.87723789920E+03  0.87723789920E+03  0.00000000000E+00 0. -1.
          6    2    1    2  502    0  0.47078320928E+02  0.19768555263E+02 -0.54699878889E+03  0.57280711018E+03  0.16215161530E+03 0.  0.
         24    2    3    3    0    0 -0.52216939437E+00  0.59008399603E+02 -0.43801663275E+03  0.44748842673E+03  0.70036116475E+02 0.  0.
         -6    2    1    2    0  501 -0.47078320928E+02 -0.19768555263E+02 -0.29189352693E+03  0.34277637239E+03  0.17229813210E+03 0.  0.
        -24    2    5    5    0    0 -0.78650689340E+02 -0.43245037040E+02 -0.27416177180E+03  0.29936594987E+03  0.79995191474E+02 0.  0.
          5    1    3    3  502    0  0.47600490322E+02 -0.39239844340E+02 -0.10898215614E+03  0.12531868344E+03  0.47000000000E+01 0. -1.
        -11    1    4    4    0    0 -0.22766594351E+00  0.31077534720E+02 -0.52852174551E+02  0.61312456734E+02  0.00000000000E+00 0.  1.
         12    1    4    4    0    0 -0.29450345087E+00  0.27930864882E+02 -0.38516445820E+03  0.38617597000E+03  0.00000000000E+00 0. -1.
         -5    1    5    5    0  501  0.31572368412E+02  0.23476481777E+02 -0.17731755130E+02  0.43410422525E+02  0.47000000000E+01 0.  1.
         11    1    6    6    0    0 -0.11739380497E+02 -0.39937856802E+02 -0.17368056388E+03  0.17859950652E+03  0.00000000000E+00 0. -1.
        -12    1    6    6    0    0 -0.66911308843E+02 -0.33071802385E+01 -0.10048120792E+03  0.12076644334E+03  0.00000000000E+00 0.  1.
</event>
<event>
12    1  0.1348628E-002  0.1828094E+03  0.7818608E-02  0.1165111E+00
          2   -1    0    0  502    0  0.00000000000E+00  0.00000000000E+00  0.27268791193E+03  0.27268791193E+03  0.00000000000E+00 0.  1.
         -2   -1    0    0    0  501 -0.00000000000E+00 -0.00000000000E+00 -0.15422597851E+03  0.15422597851E+03  0.00000000000E+00 0. -1.
          6    2    1    2  502    0 -0.19455196632E+02  0.57827834109E+02  0.15599765310E+03  0.24043006722E+03  0.17247836495E+03 0.  0.
         24    2    3    3    0    0 -0.72548274291E+02  0.34951184244E+02  0.13898317991E+03  0.17998341055E+03  0.81196467862E+02 0.  0.
         -6    2    1    2    0  501  0.19455196632E+02 -0.57827834109E+02 -0.37535719679E+02  0.18648382322E+03  0.17217642985E+03 0.  0.
        -24    2    5    5    0    0  0.69222038771E+02 -0.70809483871E+02 -0.91325917123E+01  0.12754241599E+03  0.79862318953E+02 0.  0.
          5    1    3    3  502    0  0.53093077660E+02  0.22876649864E+02  0.17014473195E+02  0.60446656669E+02  0.47000000000E+01 0. -1.
        -11    1    4    4    0    0 -0.20212308879E+02 -0.26505482241E+02  0.34809709308E+02  0.48195371989E+02  0.00000000000E+00 0.  1.
         12    1    4    4    0    0 -0.52335965412E+02  0.61456666485E+02  0.10417347060E+03  0.13178803856E+03  0.00000000000E+00 0. -1.
         -5    1    5    5    0  501 -0.49766842139E+02  0.12981649762E+02 -0.28403127967E+02  0.58941407222E+02  0.47000000000E+01 0.  1.
         13    1    6    6    0    0  0.20705871280E+02  0.27044898236E+01 -0.30447221872E+02  0.36919922675E+02  0.00000000000E+00 0. -1.
        -14    1    6    6    0    0  0.48516167491E+02 -0.73513973695E+02  0.21314630160E+02  0.90622493318E+02  0.00000000000E+00 0.  1.
</event>
<event>
12    1  0.1348628E-002  0.2845448E+03  0.7818608E-02  0.1093232E+00
          2   -1    0    0  502    0  0.00000000000E+00  0.00000000000E+00  0.81650878382E+03  0.81650878382E+03  0.00000000000E+00 0.  1.
         -2   -1    0    0    0  501 -0.00000000000E+00 -0.00000000000E+00 -0.10621916919E+03  0.10621916919E+03  0.00000000000E+00 0. -1.
          6    2    1    2  502    0  0.21247336151E+03 -0.79938111650E+02  0.23602222271E+03  0.36956459459E+03  0.17127892141E+03 0.  0.
         24    2    3    3    0    0  0.11631999004E+03 -0.10863217264E+03  0.11236303080E+03  0.21024571397E+03  0.79034932366E+02 0.  0.
         -6    2    1    2    0  501 -0.21247336151E+03  0.79938111650E+02  0.47426739192E+03  0.55316335841E+03  0.17182872577E+03 0.  0.
        -24    2    5    5    0    0 -0.15641943575E+03 -0.12330143540E+02  0.30974202661E+03  0.35632291709E+03  0.80042650335E+02 0.  0.
          5    1    3    3  502    0  0.96153371467E+02  0.28694060991E+02  0.12365919191E+03  0.15931888063E+03  0.47000000000E+01 0. -1.
        -11    1    4    4    0    0  0.45961968452E+02 -0.26186279386E+02  0.82183697900E+02  0.97736298132E+02  0.00000000000E+00 0.  1.
         12    1    4    4    0    0  0.70358021592E+02 -0.82445893256E+02  0.30179332899E+02  0.11250941583E+03  0.00000000000E+00 0. -1.
         -5    1    5    5    0  501 -0.56053925757E+02  0.92268255190E+02  0.16452536531E+03  0.19684044132E+03  0.47000000000E+01 0.  1.
         11    1    6    6    0    0 -0.13061664683E+03 -0.13807451297E+02  0.17327169272E+03  0.21742684664E+03  0.00000000000E+00 0. -1.
        -12    1    6    6    0    0 -0.25802788923E+02  0.14773077573E+01  0.13647033390E+03  0.13889607045E+03  0.00000000000E+00 0.  1.
</event>
<event>
12    1  0.1348628E-002  0.2244648E+03  0.7818608E-02  0.1130597E+00
          2   -1    0    0  502    0  0.00000000000E+00  0.00000000000E+00  0.43564269825E+04  0.43564269825E+04  0.00000000000E+00 0. -1.
         -2   -1    0    0    0  501 -0.00000000000E+00 -0.00000000000E+00 -0.13322696786E+02  0.13322696786E+02  0.00000000000E+00 0.  1.
          6    2    1    2  502    0 -0.19602858858E+02  0.14148928613E+03  0.29590260821E+04  0.29674739194E+04  0.17222838795E+03 0.  0.
         24    2    3    3    0    0  0.17341750474E+02  0.41983937465E+02  0.20841174750E+04  0.20861377864E+04  0.79761061261E+02 0.  0.
         -6    2    1    2    0  501  0.19602858858E+02 -0.14148928613E+03  0.13840782037E+04  0.14022757599E+04  0.17407280912E+03 0.  0.
        -24    2    5    5    0    0  0.19312685435E+02 -0.29462834286E+01  0.37850914018E+03  0.38719670920E+03  0.79186248885E+02 0.  0.
          5    1    3    3  502    0 -0.36944609332E+02  0.99505348667E+02  0.87490860708E+03  0.88133613299E+03  0.47000000000E+01 0. -1.
        -13    1    4    4    0    0 -0.12737258153E+02 -0.17484020913E+02  0.30147366596E+03  0.30224873863E+03  0.00000000000E+00 0.  1.
         14    1    4    4    0    0  0.30079008628E+02  0.59467958379E+02  0.17826438091E+04  0.17838890478E+04  0.00000000000E+00 0. -1.
         -5    1    5    5    0  501  0.29017342242E+00 -0.13854300270E+03  0.10055690635E+04  0.10150790507E+04  0.47000000000E+01 0.  1.
         11    1    6    6    0    0 -0.25296702773E+02 -0.30964015634E+01  0.54896589688E+02  0.60523932730E+02  0.00000000000E+00 0. -1.
        -12    1    6    6    0    0  0.44609388208E+02  0.15011813487E+00  0.32361255049E+03  0.32667277647E+03  0.00000000000E+00 0.  1.
</event>
<event>
12    1  0.1348628E-002  0.2023993E+03  0.7818608E-02  0.1147730E+00
         -2   -1    0    0    0  501 -0.00000000000E+00  0.00000000000E+00  0.78419467980E+02  0.78419467980E+02  0.00000000000E+00 0. -1.
          2   -1    0    0  502    0  0.00000000000E+00 -0.00000000000E+00 -0.55931284759E+03  0.55931284759E+03  0.00000000000E+00 0.  1.
          6    2    1    2  502    0  0.10175311416E+03  0.31275006221E+02 -0.15875782965E+03  0.25740363989E+03  0.17239710873E+03 0.  0.
         24    2    3    3    0    0 -0.13284472929E+02  0.36870790489E+02 -0.73387972612E+02  0.11396354182E+03  0.77884285497E+02 0.  0.
         -6    2    1    2    0  501 -0.10175311416E+03 -0.31275006221E+02 -0.32213554997E+03  0.38032867568E+03  0.17189172970E+03 0.  0.
        -24    2    5    5    0    0 -0.69395257910E+02 -0.84695765136E+02 -0.17804143705E+03  0.22321084818E+03  0.78327868501E+02 0.  0.
          5    1    3    3  502    0  0.11503758709E+03 -0.55957842673E+01 -0.85369857035E+02  0.14344009807E+03  0.47000000000E+01 0. -1.
        -13    1    4    4    0    0 -0.22970524517E+02 -0.43743772373E+01  0.58554326274E+01  0.24105316095E+02  0.00000000000E+00 0.  1.
         14    1    4    4    0    0  0.96860515881E+01  0.41245167726E+02 -0.79243405239E+02  0.89858225722E+02  0.00000000000E+00 0. -1.
         -5    1    5    5    0  501 -0.32357856250E+02  0.53420758915E+02 -0.14409411291E+03  0.15711782751E+03  0.47000000000E+01 0.  1.
         13    1    6    6    0    0 -0.11295888636E+02 -0.38560723776E+02 -0.12950870430E+02  0.42216721369E+02  0.00000000000E+00 0. -1.
        -14    1    6    6    0    0 -0.58099369274E+02 -0.46135041359E+02 -0.16509056662E+03  0.18099412681E+03  0.00000000000E+00 0.  1.
</event>
<event>
12    1  0.1348628E-002  0.1952690E+03  0.7818608E-02  0.1153793E+00
          3   -1    0    0  502    0  0.00000000000E+00  0.00000000000E+00  0.42331267434E+03  0.42331267434E+03  0.00000000000E+00 0. -1.
         -3   -1    0    0    0  501 -0.00000000000E+00 -0.00000000000E+00 -0.12874943583E+03  0.12874943583E+03  0.00000000000E+00 0.  1.
          6    2    1    2  502    0 -0.55450354683E+02  0.77475250662E+02 -0.47928049976E+01  0.19381188944E+03  0.16870957652E+03 0.  0.
         24    2    3    3    0    0 -0.22992252848E+02  0.11440311713E+03  0.11162328401E+02  0.14190955829E+03  0.79981299429E+02 0.  0.
         -6    2    1    2    0  501  0.55450354683E+02 -0.77475250662E+02  0.29935604351E+03  0.35825022074E+03  0.17219762940E+03 0.  0.
        -24    2    5    5    0    0 -0.15110591501E+02  0.49697145812E+01  0.15097366011E+03  0.17436046810E+03  0.85764204367E+02 0.  0.
          5    1    3    3  502    0 -0.32458101835E+02 -0.36927866470E+02 -0.15955133399E+02  0.51902331147E+02  0.47000000000E+01 0. -1.
        -11    1    4    4    0    0 -0.35792743019E+02  0.58899677734E+02 -0.26260444446E+02  0.73755701017E+02  0.00000000000E+00 0.  1.
         12    1    4    4    0    0  0.12800490172E+02  0.55503439398E+02  0.37422772847E+02  0.68153857273E+02  0.00000000000E+00 0. -1.
         -5    1    5    5    0  501  0.70560946184E+02 -0.82444965244E+02  0.14838238340E+03  0.18388975264E+03  0.47000000000E+01 0.  1.
         13    1    6    6    0    0 -0.24278041381E+02  0.39204940725E+02  0.11481387262E+03  0.12372823451E+03  0.00000000000E+00 0. -1.
        -14    1    6    6    0    0  0.91674498798E+01 -0.34235226144E+02  0.36159787491E+02  0.50632233585E+02  0.00000000000E+00 0.  1.
</event>
<event>
12    1  0.1348628E-002  0.3505662E+03  0.7818608E-02  0.1062383E+00
         -2   -1    0    0    0  501 -0.00000000000E+00  0.00000000000E+00  0.15668332725E+03  0.15668332725E+03  0.00000000000E+00 0. -1.
          2   -1    0    0  502    0  0.00000000000E+00 -0.00000000000E+00 -0.97225390024E+03  0.97225390024E+03  0.00000000000E+00 0.  1.
          6    2    1    2  502    0 -0.16124776141E+03 -0.25933653348E+03 -0.15984960610E+03  0.38549137289E+03  0.17261351003E+03 0.  0.
         24    2    3    3    0    0 -0.12487442637E+03 -0.10405758512E+03 -0.13072813416E+03  0.22330406933E+03  0.79707333022E+02 0.  0.
         -6    2    1    2    0  501  0.16124776141E+03  0.25933653348E+03 -0.65572096689E+03  0.74344585460E+03  0.17171334878E+03 0.  0.
        -24    2    5    5    0    0  0.25212842080E+02  0.99199632997E+02 -0.34359898971E+03  0.36715933503E+03  0.79179902610E+02 0.  0.
          5    1    3    3  502    0 -0.36373335033E+02 -0.15527894836E+03 -0.29121471939E+02  0.16218730355E+03  0.47000000000E+01 0. -1.
        -11    1    4    4    0    0 -0.11523996135E+02  0.99756667432E+01  0.12447389461E+01  0.15292671085E+02  0.00000000000E+00 0.  1.
         12    1    4    4    0    0 -0.11335043024E+03 -0.11403325186E+03 -0.13197287311E+03  0.20801139825E+03  0.00000000000E+00 0. -1.
         -5    1    5    5    0  501  0.13603491933E+03  0.16013690048E+03 -0.31212197719E+03  0.37628651958E+03  0.47000000000E+01 0.  1.
         11    1    6    6    0    0  0.27683756131E+02  0.82109460526E+02 -0.33811480150E+03  0.34904150592E+03  0.00000000000E+00 0. -1.
        -12    1    6    6    0    0 -0.24709140515E+01  0.17090172471E+02 -0.54841882096E+01  0.18117829110E+02  0.00000000000E+00 0.  1.
</event>
<event>
12    1  0.1348628E-002  0.2695305E+03  0.7818608E-02  0.1101549E+00
         -2   -1    0    0    0  501 -0.00000000000E+00  0.00000000000E+00  0.13125870582E+03  0.13125870582E+03  0.00000000000E+00 0.  1.
          2   -1    0    0  502    0  0.00000000000E+00 -0.00000000000E+00 -0.69021593756E+03  0.69021593756E+03  0.00000000000E+00 0. -1.
          6    2    1    2  502    0  0.20317620028E+03 -0.28779521958E+01 -0.45898773713E+03  0.53033456194E+03  0.17116119240E+03 0.  0.
         24    2    3    3    0    0  0.17515751194E+03  0.39121397905E+02 -0.42790537394E+03  0.47086023465E+03  0.79973206529E+02 0.  0.
         -6    2    1    2    0  501 -0.20317620028E+03  0.28779521958E+01 -0.99969494610E+02  0.29114008143E+03  0.18297485126E+03 0.  0.
        -24    2    5    5    0    0 -0.77201704487E+02 -0.16184518974E+02  0.21450977927E+02  0.11507767048E+03  0.80998049110E+02 0.  0.
          5    1    3    3  502    0  0.28018688343E+02 -0.41999350101E+02 -0.31082363188E+02  0.59474327291E+02  0.47000000000E+01 0. -1.
        -13    1    4    4    0    0  0.72882328442E+02  0.40820657926E+02 -0.27078386874E+03  0.28337618722E+03  0.00000000000E+00 0.  1.
         14    1    4    4    0    0  0.10227518350E+03 -0.16992600203E+01 -0.15712150520E+03  0.18748404743E+03  0.00000000000E+00 0. -1.
         -5    1    5    5    0  501 -0.12597449579E+03  0.19062471170E+02 -0.12142047254E+03  0.17606241095E+03  0.47000000000E+01 0.  1.
         11    1    6    6    0    0  0.33344361293E+01 -0.21534825295E+02 -0.15061111435E+02  0.26489700687E+02  0.00000000000E+00 0. -1.
        -12    1    6    6    0    0 -0.80536140616E+02  0.53503063212E+01  0.36512089362E+02  0.88587969796E+02  0.00000000000E+00 0.  1.
</event>
<event>
12    1  0.1348628E-002  0.2255245E+03  0.7818608E-02  0.1129830E+00
         -1   -1    0    0    0  501 -0.00000000000E+00  0.00000000000E+00  0.41511316637E+02  0.41511316637E+02  0.00000000000E+00 0.  1.
          1   -1    0    0  502    0  0.00000000000E+00 -0.00000000000E+00 -0.12892521705E+04  0.12892521705E+04  0.00000000000E+00 0. -1.
          6    2    1    2  502    0 -0.29872087990E+02  0.14201545458E+03 -0.47661930238E+03  0.52744717350E+03  0.17312951928E+03 0.  0.
         24    2    3    3    0    0  0.60157971250E+01  0.73924673018E+02 -0.11870645761E+03  0.16132152664E+03  0.80202024813E+02 0.  0.
         -6    2    1    2    0  501  0.29872087990E+02 -0.14201545458E+03 -0.77112155145E+03  0.80331631361E+03  0.17212763177E+03 0.  0.
        -24    2    5    5    0    0  0.23405504100E+02 -0.16373868204E+03 -0.74949024551E+03  0.77163479352E+03  0.79539001966E+02 0.  0.
          5    1    3    3  502    0 -0.35887885115E+02  0.68090781565E+02 -0.35791284477E+03  0.36612564686E+03  0.47000000000E+01 0. -1.
        -13    1    4    4    0    0 -0.12482457442E+02  0.20504522022E+02  0.57002071915E+01  0.24672647389E+02  0.00000000000E+00 0.  1.
         14    1    4    4    0    0  0.18498254567E+02  0.53420150996E+02 -0.12440666480E+03  0.13664887925E+03  0.00000000000E+00 0. -1.
         -5    1    5    5    0  501  0.64665838901E+01  0.21723227462E+02 -0.21631305942E+02  0.31681520092E+02  0.47000000000E+01 0.  1.
         11    1    6    6    0    0  0.52697115521E+02 -0.11765263713E+03 -0.52250426360E+03  0.53817268092E+03  0.00000000000E+00 0. -1.
        -12    1    6    6    0    0 -0.29291611421E+02 -0.46086044910E+02 -0.22698598190E+03  0.23346211259E+03  0.00000000000E+00 0.  1.
</event>
<event>
12    1  0.1348628E-002  0.1921616E+03  0.7818608E-02  0.1156526E+00
         -1   -1    0    0    0  501 -0.00000000000E+00  0.00000000000E+00  0.16247301500E+04  0.16247301500E+04  0.00000000000E+00 0.  1.
          1   -1    0    0  502    0  0.00000000000E+00 -0.00000000000E+00 -0.24171240340E+02  0.24171240340E+02  0.00000000000E+00 0. -1.
          6    2    1    2  502    0  0.41866393645E+02 -0.72399806732E+02  0.59895272852E+03  0.62903629071E+03  0.17305420277E+03 0.  0.
         24    2    3    3    0    0  0.67945168375E+01 -0.97460591352E+02  0.54728986125E+03  0.56158837508E+03  0.79439149477E+02 0.  0.
         -6    2    1    2    0  501 -0.41866393645E+02  0.72399806732E+02  0.10016061811E+04  0.10198650996E+04  0.17296055161E+03 0.  0.
        -24    2    5    5    0    0 -0.82847213056E+02 -0.85314462571E+01  0.48872087071E+03  0.49899781623E+03  0.56694663235E+02 0.  0.
          5    1    3    3  502    0  0.35071876807E+02  0.25060784621E+02  0.51662867270E+02  0.67447915632E+02  0.47000000000E+01 0. -1.
        -11    1    4    4    0    0 -0.29636674062E+02 -0.65020714794E+02  0.23867657664E+03  0.24914360124E+03  0.00000000000E+00 0.  1.
         12    1    4    4    0    0  0.36431190899E+02 -0.32439876558E+02  0.30861328460E+03  0.31244477383E+03  0.00000000000E+00 0. -1.
         -5    1    5    5    0  501  0.40980819412E+02  0.80931252989E+02  0.51288531040E+03  0.52086728338E+03  0.47000000000E+01 0.  1.
         11    1    6    6    0    0 -0.50436505482E+02  0.14615590274E+02  0.37156404278E+03  0.37525630501E+03  0.00000000000E+00 0. -1.
        -12    1    6    6    0    0 -0.32410707575E+02 -0.23147036531E+02  0.11715682793E+03  0.12374151121E+03  0.00000000000E+00 0.  1.
</event>
<event>
12    1  0.1348628E-002  0.2120573E+03  0.7818608E-02  0.1139947E+00
         -2   -1    0    0    0  501 -0.00000000000E+00  0.00000000000E+00  0.64074070649E+02  0.64074070649E+02  0.00000000000E+00 0.  1.
          2   -1    0    0  502    0  0.00000000000E+00 -0.00000000000E+00 -0.78021518860E+03  0.78021518860E+03  0.00000000000E+00 0. -1.
          6    2    1    2  502    0  0.90249691930E+02 -0.84960482289E+02 -0.49233904893E+03  0.53618390637E+03  0.17243013630E+03 0.  0.
         24    2    3    3    0    0 -0.11495170766E+02 -0.37403664592E+02 -0.30990865769E+03  0.32190230276E+03  0.77759522499E+02 0.  0.
         -6    2    1    2    0  501 -0.90249691930E+02  0.84960482289E+02 -0.22380206902E+03  0.30810535288E+03  0.17169231762E+03 0.  0.
        -24    2    5    5    0    0 -0.10728355259E+03  0.85346952935E+01 -0.14250324886E+03  0.19513349140E+03  0.78659404079E+02 0.  0.
          5    1    3    3  502    0  0.10174486270E+03 -0.47556817697E+02 -0.18243039125E+03  0.21428160361E+03  0.47000000000E+01 0. -1.
        -11    1    4    4    0    0 -0.66135607302E+00 -0.27544604974E+02 -0.26872426685E+02  0.38487270245E+02  0.00000000000E+00 0.  1.
         12    1    4    4    0    0 -0.10833814693E+02 -0.98590596187E+01 -0.28303623100E+03  0.28341503252E+03  0.00000000000E+00 0. -1.
         -5    1    5    5    0  501  0.17033860658E+02  0.76425786996E+02 -0.81298820154E+02  0.11297186148E+03  0.47000000000E+01 0.  1.
         13    1    6    6    0    0  0.97697925126E+01 -0.10723022159E+02 -0.12588419352E+02  0.19206778797E+02  0.00000000000E+00 0. -1.
        -14    1    6    6    0    0 -0.11705334510E+03  0.19257717453E+02 -0.12991482951E+03  0.17592671260E+03  0.00000000000E+00 0.  1.
</event>
<event>
12    1  0.1348628E-002  0.3566370E+03  0.7818608E-02  0.1059923E+00
         -1   -1    0    0    0  501 -0.00000000000E+00  0.00000000000E+00  0.34288629674E+03  0.34288629674E+03  0.00000000000E+00 0.  1.
          1   -1    0    0  502    0  0.00000000000E+00 -0.00000000000E+00 -0.37102301033E+03  0.37102301033E+03  0.00000000000E+00 0. -1.
          6    2    1    2  502    0  0.31260347615E+03  0.22327453862E+02 -0.19380228746E+02  0.35814994184E+03  0.17226821843E+03 0.  0.
         24    2    3    3    0    0  0.83049842278E+02 -0.31113964025E+02 -0.26493629265E+02  0.12230349511E+03  0.79942963827E+02 0.  0.
         -6    2    1    2    0  501 -0.31260347615E+03 -0.22327453862E+02 -0.87564848442E+01  0.35575936522E+03  0.16813268993E+03 0.  0.
        -24    2    5    5    0    0 -0.93961029549E+02 -0.25232723078E+02  0.36743448142E+02  0.13236443702E+03  0.81883440446E+02 0.  0.
          5    1    3    3  502    0  0.22955363387E+03  0.53441417887E+02  0.71134005191E+01  0.23584644673E+03  0.47000000000E+01 0. -1.
        -11    1    4    4    0    0  0.82345574643E+02 -0.37162689561E+02  0.47540168877E+01  0.90468004484E+02  0.00000000000E+00 0.  1.
         12    1    4    4    0    0  0.70426763469E+00  0.60487255357E+01 -0.31247646152E+02  0.31835490629E+02  0.00000000000E+00 0. -1.
         -5    1    5    5    0  501 -0.21864244660E+03  0.29052692157E+01 -0.45499932987E+02  0.22339492820E+03  0.47000000000E+01 0.  1.
         13    1    6    6    0    0 -0.59665719336E+02  0.23797133500E+01 -0.17760148828E+02  0.62298346574E+02  0.00000000000E+00 0. -1.
        -14    1    6    6    0    0 -0.34295310213E+02 -0.27612436428E+02  0.54503596970E+02  0.70066090449E+02  0.00000000000E+00 0.  1.
</event>
<event>
12    1  0.1348628E-002  0.2253338E+03  0.7818608E-02  0.1129968E+00
          2   -1    0    0  502    0  0.00000000000E+00  0.00000000000E+00  0.26035781165E+03  0.26035781165E+03  0.00000000000E+00 0.  1.
         -2   -1    0    0    0  501 -0.00000000000E+00 -0.00000000000E+00 -0.21090993061E+03  0.21090993061E+03  0.00000000000E+00 0. -1.
          6    2    1    2  502    0  0.12042027404E+03 -0.84286856314E+02 -0.39839886930E+02  0.22982281554E+03  0.17212203056E+03 0.  0.
         24    2    3    3    0    0  0.14032019939E+03 -0.62957527968E+02  0.84598924769E+01  0.17320209524E+03  0.79208505413E+02 0.  0.
         -6    2    1    2    0  501 -0.12042027404E+03  0.84286856314E+02  0.89287767972E+02  0.24144492672E+03  0.16946395069E+03 0.  0.
        -24    2    5    5    0    0 -0.11122628128E+03  0.92699825831E+02  0.12256827265E+03  0.20559817582E+03  0.79265913758E+02 0.  0.
          5    1    3    3  502    0 -0.19899925349E+02 -0.21329328346E+02 -0.48299779407E+02  0.56620720301E+02  0.47000000000E+01 0. -1.
        -11    1    4    4    0    0  0.64866785413E+02 -0.66039151005E+02 -0.15752989188E+02  0.93899020142E+02  0.00000000000E+00 0.  1.
         12    1    4    4    0    0  0.75453413976E+02  0.30816230369E+01  0.24212881665E+02  0.79303075096E+02  0.00000000000E+00 0. -1.
         -5    1    5    5    0  501 -0.91939927578E+01 -0.84129695163E+01 -0.33280504674E+02  0.35846750903E+02  0.47000000000E+01 0.  1.
         11    1    6    6    0    0 -0.97353237722E+02  0.63089244786E+02  0.50626845369E+02  0.12657402251E+03  0.00000000000E+00 0. -1.
        -12    1    6    6    0    0 -0.13873043560E+02  0.29610581045E+02  0.71941427277E+02  0.79024153309E+02  0.00000000000E+00 0.  1.
</event>
<event>
12    1  0.1348628E-002  0.1963712E+03  0.7818608E-02  0.1152837E+00
         -2   -1    0    0    0  501 -0.00000000000E+00  0.00000000000E+00  0.95320633650E+02  0.95320633650E+02  0.00000000000E+00 0.  1.
          2   -1    0    0  502    0  0.00000000000E+00 -0.00000000000E+00 -0.56977932717E+03  0.56977932717E+03  0.00000000000E+00 0. -1.
          6    2    1    2  502    0  0.28611985412E+02 -0.89213244248E+02 -0.41585870035E+03  0.45966778353E+03  0.17198361521E+03 0.  0.
         24    2    3    3    0    0  0.51445136061E+01 -0.39441620495E+01 -0.31172608518E+03  0.32296653937E+03  0.84215265476E+02 0.  0.
         -6    2    1    2    0  501 -0.28611985412E+02  0.89213244248E+02 -0.58599993175E+02  0.20543217730E+03  0.17317843864E+03 0.  0.
        -24    2    5    5    0    0 -0.17998426312E+02 -0.19650822024E+02 -0.46381249356E+02  0.95271293754E+02  0.78837180098E+02 0.  0.
          5    1    3    3  502    0  0.23467471806E+02 -0.85269082199E+02 -0.10413261517E+03  0.13670124416E+03  0.47000000000E+01 0. -1.
        -13    1    4    4    0    0  0.23870194609E+02  0.80199836595E+01 -0.25356028583E+02  0.35735619682E+02  0.00000000000E+00 0.  1.
         14    1    4    4    0    0 -0.18725681003E+02 -0.11964145709E+02 -0.28637005659E+03  0.28723091969E+03  0.00000000000E+00 0. -1.
         -5    1    5    5    0  501 -0.10613559100E+02  0.10886406627E+03 -0.12218743819E+02  0.11016088354E+03  0.47000000000E+01 0.  1.
         13    1    6    6    0    0 -0.31160705639E+01  0.29676271807E+02 -0.76232232090E+01  0.30797800834E+02  0.00000000000E+00 0. -1.
        -14    1    6    6    0    0 -0.14882355748E+02 -0.49327093831E+02 -0.38758026147E+02  0.64473492920E+02  0.00000000000E+00 0.  1.
</event>
<event>
12    1  0.1348628E-002  0.1764775E+03  0.7818608E-02  0.1171256E+00
          2   -1    0    0  502    0  0.00000000000E+00  0.00000000000E+00  0.48693391575E+03  0.48693391575E+03  0.00000000000E+00 0.  1.
         -2   -1    0    0    0  501 -0.00000000000E+00 -0.00000000000E+00 -0.88590054329E+02  0.88590054329E+02  0.00000000000E+00 0. -1.
          6    2    1    2  502    0  0.20521981644E+02  0.34045323433E+02  0.47734562487E+02  0.18316592199E+03  0.17231056481E+03 0.  0.
         24    2    3    3    0    0  0.46397170654E+02  0.79299414075E+02  0.49914159266E+02  0.13077986690E+03  0.78554794720E+02 0.  0.
         -6    2    1    2    0  501 -0.20521981644E+02 -0.34045323433E+02  0.35060929893E+03  0.39235804808E+03  0.17157424521E+03 0.  0.
        -24    2    5    5    0    0 -0.50375830111E+02  0.71816452699E+01  0.31950752150E+03  0.33252222457E+03  0.76789799098E+02 0.  0.
          5    1    3    3  502    0 -0.25875189010E+02 -0.45254090642E+02 -0.21795967797E+01  0.52386055093E+02  0.47000000000E+01 0. -1.
        -13    1    4    4    0    0 -0.10908001605E+02  0.24634413473E+02  0.43702804258E+02  0.51339788918E+02  0.00000000000E+00 0.  1.
         14    1    4    4    0    0  0.57305172260E+02  0.54665000602E+02  0.62113550086E+01  0.79440077981E+02  0.00000000000E+00 0. -1.
         -5    1    5    5    0  501  0.29853848467E+02 -0.41226968703E+02  0.31101777426E+02  0.59835823516E+02  0.47000000000E+01 0.  1.
         11    1    6    6    0    0 -0.55975551110E+02  0.99091733589E+01  0.11861493723E+03  0.13153310371E+03  0.00000000000E+00 0. -1.
        -12    1    6    6    0    0  0.55997209989E+01 -0.27275280890E+01  0.20089258428E+03  0.20098912086E+03  0.00000000000E+00 0.  1.
</event>
<event>
12    1  0.1348628E-002  0.1872221E+03  0.7818608E-02  0.1160991E+00
          2   -1    0    0  502    0  0.00000000000E+00  0.00000000000E+00  0.36755161765E+03  0.36755161765E+03  0.00000000000E+00 0. -1.
         -2   -1    0    0    0  501 -0.00000000000E+00 -0.00000000000E+00 -0.21035466190E+03  0.21035466190E+03  0.00000000000E+00 0.  1.
          6    2    1    2  502    0 -0.82429424163E+02  0.82113786469E+01 -0.13425756047E+03  0.23352197401E+03  0.17217834676E+03 0.  0.
         24    2    3    3    0    0 -0.85120742501E+02 -0.54629570653E+02 -0.89009801017E+02  0.15589673430E+03  0.78429052628E+02 0.  0.
         -6    2    1    2    0  501  0.82429424163E+02 -0.82113786469E+01  0.29145451621E+03  0.34438430554E+03  0.16368499680E+03 0.  0.
        -24    2    5    5    0    0  0.41032204423E+02 -0.24049918338E+01  0.28884869642E+03  0.30223784393E+03  0.78896888985E+02 0.  0.
          5    1    3    3  502    0  0.26913183383E+01  0.62840949300E+02 -0.45247759453E+02  0.77625239702E+02  0.47000000000E+01 0. -1.
        -13    1    4    4    0    0 -0.40042287923E+02 -0.68269184305E+02 -0.43075201706E+02  0.90108486558E+02  0.00000000000E+00 0.  1.
         14    1    4    4    0    0 -0.45078454578E+02  0.13639613651E+02 -0.45934599311E+02  0.65788247747E+02  0.00000000000E+00 0. -1.
         -5    1    5    5    0  501  0.41397219740E+02 -0.58063868131E+01  0.26058197920E+01  0.42146461616E+02  0.47000000000E+01 0.  1.
         13    1    6    6    0    0  0.58326393060E+02  0.11754373207E+02  0.14611607719E+03  0.15776578029E+03  0.00000000000E+00 0. -1.
        -14    1    6    6    0    0 -0.17294188637E+02 -0.14159365040E+02  0.14273261923E+03  0.14447206364E+03  0.00000000000E+00 0.  1.
</event>
<event>
12    1  0.1348628E-002  0.4358158E+03  0.7818608E-02  0.1032038E+00
         -1   -1    0    0    0  501 -0.00000000000E+00  0.00000000000E+00  0.91026827080E+02  0.91026827080E+02  0.00000000000E+00 0.  1.
          1   -1    0    0  502    0  0.00000000000E+00 -0.00000000000E+00 -0.24943441866E+04  0.24943441866E+04  0.00000000000E+00 0. -1.
          6    2    1    2  502    0  0.15051412804E+02  0.39991060640E+03 -0.67883013521E+03  0.80664757654E+03  0.17238016747E+03 0.  0.
         24    2    3    3    0    0 -0.21050322132E+02  0.35605734486E+03 -0.64111729470E+03  0.73830438265E+03  0.82716545993E+02 0.  0.
         -6    2    1    2    0  501 -0.15051412804E+02 -0.39991060640E+03 -0.17244872243E+04  0.17787234371E+04  0.17275948853E+03 0.  0.
        -24    2    5    5    0    0 -0.22111829813E+02 -0.97288708990E+02 -0.45046235678E+03  0.46922303035E+03  0.85439402063E+02 0.  0.
          5    1    3    3  502    0  0.36101734935E+02  0.43853261535E+02 -0.37712840511E+02  0.68343193897E+02  0.47000000000E+01 0. -1.
        -11    1    4    4    0    0  0.23076455917E+02  0.18695404230E+03 -0.28520026060E+03  0.34179456607E+03  0.00000000000E+00 0.  1.
         12    1    4    4    0    0 -0.44126778048E+02  0.16910330256E+03 -0.35591703410E+03  0.39650981658E+03  0.00000000000E+00 0. -1.
         -5    1    5    5    0  501  0.70604170094E+01 -0.30262189741E+03 -0.12740248675E+04  0.13095004068E+04  0.47000000000E+01 0.  1.
         11    1    6    6    0    0  0.11690791313E+02 -0.91589204013E+02 -0.37721748712E+03  0.38835330498E+03  0.00000000000E+00 0. -1.
        -12    1    6    6    0    0 -0.33802621126E+02 -0.56995049770E+01 -0.73244869655E+02  0.80869725379E+02  0.00000000000E+00 0.  1.
</event>
<event>
12    1  0.1348628E-002  0.1763905E+03  0.7818608E-02  0.1171343E+00
         -1   -1    0    0    0  501 -0.00000000000E+00  0.00000000000E+00  0.58164389085E+02  0.58164389085E+02  0.00000000000E+00 0. -1.
          1   -1    0    0  502    0  0.00000000000E+00 -0.00000000000E+00 -0.57497795194E+03  0.57497795194E+03  0.00000000000E+00 0.  1.
          6    2    1    2  502    0  0.33306213916E+01  0.37044367416E+02 -0.17408273509E+03  0.24742226764E+03  0.17184179257E+03 0.  0.
         24    2    3    3    0    0  0.14378993506E+02  0.35944332170E+02 -0.20000867843E+03  0.21882994101E+03  0.79901947200E+02 0.  0.
         -6    2    1    2    0  501 -0.33306213916E+01 -0.37044367416E+02 -0.34273082776E+03  0.38572007338E+03  0.17300918043E+03 0.  0.
        -24    2    5    5    0    0 -0.18318571430E+02 -0.87018836328E+02 -0.27941300785E+03  0.30354147210E+03  0.78472596458E+02 0.  0.
          5    1    3    3  502    0 -0.11048372115E+02  0.11000352456E+01  0.25925943342E+02  0.28592326630E+02  0.47000000000E+01 0. -1.
        -13    1    4    4    0    0 -0.17822041259E+01  0.49197904891E+02 -0.61615909573E+02  0.78867803378E+02  0.00000000000E+00 0.  1.
         14    1    4    4    0    0  0.16161197632E+02 -0.13253572721E+02 -0.13839276886E+03  0.13996213764E+03  0.00000000000E+00 0. -1.
         -5    1    5    5    0  501  0.14987950038E+02  0.49974468912E+02 -0.63317819906E+02  0.82178601272E+02  0.47000000000E+01 0.  1.
         13    1    6    6    0    0  0.22259196424E+02 -0.45777522566E+02 -0.71769387775E+02  0.87988058390E+02  0.00000000000E+00 0. -1.
        -14    1    6    6    0    0 -0.40577767853E+02 -0.41241313762E+02 -0.20764362008E+03  0.21555341371E+03  0.00000000000E+00 0.  1.
</event>
<event>
12    1  0.1348628E-002  0.1993765E+03  0.7818608E-02  0.1150266E+00
          1   -1    0    0  502    0  0.00000000000E+00  0.00000000000E+00  0.22676860719E+04  0.22676860719E+04  0.00000000000E+00 0.  1.
         -1   -1    0    0    0  501 -0.00000000000E+00 -0.00000000000E+00 -0.18659851321E+02  0.18659851321E+02  0.00000000000E+00 0. -1.
          6    2    1    2  502    0 -0.52987016635E+01 -0.10060817746E+03  0.14047887531E+04  0.14188372729E+04  0.17180711416E+03 0.  0.
         24    2    3    3    0    0 -0.51891135308E+02 -0.72243932802E+02  0.59061572965E+03  0.60282551601E+03  0.81607517350E+02 0.  0.
         -6    2    1    2    0  501  0.52987016635E+01  0.10060817746E+03  0.84423746749E+03  0.86750865035E+03  0.17229125139E+03 0.  0.
        -24    2    5    5    0    0  0.59827577978E+02  0.59530489764E+02  0.67770371149E+03  0.68746322090E+03  0.78740975502E+02 0.  0.
          5    1    3    3  502    0  0.46592433644E+02 -0.28364244659E+02  0.81417302349E+03  0.81601175691E+03  0.47000000000E+01 0. -1.
        -13    1    4    4    0    0  0.65157676861E+01 -0.36097108542E+02  0.85154286622E+02  0.92718439395E+02  0.00000000000E+00 0.  1.
         14    1    4    4    0    0 -0.58406902994E+02 -0.36146824260E+02  0.50546144303E+03  0.51010707661E+03  0.00000000000E+00 0. -1.
         -5    1    5    5    0  501 -0.54528876314E+02  0.41077687697E+02  0.16653375600E+03  0.18004542945E+03  0.47000000000E+01 0.  1.
         11    1    6    6    0    0 -0.16819711265E+02  0.20341308920E+02  0.10203626849E+03  0.10539483679E+03  0.00000000000E+00 0. -1.
        -12    1    6    6    0    0  0.76647289243E+02  0.39189180844E+02  0.57566744300E+03  0.58206838411E+03  0.00000000000E+00 0.  1.
</event>
<event>
12    1  0.1348628E-002  0.1736000E+03  0.7818608E-02  0.1174145E+00
         -3   -1    0    0    0  501 -0.00000000000E+00  0.00000000000E+00  0.15083320758E+03  0.15083320758E+03  0.00000000000E+00 0. -1.
          3   -1    0    0  502    0  0.00000000000E+00 -0.00000000000E+00 -0.20478346288E+03  0.20478346288E+03  0.00000000000E+00 0.  1.
          6    2    1    2  502    0 -0.34816994545E+01  0.23829613910E+02  0.70235056453E+00  0.17392592190E+03  0.17224912273E+03 0.  0.
         24    2    3    3    0    0 -0.67039274128E+02  0.30171941388E+02 -0.99142612779E+01  0.10900602616E+03  0.79871214084E+02 0.  0.
         -6    2    1    2    0  501  0.34816994545E+01 -0.23829613910E+02 -0.54652605863E+02  0.18169074857E+03  0.17159442898E+03 0.  0.
        -24    2    5    5    0    0  0.58378399877E+02  0.21385994110E+02 -0.22854405411E+02  0.10364387497E+03  0.79714055574E+02 0.  0.
          5    1    3    3  502    0  0.63557574673E+02 -0.63423274784E+01  0.10616611842E+02  0.64919895742E+02  0.47000000000E+01 0. -1.
        -11    1    4    4    0    0 -0.54682972417E+02 -0.15822467821E+02 -0.19976496087E+02  0.60329415348E+02  0.00000000000E+00 0.  1.
         12    1    4    4    0    0 -0.12356301711E+02  0.45994409210E+02  0.10062234809E+02  0.48676610809E+02  0.00000000000E+00 0. -1.
         -5    1    5    5    0  501 -0.54896700423E+02 -0.45215608020E+02 -0.31798200452E+02  0.78046873595E+02  0.47000000000E+01 0.  1.
         11    1    6    6    0    0  0.53617045326E+02  0.83874057448E+01  0.20592645789E+02  0.58044751573E+02  0.00000000000E+00 0. -1.
        -12    1    6    6    0    0  0.47613545513E+01  0.12998588365E+02 -0.43447051200E+02  0.45599123398E+02  0.00000000000E+00 0.  1.
</event>
<event>
12    1  0.1348628E-002  0.1926949E+03  0.7818608E-02  0.1156053E+00
          2   -1    0    0  502    0  0.00000000000E+00  0.00000000000E+00  0.18627142858E+04  0.18627142858E+04  0.00000000000E+00 0.  1.
         -2   -1    0    0    0  501 -0.00000000000E+00 -0.00000000000E+00 -0.24627834181E+02  0.24627834181E+02  0.00000000000E+00 0. -1.
          6    2    1    2  502    0 -0.85834305455E+02 -0.11467934101E+02  0.51025145177E+03  0.54571534443E+03  0.17305967645E+03 0.  0.
         24    2    3    3    0    0 -0.12461370781E+03  0.44524038625E+01  0.34648214177E+03  0.37660066114E+03  0.78928976500E+02 0.  0.
         -6    2    1    2    0  501  0.85834305455E+02  0.11467934101E+02  0.13278349998E+04  0.13416267755E+04  0.17122376159E+03 0.  0.
        -24    2    5    5    0    0  0.36898383123E+02 -0.52933062778E+02  0.95290423919E+03  0.95804187206E+03  0.75195343888E+02 0.  0.
          5    1    3    3  502    0  0.38779402356E+02 -0.15920337963E+02  0.16376931000E+03  0.16911468330E+03  0.47000000000E+01 0. -1.
        -13    1    4    4    0    0 -0.10166470141E+03 -0.26649853545E+02  0.28724322981E+03  0.30586696337E+03  0.00000000000E+00 0.  1.
         14    1    4    4    0    0 -0.22949006399E+02  0.31102257408E+02  0.59238911956E+02  0.70733697770E+02  0.00000000000E+00 0. -1.
         -5    1    5    5    0  501  0.48935922331E+02  0.64400996879E+02  0.37493076066E+03  0.38358490348E+03  0.47000000000E+01 0.  1.
         11    1    6    6    0    0  0.40533219098E+02 -0.68316862966E+02  0.66930996397E+03  0.67400739127E+03  0.00000000000E+00 0. -1.
        -12    1    6    6    0    0 -0.36348359747E+01  0.15383800188E+02  0.28359427522E+03  0.28403448079E+03  0.00000000000E+00 0.  1.
</event>
<event>
12    1  0.1348628E-002  0.3380695E+03  0.7818608E-02  0.1067621E+00
          1   -1    0    0  502    0  0.00000000000E+00  0.00000000000E+00  0.67348626796E+03  0.67348626796E+03  0.00000000000E+00 0. -1.
         -1   -1    0    0    0  501 -0.00000000000E+00 -0.00000000000E+00 -0.18580911759E+03  0.18580911759E+03  0.00000000000E+00 0.  1.
          6    2    1    2  502    0 -0.20434005160E+03 -0.20984782322E+03  0.37015833909E+03  0.50111754719E+03  0.16825764321E+03 0.  0.
         24    2    3    3    0    0 -0.11548612675E+03 -0.41388481463E+02  0.18696127484E+03  0.23681313152E+03  0.77947989739E+02 0.  0.
         -6    2    1    2    0  501  0.20434005160E+03  0.20984782322E+03  0.11751881128E+03  0.35817783837E+03  0.16938042182E+03 0.  0.
        -24    2    5    5    0    0  0.17616579732E+03  0.17961517357E+03  0.36390129752E+02  0.26700901324E+03  0.81691938940E+02 0.  0.
          5    1    3    3  502    0 -0.88853924860E+02 -0.16845934176E+03  0.18319706425E+03  0.26430441566E+03  0.47000000000E+01 0. -1.
        -13    1    4    4    0    0 -0.10957322169E+03 -0.31899357076E+02  0.10819671339E+03  0.15725898601E+03  0.00000000000E+00 0.  1.
         14    1    4    4    0    0 -0.59129050570E+01 -0.94891243864E+01  0.78764561452E+02  0.79554145514E+02  0.00000000000E+00 0. -1.
         -5    1    5    5    0  501  0.28174254285E+02  0.30232649652E+02  0.81128681524E+02  0.91168825128E+02  0.47000000000E+01 0.  1.
         11    1    6    6    0    0  0.86956297623E+01  0.37718007387E+02  0.27211769757E+02  0.47315351330E+02  0.00000000000E+00 0. -1.
        -12    1    6    6    0    0  0.16747016756E+03  0.14189716618E+03  0.91783599957E+01  0.21969366191E+03  0.00000000000E+00 0.  1.
</event>
<event>
12    1  0.1348628E-002  0.1754039E+03  0.7818608E-02  0.1172327E+00
         -4   -1    0    0    0  501 -0.00000000000E+00  0.00000000000E+00  0.13093066701E+04  0.13093066701E+04  0.00000000000E+00 0. -1.
          4   -1    0    0  502    0  0.00000000000E+00 -0.00000000000E+00 -0.26516654087E+02  0.26516654087E+02  0.00000000000E+00 0.  1.
          6    2    1    2  502    0 -0.95750846039E+01  0.86165889198E+01  0.42557003842E+03  0.46140540701E+03  0.17781778361E+03 0.  0.
         24    2    3    3    0    0  0.40908107907E+02 -0.30024405605E+02  0.34687025725E+03  0.36012646182E+03  0.82444859805E+02 0.  0.
         -6    2    1    2    0  501  0.95750846039E+01 -0.86165889198E+01  0.85721997762E+03  0.87441791721E+03  0.17208915146E+03 0.  0.
        -24    2    5    5    0    0  0.65392510511E+01 -0.54503466557E+02  0.76546376837E+03  0.77167496728E+03  0.80833685795E+02 0.  0.
          5    1    3    3  502    0 -0.50483192511E+02  0.38640994525E+02  0.78699781169E+02  0.10127894520E+03  0.47000000000E+01 0. -1.
        -11    1    4    4    0    0  0.45137854898E+02 -0.51871647761E+02  0.19794632453E+03  0.20954913787E+03  0.00000000000E+00 0.  1.
         12    1    4    4    0    0 -0.42297469911E+01  0.21847242156E+02  0.14892393272E+03  0.15057732395E+03  0.00000000000E+00 0. -1.
         -5    1    5    5    0  501  0.30358335528E+01  0.45886877637E+02  0.91756209247E+02  0.10274294993E+03  0.47000000000E+01 0.  1.
         11    1    6    6    0    0  0.42737213659E+02 -0.25140987576E+02  0.32648486906E+03  0.33022856995E+03  0.00000000000E+00 0. -1.
        -12    1    6    6    0    0 -0.36197962608E+02 -0.29362478981E+02  0.43897889932E+03  0.44144639733E+03  0.00000000000E+00 0.  1.
</event>
<event>
12    1  0.1348628E-002  0.2185308E+03  0.7818608E-02  0.1134983E+00
          1   -1    0    0  502    0  0.00000000000E+00  0.00000000000E+00  0.15476536267E+03  0.15476536267E+03  0.00000000000E+00 0.  1.
         -1   -1    0    0    0  501 -0.00000000000E+00 -0.00000000000E+00 -0.31683805109E+03  0.31683805109E+03  0.00000000000E+00 0. -1.
          6    2    1    2  502    0  0.13099482396E+03  0.21341821978E+02 -0.11938425318E+03  0.24965004519E+03  0.17452056579E+03 0.  0.
         24    2    3    3    0    0  0.11136409334E+03  0.53466636702E+02 -0.27041787541E+02  0.14981723362E+03  0.80332451034E+02 0.  0.
         -6    2    1    2    0  501 -0.13099482396E+03 -0.21341821978E+02 -0.42688435240E+02  0.22195336857E+03  0.17270170250E+03 0.  0.
        -24    2    5    5    0    0 -0.79629971010E+02  0.41675725501E+02 -0.64714584695E+02  0.13759223612E+03  0.81644642133E+02 0.  0.
          5    1    3    3  502    0  0.19630730618E+02 -0.32124814724E+02 -0.92342465639E+02  0.99832811569E+02  0.47000000000E+01 0. -1.
        -11    1    4    4    0    0  0.41393985747E+02  0.63025965994E+02 -0.39096242151E+01  0.75505096563E+02  0.00000000000E+00 0.  1.
         12    1    4    4    0    0  0.69970107595E+02 -0.95593292922E+01 -0.23132163326E+02  0.74312137053E+02  0.00000000000E+00 0. -1.
         -5    1    5    5    0  501 -0.51364852949E+02 -0.63017547480E+02  0.22026149454E+02  0.84361132452E+02  0.47000000000E+01 0.  1.
         11    1    6    6    0    0 -0.21583780944E+02  0.44768141318E+02 -0.61917301789E+02  0.79396463005E+02  0.00000000000E+00 0. -1.
        -12    1    6    6    0    0 -0.58046190066E+02 -0.30924158161E+01 -0.27972829052E+01  0.58195773114E+02  0.00000000000E+00 0.  1.
</event>
<event>
12    1  0.1348628E-002  0.3005859E+03  0.7818608E-02  0.1084948E+00
          1   -1    0    0  502    0  0.00000000000E+00  0.00000000000E+00  0.11515823491E+04  0.11515823491E+04  0.00000000000E+00 0. -1.
         -1   -1    0    0    0  501 -0.00000000000E+00 -0.00000000000E+00 -0.82383514515E+02  0.82383514515E+02  0.00000000000E+00 0.  1.
          6    2    1    2  502    0 -0.21201486261E+03  0.12559212130E+03  0.40047208036E+03  0.50091893354E+03  0.17267949480E+03 0.  0.
         24    2    3    3    0    0 -0.63903594049E+02  0.95395729392E+02  0.13395003760E+03  0.19447993595E+03  0.81827980535E+02 0.  0.
         -6    2    1    2    0  501  0.21201486261E+03 -0.12559212130E+03  0.66872675418E+03  0.73304693004E+03  0.17157694186E+03 0.  0.
        -24    2    5    5    0    0  0.19796812355E+03 -0.10173025143E+03  0.66344304194E+03  0.70446883830E+03  0.81112589913E+02 0.  0.
          5    1    3    3  502    0 -0.14811126856E+03  0.30196391909E+02  0.26652204277E+03  0.30643899758E+03  0.47000000000E+01 0. -1.
        -11    1    4    4    0    0 -0.14895018954E+02 -0.67259969242E+01 -0.31456312895E+01  0.16643185406E+02  0.00000000000E+00 0.  1.
         12    1    4    4    0    0 -0.49008575095E+02  0.10212172632E+03  0.13709566888E+03  0.17783675055E+03  0.00000000000E+00 0. -1.
         -5    1    5    5    0  501  0.14046739061E+02 -0.23861869876E+02  0.52837122408E+01  0.28578091736E+02  0.47000000000E+01 0.  1.
         11    1    6    6    0    0  0.85446625110E+02 -0.88851557400E+02  0.36535408000E+03  0.38558958591E+03  0.00000000000E+00 0. -1.
        -12    1    6    6    0    0  0.11252149844E+03 -0.12878694026E+02  0.29808896195E+03  0.31887925239E+03  0.00000000000E+00 0.  1.
</event>
<event>
12    1  0.1348628E-002  0.1883824E+03  0.7818608E-02  0.1159928E+00
          2   -1    0    0  502    0  0.00000000000E+00  0.00000000000E+00  0.23405170419E+04  0.23405170419E+04  0.00000000000E+00 0.  1.
         -2   -1    0    0    0  501 -0.00000000000E+00 -0.00000000000E+00 -0.16316899541E+02  0.16316899541E+02  0.00000000000E+00 0. -1.
          6    2    1    2  502    0 -0.57259361775E+02 -0.49647294657E+02  0.14782703416E+04  0.14902855695E+04  0.17298666831E+03 0.  0.
         24    2    3    3    0    0 -0.57683184543E+02 -0.98042915886E+02  0.11306161657E+04  0.11392473496E+04  0.81558852246E+02 0.  0.
         -6    2    1    2    0  501  0.57259361775E+02  0.49647294657E+02  0.84592980076E+03  0.86654837195E+03  0.17194581918E+03 0.  0.
        -24    2    5    5    0    0  0.36599451844E+02  0.21655175649E+02  0.18888080184E+03  0.20856215052E+03  0.77548351488E+02 0.  0.
          5    1    3    3  502    0  0.42382276782E+00  0.48395621229E+02  0.34765417592E+03  0.35103821987E+03  0.47000000000E+01 0. -1.
        -11    1    4    4    0    0 -0.56226975866E+02 -0.50725668459E+02  0.93183484132E+03  0.93490680699E+03  0.00000000000E+00 0.  1.
         12    1    4    4    0    0 -0.14562086767E+01 -0.47317247427E+02  0.19878132438E+03  0.20434054265E+03  0.00000000000E+00 0. -1.
         -5    1    5    5    0  501  0.20659909931E+02  0.27992119008E+02  0.65704899892E+03  0.65798622143E+03  0.47000000000E+01 0.  1.
         11    1    6    6    0    0  0.58173816452E+02  0.51283723940E+01  0.15133927158E+03  0.16221611587E+03  0.00000000000E+00 0. -1.
        -12    1    6    6    0    0 -0.21574364607E+02  0.16526803255E+02  0.37541530257E+02  0.46346034653E+02  0.00000000000E+00 0.  1.
</event>
<event>
12    1  0.1348628E-002  0.1900283E+03  0.7818608E-02  0.1158436E+00
          4   -1    0    0  502    0  0.00000000000E+00  0.00000000000E+00  0.19020792421E+03  0.19020792421E+03  0.00000000000E+00 0.  1.
         -4   -1    0    0    0  501 -0.00000000000E+00 -0.00000000000E+00 -0.18989056366E+03  0.18989056366E+03  0.00000000000E+00 0. -1.
          6    2    1    2  502    0  0.71110205690E+02  0.26487133678E+02  0.29543895667E+01  0.18970241668E+03  0.17383914654E+03 0.  0.
         24    2    3    3    0    0  0.14405368316E+02 -0.48947472216E+02  0.76349952818E+01  0.95098947301E+02  0.79888340527E+02 0.  0.
         -6    2    1    2    0  501 -0.71110205690E+02 -0.26487133678E+02 -0.26370290191E+01  0.19039607119E+03  0.17460091752E+03 0.  0.
        -24    2    5    5    0    0 -0.26038623411E+01  0.38665451694E+02  0.22861418927E+02  0.92364243162E+02  0.80664190852E+02 0.  0.
          5    1    3    3  502    0  0.56704837373E+02  0.75434605894E+02 -0.46806057151E+01  0.94603469375E+02  0.47000000000E+01 0. -1.
        -11    1    4    4    0    0 -0.12609784668E+01  0.18825497012E+02  0.16386930510E+02  0.24990416082E+02  0.00000000000E+00 0.  1.
         12    1    4    4    0    0  0.15666346783E+02 -0.67772969228E+02 -0.87519352281E+01  0.70108531219E+02  0.00000000000E+00 0. -1.
         -5    1    5    5    0  501 -0.68506343349E+02 -0.65152585371E+02 -0.25498447946E+02  0.98031828032E+02  0.47000000000E+01 0.  1.
         13    1    6    6    0    0  0.91171739989E+01  0.21724326708E+02 -0.28528363018E+02  0.36999144978E+02  0.00000000000E+00 0. -1.
        -14    1    6    6    0    0 -0.11721036340E+02  0.16941124985E+02  0.51389781944E+02  0.55365098184E+02  0.00000000000E+00 0.  1.
</event>
<event>
12    1  0.1348628E-002  0.4515638E+03  0.7818608E-02  0.1027257E+00
         -1   -1    0    0    0  501 -0.00000000000E+00  0.00000000000E+00  0.67460829986E+03  0.67460829986E+03  0.00000000000E+00 0. -1.
          1   -1    0    0  502    0  0.00000000000E+00 -0.00000000000E+00 -0.34699347013E+03  0.34699347013E+03  0.00000000000E+00 0.  1.
          6    2    1    2  502    0 -0.18121361853E+03 -0.37570949505E+03  0.34722669849E+03  0.56968959167E+03  0.17315845488E+03 0.  0.
         24    2    3    3    0    0 -0.12095853915E+03 -0.12416455556E+03  0.17259368305E+03  0.25756091427E+03  0.80630267751E+02 0.  0.
         -6    2    1    2    0  501  0.18121361853E+03  0.37570949505E+03 -0.19611868761E+02  0.45191217833E+03  0.17275413544E+03 0.  0.
        -24    2    5    5    0    0  0.57529547893E+02  0.70722045131E+02  0.42497206595E+01  0.12190224001E+03  0.80813609284E+02 0.  0.
          5    1    3    3  502    0 -0.60255079381E+02 -0.25154493949E+03  0.17463301544E+03  0.31212867740E+03  0.47000000000E+01 0. -1.
        -13    1    4    4    0    0 -0.65976861726E+02 -0.59212198260E+02  0.14146556580E+03  0.16694770742E+03  0.00000000000E+00 0.  1.
         14    1    4    4    0    0 -0.54981677424E+02 -0.64952357303E+02  0.31128117253E+02  0.90613206848E+02  0.00000000000E+00 0. -1.
         -5    1    5    5    0  501  0.12368407064E+03  0.30498744992E+03 -0.23861589420E+02  0.33000993832E+03  0.47000000000E+01 0.  1.
         11    1    6    6    0    0  0.63379959888E+02  0.71615401132E+02 -0.19350179850E+02  0.97571586309E+02  0.00000000000E+00 0. -1.
        -12    1    6    6    0    0 -0.58504119947E+01 -0.89335600072E+00  0.23599900510E+02  0.24330653701E+02  0.00000000000E+00 0.  1.
</event>
<event>
12    1  0.1348628E-002  0.2087424E+03  0.7818608E-02  0.1142566E+00
          2   -1    0    0  502    0  0.00000000000E+00  0.00000000000E+00  0.13063726054E+04  0.13063726054E+04  0.00000000000E+00 0.  1.
         -2   -1    0    0    0  501 -0.00000000000E+00 -0.00000000000E+00 -0.43299917050E+02  0.43299917050E+02  0.00000000000E+00 0. -1.
          6    2    1    2  502    0 -0.92467540761E+02  0.73195487996E+02  0.30702928667E+03  0.37100599268E+03  0.17167014353E+03 0.  0.
         24    2    3    3    0    0 -0.81461675414E+02  0.94420014682E+02  0.31323825739E+03  0.34586139242E+03  0.77141124828E+02 0.  0.
         -6    2    1    2    0  501  0.92467540761E+02 -0.73195487996E+02  0.95604340169E+03  0.97866652977E+03  0.17280441262E+03 0.  0.
        -24    2    5    5    0    0  0.81186197842E+02  0.12602442718E+02  0.67797932862E+03  0.68741016101E+03  0.78273489364E+02 0.  0.
          5    1    3    3  502    0 -0.11005865347E+02 -0.21224526686E+02 -0.62089707233E+01  0.25144600266E+02  0.47000000000E+01 0. -1.
        -13    1    4    4    0    0 -0.23401165823E+02  0.13803005539E+02  0.16620081365E+03  0.16840679316E+03  0.00000000000E+00 0.  1.
         14    1    4    4    0    0 -0.58060509592E+02  0.80617009144E+02  0.14703744373E+03  0.17745459926E+03  0.00000000000E+00 0. -1.
         -5    1    5    5    0  501  0.11281342919E+02 -0.85797930714E+02  0.27806407307E+03  0.29125636876E+03  0.47000000000E+01 0.  1.
         13    1    6    6    0    0 -0.15684196987E+02  0.17234505883E+01  0.80618105311E+02  0.82147691514E+02  0.00000000000E+00 0. -1.
        -14    1    6    6    0    0  0.96870394830E+02  0.10878992130E+02  0.59736122331E+03  0.60526246949E+03  0.00000000000E+00 0.  1.
</event>
<event>
12    1  0.1348628E-002  0.2005511E+03  0.7818608E-02  0.1149275E+00
         -2   -1    0    0    0  501 -0.00000000000E+00  0.00000000000E+00  0.18826339549E+02  0.18826339549E+02  0.00000000000E+00 0.  1.
          2   -1    0    0  502    0  0.00000000000E+00 -0.00000000000E+00 -0.21366568070E+04  0.21366568070E+04  0.00000000000E+00 0. -1.
          6    2    1    2  502    0 -0.95114650362E+02  0.36955284482E+02 -0.10467148220E+04  0.10657326528E+04  0.17251573559E+03 0.  0.
         24    2    3    3    0    0 -0.55152065683E+02  0.19374624038E+02 -0.26407014060E+03  0.28185710463E+03  0.79330081746E+02 0.  0.
         -6    2    1    2    0  501  0.95114650362E+02 -0.36955284482E+02 -0.10711156455E+04  0.10897504937E+04  0.17278577136E+03 0.  0.
        -24    2    5    5    0    0  0.72448878254E+01 -0.37865483446E+02 -0.79698810040E+03  0.80184438991E+03  0.79234526720E+02 0.  0.
          5    1    3    3  502    0 -0.39962584679E+02  0.17580660444E+02 -0.78264468136E+03  0.78387554819E+03  0.47000000000E+01 0. -1.
        -11    1    4    4    0    0 -0.67207842016E+01 -0.27800781779E+02 -0.53029009214E+02  0.60250545441E+02  0.00000000000E+00 0.  1.
         12    1    4    4    0    0 -0.48431281481E+02  0.47175405816E+02 -0.21104113139E+03  0.22160655919E+03  0.00000000000E+00 0. -1.
         -5    1    5    5    0  501  0.87869762536E+02  0.91019896486E+00 -0.27412754508E+03  0.28790610379E+03  0.47000000000E+01 0.  1.
         13    1    6    6    0    0  0.28124080286E+02 -0.81898950035E+01 -0.64190806531E+03  0.64257606754E+03  0.00000000000E+00 0. -1.
        -14    1    6    6    0    0 -0.20879192461E+02 -0.29675588443E+02 -0.15508003509E+03  0.15926832237E+03  0.00000000000E+00 0.  1.
</event>
<event>
12    1  0.1348628E-002  0.2745602E+03  0.7818608E-02  0.1098698E+00
         -2   -1    0    0    0  501 -0.00000000000E+00  0.00000000000E+00  0.19029329914E+03  0.19029329914E+03  0.00000000000E+00 0.  1.
          2   -1    0    0  502    0  0.00000000000E+00 -0.00000000000E+00 -0.81093944947E+03  0.81093944947E+03  0.00000000000E+00 0. -1.
          6    2    1    2  502    0  0.78107852102E+02 -0.20109898115E+03 -0.66791571088E+03  0.72184185951E+03  0.16853081772E+03 0.  0.
         24    2    3    3    0    0  0.87045659153E+02 -0.17477812494E+03 -0.65938973004E+03  0.69238928381E+03  0.80521826331E+02 0.  0.
         -6    2    1    2    0  501 -0.78107852102E+02  0.20109898115E+03  0.47269560552E+02  0.27939088909E+03  0.17112340802E+03 0.  0.
        -24    2    5    5    0    0 -0.10541227973E+03  0.83677622229E+02  0.31960131669E+02  0.15777766649E+03  0.75885761808E+02 0.  0.
          5    1    3    3  502    0 -0.89378070509E+01 -0.26320856208E+02 -0.85259808448E+01  0.29452575707E+02  0.47000000000E+01 0. -1.
        -11    1    4    4    0    0  0.45454582620E+02 -0.35186265121E+02 -0.11119436712E+03  0.12517339819E+03  0.00000000000E+00 0.  1.
         12    1    4    4    0    0  0.41591076533E+02 -0.13959185982E+03 -0.54819536292E+03  0.56721588562E+03  0.00000000000E+00 0. -1.
         -5    1    5    5    0  501  0.27304427632E+02  0.11742135892E+03  0.15309428883E+02  0.12161322260E+03  0.47000000000E+01 0.  1.
         13    1    6    6    0    0 -0.31119204545E+02 -0.83943797664E+01 -0.74448764999E+01  0.33080155520E+02  0.00000000000E+00 0. -1.
        -14    1    6    6    0    0 -0.74293075190E+02  0.92072001996E+02  0.39405008169E+02  0.12469751097E+03  0.00000000000E+00 0.  1.
</event>
<event>
12    1  0.1348628E-002  0.1738915E+03  0.7818608E-02  0.1173849E+00
         -1   -1    0    0    0  501 -0.00000000000E+00  0.00000000000E+00  0.11635554641E+03  0.11635554641E+03  0.00000000000E+00 0. -1.
          1   -1    0    0  502    0  0.00000000000E+00 -0.00000000000E+00 -0.33806095670E+03  0.33806095670E+03  0.00000000000E+00 0.  1.
          6    2    1    2  502    0 -0.23325790722E+02 -0.30385260151E+01 -0.16982546376E+01  0.17412561762E+03  0.17252107549E+03 0.  0.
         24    2    3    3    0    0 -0.79832448810E+02  0.16240607774E+02 -0.31256645669E+01  0.11421889924E+03  0.79995061978E+02 0.  0.
         -6    2    1    2    0  501  0.23325790722E+02  0.30385260151E+01 -0.22000715565E+03  0.28029088548E+03  0.17206541429E+03 0.  0.
        -24    2    5    5    0    0  0.41598562122E+02  0.53381864858E+02 -0.19353848717E+03  0.22036571254E+03  0.80770275365E+02 0.  0.
          5    1    3    3  502    0  0.56506658088E+02 -0.19279133789E+02  0.14274099293E+01  0.59906718380E+02  0.47000000000E+01 0. -1.
        -11    1    4    4    0    0  0.23932599293E+01 -0.19478580657E+02 -0.13721129893E+02  0.23946026874E+02  0.00000000000E+00 0.  1.
         12    1    4    4    0    0 -0.82225708739E+02  0.35719188431E+02  0.10595465326E+02  0.90272872366E+02  0.00000000000E+00 0. -1.
         -5    1    5    5    0  501 -0.18272771400E+02 -0.50343338843E+02 -0.26468668480E+02  0.59925172938E+02  0.47000000000E+01 0.  1.
         13    1    6    6    0    0 -0.10267568356E+02  0.16324213978E+02 -0.30878497225E+01  0.19530431072E+02  0.00000000000E+00 0. -1.
        -14    1    6    6    0    0  0.51866130478E+02  0.37057650880E+02 -0.19045063745E+03  0.20083528147E+03  0.00000000000E+00 0.  1.
</event>
<event>
12    1  0.1348628E-002  0.2051955E+03  0.7818608E-02  0.1145428E+00
         -2   -1    0    0    0  501 -0.00000000000E+00  0.00000000000E+00  0.21431465087E+03  0.21431465087E+03  0.00000000000E+00 0. -1.
          2   -1    0    0  502    0  0.00000000000E+00 -0.00000000000E+00 -0.20138389526E+03  0.20138389526E+03  0.00000000000E+00 0.  1.
          6    2    1    2  502    0 -0.11177616461E+03  0.34639807671E+01  0.38955111708E+02  0.20898321845E+03  0.17219342243E+03 0.  0.
         24    2    3    3    0    0 -0.13147155443E+03  0.11670922240E+01  0.69701703224E+02  0.17209654109E+03  0.86445128804E+02 0.  0.
         -6    2    1    2    0  501  0.11177616461E+03 -0.34639807671E+01 -0.26024356093E+02  0.20671532768E+03  0.17189546082E+03 0.  0.
        -24    2    5    5    0    0  0.13762770992E+03  0.19385584554E+02 -0.45968741816E+02  0.16658711376E+03  0.79504426408E+02 0.  0.
          5    1    3    3  502    0  0.19695389818E+02  0.22968885431E+01 -0.30746591515E+02  0.36886677363E+02  0.47000000000E+01 0. -1.
        -11    1    4    4    0    0 -0.89208503193E+02 -0.28221073971E+02  0.11298524443E+02  0.94245650895E+02  0.00000000000E+00 0.  1.
         12    1    4    4    0    0 -0.42263051232E+02  0.29388166195E+02  0.58403178781E+02  0.77850890190E+02  0.00000000000E+00 0. -1.
         -5    1    5    5    0  501 -0.25851545317E+02 -0.22849565321E+02  0.19944385723E+02  0.40128213921E+02  0.47000000000E+01 0.  1.
         11    1    6    6    0    0 -0.48654821305E+01 -0.21845199678E+01  0.10520328209E+02  0.11795013755E+02  0.00000000000E+00 0. -1.
        -12    1    6    6    0    0  0.14249319205E+03  0.21570104522E+02 -0.56489070025E+02  0.15479210000E+03  0.00000000000E+00 0.  1.
</event>
<event>
12    1  0.1348628E-002  0.2037604E+03  0.7818608E-02  0.1146605E+00
         -2   -1    0    0    0  501 -0.00000000000E+00  0.00000000000E+00  0.30392902480E+02  0.30392902480E+02  0.00000000000E+00 0.  1.
          2   -1    0    0  502    0  0.00000000000E+00 -0.00000000000E+00 -0.14997554049E+04  0.14997554049E+04  0.00000000000E+00 0. -1.
          6    2    1    2  502    0  0.10996972466E+03 -0.23218409302E+02 -0.50151417169E+03  0.54078075207E+03  0.16821094651E+03 0.  0.
         24    2    3    3    0    0  0.48853545788E+02  0.48811999876E+02 -0.21147863638E+03  0.23571310562E+03  0.77898486808E+02 0.  0.
         -6    2    1    2    0  501 -0.10996972466E+03  0.23218409302E+02 -0.96784833071E+03  0.98936755529E+03  0.17171293876E+03 0.  0.
        -24    2    5    5    0    0 -0.14137032363E+03  0.12459255648E+02 -0.88629066092E+03  0.90118875680E+03  0.80555808557E+02 0.  0.
          5    1    3    3  502    0  0.61116178877E+02 -0.72030409178E+02 -0.29003553531E+03  0.30506764644E+03  0.47000000000E+01 0. -1.
        -11    1    4    4    0    0  0.61871781905E+02  0.16506772079E+02 -0.16934199171E+03  0.18104502500E+03  0.00000000000E+00 0.  1.
         12    1    4    4    0    0 -0.13018236117E+02  0.32305227797E+02 -0.42136644676E+02  0.54668080625E+02  0.00000000000E+00 0. -1.
         -5    1    5    5    0  501  0.31400598964E+02  0.10759153654E+02 -0.81557669786E+02  0.88178798492E+02  0.47000000000E+01 0.  1.
         13    1    6    6    0    0 -0.34274831867E+02  0.38423431904E+02 -0.34205858898E+03  0.34591213121E+03  0.00000000000E+00 0. -1.
        -14    1    6    6    0    0 -0.10709549176E+03 -0.25964176256E+02 -0.54423207194E+03  0.55527662559E+03  0.00000000000E+00 0.  1.
</event>
<event>
12    1  0.1348628E-002  0.2423456E+03  0.7818608E-02  0.1118240E+00
          2   -1    0    0  502    0  0.00000000000E+00  0.00000000000E+00  0.12910604936E+04  0.12910604936E+04  0.00000000000E+00 0.  1.
         -2   -1    0    0    0  501 -0.00000000000E+00 -0.00000000000E+00 -0.45951496838E+02  0.45951496838E+02  0.00000000000E+00 0. -1.
          6    2    1    2  502    0 -0.14605727428E+03  0.83166461650E+02  0.56230540970E+03  0.61330096723E+03  0.17804863076E+03 0.  0.
         24    2    3    3    0    0 -0.12220635711E+03  0.37320246316E+02  0.53248980127E+03  0.55345280756E+03  0.80233579185E+02 0.  0.
         -6    2    1    2    0  501  0.14605727428E+03 -0.83166461650E+02  0.68280358711E+03  0.72371102326E+03  0.17113596611E+03 0.  0.
        -24    2    5    5    0    0  0.19440592155E+01 -0.16745217097E+02  0.19123545732E+03  0.20714378010E+03  0.77803366459E+02 0.  0.
          5    1    3    3  502    0 -0.23850917171E+02  0.45846215334E+02  0.29815608422E+02  0.59848159670E+02  0.47000000000E+01 0. -1.
        -13    1    4    4    0    0 -0.11464709845E+03  0.33492997421E+02  0.33280989126E+03  0.35359321512E+03  0.00000000000E+00 0.  1.
         14    1    4    4    0    0 -0.75592586602E+01  0.38272488945E+01  0.19967991001E+03  0.19985959243E+03  0.00000000000E+00 0. -1.
         -5    1    5    5    0  501  0.14411321506E+03 -0.66421244552E+02  0.49156812979E+03  0.51656724316E+03  0.47000000000E+01 0.  1.
         11    1    6    6    0    0  0.18910135577E+02 -0.43448621693E+02  0.12668917056E+03  0.13526094000E+03  0.00000000000E+00 0. -1.
        -12    1    6    6    0    0 -0.16966076362E+02  0.26703404596E+02  0.64546286769E+02  0.71882840093E+02  0.00000000000E+00 0.  1.
</event>
<event>
12    1  0.1348628E-002  0.1910367E+03  0.7818608E-02  0.1157530E+00
         -4   -1    0    0    0  501 -0.00000000000E+00  0.00000000000E+00  0.49466272257E+03  0.49466272257E+03  0.00000000000E+00 0.  1.
          4   -1    0    0  502    0  0.00000000000E+00 -0.00000000000E+00 -0.94787830333E+02  0.94787830333E+02  0.00000000000E+00 0. -1.
          6    2    1    2  502    0  0.86827016460E+01  0.80752389334E+02  0.60334396975E+02  0.19934065600E+03  0.17175598966E+03 0.  0.
         24    2    3    3    0    0 -0.49705765952E+02  0.67796311323E+02  0.54006562327E+02  0.13901483568E+03  0.96650984301E+02 0.  0.
         -6    2    1    2    0  501 -0.86827016460E+01 -0.80752389334E+02  0.33954049527E+03  0.39010989691E+03  0.17407367995E+03 0.  0.
        -24    2    5    5    0    0  0.13439193599E+01 -0.12324875368E+03  0.21586812255E+03  0.25887186933E+03  0.72274040912E+02 0.  0.
          5    1    3    3  502    0  0.58388467598E+02  0.12956078010E+02  0.63278346479E+01  0.60325820319E+02  0.47000000000E+01 0. -1.
        -11    1    4    4    0    0 -0.47714810712E+02 -0.10893184247E+02  0.26335650831E+02  0.55578153343E+02  0.00000000000E+00 0.  1.
         12    1    4    4    0    0 -0.19909552394E+01  0.78689495571E+02  0.27670911496E+02  0.83436682335E+02  0.00000000000E+00 0. -1.
         -5    1    5    5    0  501 -0.10026621006E+02  0.42496364351E+02  0.12367237271E+03  0.13123802758E+03  0.47000000000E+01 0.  1.
         13    1    6    6    0    0 -0.21103911424E+02 -0.48865237050E+01  0.43243814693E+02  0.48366111075E+02  0.00000000000E+00 0. -1.
        -14    1    6    6    0    0  0.22447830784E+02 -0.11836222998E+03  0.17262430786E+03  0.21050575825E+03  0.00000000000E+00 0.  1.
</event>
<event>
12    1  0.1348628E-002  0.1963881E+03  0.7818608E-02  0.1152823E+00
         -2   -1    0    0    0  501 -0.00000000000E+00  0.00000000000E+00  0.38801682381E+02  0.38801682381E+02  0.00000000000E+00 0. -1.
          2   -1    0    0  502    0  0.00000000000E+00 -0.00000000000E+00 -0.12236112795E+04  0.12236112795E+04  0.00000000000E+00 0.  1.
          6    2    1    2  502    0 -0.31904230031E+02 -0.86672205928E+02 -0.86244454839E+03  0.88421898772E+03  0.17176340710E+03 0.  0.
         24    2    3    3    0    0  0.44892015284E+02 -0.28890162744E+02 -0.50611563518E+03  0.51512711271E+03  0.79705530126E+02 0.  0.
         -6    2    1    2    0  501  0.31904230031E+02  0.86672205928E+02 -0.32236504877E+03  0.37819397420E+03  0.17487568808E+03 0.  0.
        -24    2    5    5    0    0  0.49855897438E+02  0.35032707071E+02 -0.75949496814E+02  0.12574276218E+03  0.79561392027E+02 0.  0.
          5    1    3    3  502    0 -0.76796245315E+02 -0.57782043184E+02 -0.35632891321E+03  0.36909187501E+03  0.47000000000E+01 0. -1.
        -11    1    4    4    0    0  0.66094976911E+01 -0.50479970681E+02 -0.30947625629E+03  0.31363588141E+03  0.00000000000E+00 0.  1.
         12    1    4    4    0    0  0.38282517592E+02  0.21589807937E+02 -0.19663937889E+03  0.20149123130E+03  0.00000000000E+00 0. -1.
         -5    1    5    5    0  501 -0.17951667407E+02  0.51639498856E+02 -0.24641555196E+03  0.25245121202E+03  0.47000000000E+01 0.  1.
         13    1    6    6    0    0 -0.16878638616E+02  0.23064142424E+01  0.30143914112E+01  0.17300131322E+02  0.00000000000E+00 0. -1.
        -14    1    6    6    0    0  0.66734536053E+02  0.32726292829E+02 -0.78963888225E+02  0.10844263086E+03  0.00000000000E+00 0.  1.
</event>
<event>
12    1  0.1348628E-002  0.2829873E+03  0.7818608E-02  0.1094068E+00
         -2   -1    0    0    0  501 -0.00000000000E+00  0.00000000000E+00  0.22094450348E+03  0.22094450348E+03  0.00000000000E+00 0. -1.
          2   -1    0    0  502    0  0.00000000000E+00 -0.00000000000E+00 -0.40603924905E+03  0.40603924905E+03  0.00000000000E+00 0.  1.
          6    2    1    2  502    0  0.21644903641E+03 -0.61872543480E+02 -0.19532953725E+03  0.34405300787E+03  0.17187334610E+03 0.  0.
         24    2    3    3    0    0  0.18531266677E+03 -0.29132994114E+02 -0.21313659569E+03  0.29526230242E+03  0.81012980429E+02 0.  0.
         -6    2    1    2    0  501 -0.21644903641E+03  0.61872543480E+02  0.10234791686E+02  0.28293074467E+03  0.17107500786E+03 0.  0.
        -24    2    5    5    0    0 -0.15531634716E+03  0.72076497646E+02 -0.50966928238E+02  0.19570077907E+03  0.79893541332E+02 0.  0.
          5    1    3    3  502    0  0.31136369647E+02 -0.32739549367E+02  0.17807058442E+02  0.48790705446E+02  0.47000000000E+01 0. -1.
        -11    1    4    4    0    0  0.33261624310E+02 -0.21046548932E+02 -0.94062035723E+02  0.10196548160E+03  0.00000000000E+00 0.  1.
         12    1    4    4    0    0  0.15205104246E+03 -0.80864451815E+01 -0.11907455997E+03  0.19329682082E+03  0.00000000000E+00 0. -1.
         -5    1    5    5    0  501 -0.61132689250E+02 -0.10203954166E+02  0.61201719924E+02  0.87229965592E+02  0.47000000000E+01 0.  1.
         13    1    6    6    0    0  0.38420418892E+01  0.21604445389E+02 -0.47271637337E+01  0.22446813213E+02  0.00000000000E+00 0. -1.
        -14    1    6    6    0    0 -0.15915838905E+03  0.50472052257E+02 -0.46239764504E+02  0.17325396586E+03  0.00000000000E+00 0.  1.
</event>
<event>
12    1  0.1348628E-002  0.1780593E+03  0.7818608E-02  0.1169695E+00
          2   -1    0    0  502    0  0.00000000000E+00  0.00000000000E+00  0.43486253164E+02  0.43486253164E+02  0.00000000000E+00 0.  1.
         -2   -1    0    0    0  501 -0.00000000000E+00 -0.00000000000E+00 -0.72923426904E+03  0.72923426904E+03  0.00000000000E+00 0. -1.
          6    2    1    2  502    0  0.27113469506E+02 -0.35862821333E+02 -0.33805409313E+03  0.38224456674E+03  0.17265299515E+03 0.  0.
         24    2    3    3    0    0  0.44081762269E+02 -0.43565629515E+02 -0.34669788286E+03  0.36117180436E+03  0.80028022879E+02 0.  0.
         -6    2    1    2    0  501 -0.27113469506E+02  0.35862821333E+02 -0.34769392275E+03  0.39047595547E+03  0.17192767579E+03 0.  0.
        -24    2    5    5    0    0  0.28007440536E+02 -0.23373474751E+02 -0.24206155093E+03  0.25733114155E+03  0.79339686959E+02 0.  0.
          5    1    3    3  502    0 -0.16968292763E+02  0.77028081820E+01  0.86437897305E+01  0.21072762374E+02  0.47000000000E+01 0. -1.
        -11    1    4    4    0    0  0.49515595097E+02  0.72004053863E+01 -0.16251251775E+03  0.17004104923E+03  0.00000000000E+00 0.  1.
         12    1    4    4    0    0 -0.54338328276E+01 -0.50766034902E+02 -0.18418536511E+03  0.19113075514E+03  0.00000000000E+00 0. -1.
         -5    1    5    5    0  501 -0.55120910043E+02  0.59236296084E+02 -0.10563237182E+03  0.13314481392E+03  0.47000000000E+01 0.  1.
         11    1    6    6    0    0  0.12346963758E+01 -0.17828232713E+02 -0.22366359169E+03  0.22437640830E+03  0.00000000000E+00 0. -1.
        -12    1    6    6    0    0  0.26772744161E+02 -0.55452420376E+01 -0.18397959240E+02  0.32954733246E+02  0.00000000000E+00 0.  1.
</event>
<event>
12    1  0.1348628E-002  0.2911974E+03  0.7818608E-02  0.1089726E+00
         -2   -1    0    0    0  501 -0.00000000000E+00  0.00000000000E+00  0.55696470530E+02  0.55696470530E+02  0.00000000000E+00 0. -1.
          2   -1    0    0  502    0  0.00000000000E+00 -0.00000000000E+00 -0.16924798607E+04  0.16924798607E+04  0.00000000000E+00 0.  1.
          6    2    1    2  502    0  0.77033179399E+02  0.22174053211E+03 -0.10950975072E+04  0.11331188354E+04  0.17209523689E+03 0.  0.
         24    2    3    3    0    0  0.23447204543E+02  0.10696407972E+03 -0.81637495683E+03  0.82692699879E+03  0.73137578808E+02 0.  0.
         -6    2    1    2    0  501 -0.77033179399E+02 -0.22174053211E+03 -0.54168588299E+03  0.61505749584E+03  0.17253739611E+03 0.  0.
        -24    2    5    5    0    0 -0.10029002308E+03 -0.96823138985E+02 -0.34833089859E+03  0.38364125641E+03  0.80083642103E+02 0.  0.
          5    1    3    3  502    0  0.53585974856E+02  0.11477645239E+03 -0.27872255036E+03  0.30619183660E+03  0.47000000000E+01 0. -1.
        -13    1    4    4    0    0  0.28969106250E+02  0.11448287424E+03 -0.67559288251E+03  0.68583619073E+03  0.00000000000E+00 0.  1.
         14    1    4    4    0    0 -0.55219017071E+01 -0.75187945242E+01 -0.14078207432E+03  0.14109080806E+03  0.00000000000E+00 0. -1.
         -5    1    5    5    0  501  0.23256843685E+02 -0.12491739312E+03 -0.19335498440E+03  0.23141623943E+03  0.47000000000E+01 0.  1.
         11    1    6    6    0    0 -0.58178401555E+02 -0.98508405460E+02 -0.28938172432E+03  0.31117585819E+03  0.00000000000E+00 0. -1.
        -12    1    6    6    0    0 -0.42111621529E+02  0.16852664744E+01 -0.58949174273E+02  0.72465398215E+02  0.00000000000E+00 0.  1.
</event>
<event>
12    1  0.1348628E-002  0.1912641E+03  0.7818608E-02  0.1157326E+00
         -1   -1    0    0    0  501 -0.00000000000E+00  0.00000000000E+00  0.36828508152E+02  0.36828508152E+02  0.00000000000E+00 0. -1.
          1   -1    0    0  502    0  0.00000000000E+00 -0.00000000000E+00 -0.13922091313E+04  0.13922091313E+04  0.00000000000E+00 0.  1.
          6    2    1    2  502    0  0.75770921043E+02 -0.36244155744E+02 -0.29587393111E+03  0.35245133068E+03  0.17212113782E+03 0.  0.
         24    2    3    3    0    0  0.10187438482E+03 -0.60199265134E+02 -0.17868375222E+03  0.22993249084E+03  0.83299010993E+02 0.  0.
         -6    2    1    2    0  501 -0.75770921043E+02  0.36244155744E+02 -0.10595066921E+04  0.10765863088E+04  0.17154818117E+03 0.  0.
        -24    2    5    5    0    0 -0.96501596897E+02  0.23139962658E+02 -0.48464604155E+03  0.50118354698E+03  0.80343923848E+02 0.  0.
          5    1    3    3  502    0 -0.26103463774E+02  0.23955109390E+02 -0.11719017889E+03  0.12251883984E+03  0.47000000000E+01 0. -1.
        -13    1    4    4    0    0  0.41107510567E+02  0.11759764391E+02 -0.94033262949E+02  0.10329750251E+03  0.00000000000E+00 0.  1.
         14    1    4    4    0    0  0.60766874250E+02 -0.71959029525E+02 -0.84650489271E+02  0.12663498833E+03  0.00000000000E+00 0. -1.
         -5    1    5    5    0  501  0.20730675854E+02  0.13104193085E+02 -0.57486065051E+03  0.57540276181E+03  0.47000000000E+01 0.  1.
         11    1    6    6    0    0 -0.49165472063E+01  0.15876650063E+02 -0.14229735699E+02  0.21879804197E+02  0.00000000000E+00 0. -1.
        -12    1    6    6    0    0 -0.91585049691E+02  0.72633125959E+01 -0.47041630585E+03  0.47930374278E+03  0.00000000000E+00 0.  1.
</event>
<event>
12    1  0.1348628E-002  0.1952837E+03  0.7818608E-02  0.1153780E+00
         -2   -1    0    0    0  501 -0.00000000000E+00  0.00000000000E+00  0.28256790362E+02  0.28256790362E+02  0.00000000000E+00 0.  1.
          2   -1    0    0  502    0  0.00000000000E+00 -0.00000000000E+00 -0.15920480159E+04  0.15920480159E+04  0.00000000000E+00 0. -1.
          6    2    1    2  502    0 -0.20336661436E+02 -0.90640306312E+02 -0.10951037743E+04  0.11122291685E+04  0.17079871736E+03 0.  0.
         24    2    3    3    0    0 -0.38108151671E+02 -0.14840457935E+02 -0.31683666574E+03  0.33006344108E+03  0.82969464070E+02 0.  0.
         -6    2    1    2    0  501  0.20336661436E+02  0.90640306312E+02 -0.46868745119E+03  0.50807563771E+03  0.17275323964E+03 0.  0.
        -24    2    5    5    0    0  0.80829602857E+02  0.57838473013E+02 -0.30935925930E+03  0.33445847565E+03  0.79250280535E+02 0.  0.
          5    1    3    3  502    0  0.17771490235E+02 -0.75799848377E+02 -0.77826710858E+03  0.78216572744E+03  0.47000000000E+01 0. -1.
        -11    1    4    4    0    0  0.10730356638E+02 -0.36952348754E+02 -0.11728593316E+03  0.12343665075E+03  0.00000000000E+00 0.  1.
         12    1    4    4    0    0 -0.48838508309E+02  0.22111890819E+02 -0.19955073258E+03  0.20662679033E+03  0.00000000000E+00 0. -1.
         -5    1    5    5    0  501 -0.60492941421E+02  0.32801833299E+02 -0.15932819189E+03  0.17361716206E+03  0.47000000000E+01 0.  1.
         13    1    6    6    0    0  0.25836135445E+02 -0.19240958544E+02 -0.70243897338E+02  0.77278234282E+02  0.00000000000E+00 0. -1.
        -14    1    6    6    0    0  0.54993467412E+02  0.77079431557E+02 -0.23911536196E+03  0.25718024137E+03  0.00000000000E+00 0.  1.
</event>
<event>
12    1  0.1348628E-002  0.1805555E+03  0.7818608E-02  0.1167267E+00
         -1   -1    0    0    0  501 -0.00000000000E+00  0.00000000000E+00  0.75867287255E+02  0.75867287255E+02  0.00000000000E+00 0.  1.
          1   -1    0    0  502    0  0.00000000000E+00 -0.00000000000E+00 -0.71338201656E+03  0.71338201656E+03  0.00000000000E+00 0. -1.
          6    2    1    2  502    0  0.29592011724E+02 -0.53860690648E+02 -0.70383142960E+02  0.19420488966E+03  0.17025008429E+03 0.  0.
         24    2    3    3    0    0  0.71219797028E+02 -0.27964915634E+00 -0.16908547194E+02  0.10768655109E+03  0.78982001909E+02 0.  0.
         -6    2    1    2    0  501 -0.29592011724E+02  0.53860690648E+02 -0.56713158634E+03  0.59504441415E+03  0.16930138047E+03 0.  0.
        -24    2    5    5    0    0 -0.60257441388E+02  0.30348194359E+02 -0.53323918619E+03  0.54343055122E+03  0.80129658479E+02 0.  0.
          5    1    3    3  502    0 -0.41627785305E+02 -0.53581041492E+02 -0.53474595766E+02  0.86518338571E+02  0.47000000000E+01 0. -1.
        -11    1    4    4    0    0  0.37910743189E+02 -0.23819846872E+02 -0.40666140337E+02  0.60484250215E+02  0.00000000000E+00 0.  1.
         12    1    4    4    0    0  0.33309053839E+02  0.23540197716E+02  0.23757593143E+02  0.47202300877E+02  0.00000000000E+00 0. -1.
         -5    1    5    5    0  501  0.30665429665E+02  0.23512496289E+02 -0.33892400149E+02  0.51613862926E+02  0.47000000000E+01 0.  1.
         11    1    6    6    0    0  0.62177736668E+01  0.10192550252E+02 -0.29575331131E+03  0.29599420593E+03  0.00000000000E+00 0. -1.
        -12    1    6    6    0    0 -0.66475215055E+02  0.20155644107E+02 -0.23748587488E+03  0.24743634529E+03  0.00000000000E+00 0.  1.
</event>
<event>
12    1  0.1348628E-002  0.1758032E+03  0.7818608E-02  0.1171928E+00
         -2   -1    0    0    0  501 -0.00000000000E+00  0.00000000000E+00  0.12511160372E+03  0.12511160372E+03  0.00000000000E+00 0.  1.
          2   -1    0    0  502    0  0.00000000000E+00 -0.00000000000E+00 -0.25033113634E+03  0.25033113634E+03  0.00000000000E+00 0. -1.
          6    2    1    2  502    0 -0.12648409951E+02 -0.35191947653E+02 -0.84262991712E+02  0.19523731075E+03  0.17210142441E+03 0.  0.
         24    2    3    3    0    0  0.59077345788E+02 -0.22880569745E+02 -0.51065687504E+02  0.11511050457E+03  0.81419104420E+02 0.  0.
         -6    2    1    2    0  501  0.12648409951E+02  0.35191947653E+02 -0.40956540907E+02  0.18020542930E+03  0.17145875030E+03 0.  0.
        -24    2    5    5    0    0  0.28084075398E+02  0.85089811566E+02 -0.43755627265E+02  0.12768894165E+03  0.79755373357E+02 0.  0.
          5    1    3    3  502    0 -0.71725755738E+02 -0.12311377908E+02 -0.33197304209E+02  0.80126806182E+02  0.47000000000E+01 0. -1.
        -13    1    4    4    0    0  0.70797550781E+02 -0.17220232713E+01 -0.56170214613E+02  0.90389997070E+02  0.00000000000E+00 0.  1.
         14    1    4    4    0    0 -0.11720204993E+02 -0.21158546474E+02  0.51045271090E+01  0.24720507498E+02  0.00000000000E+00 0. -1.
         -5    1    5    5    0  501 -0.15435665448E+02 -0.49897863913E+02  0.27990863577E+01  0.52516487652E+02  0.47000000000E+01 0.  1.
         13    1    6    6    0    0 -0.36646532108E+01  0.18227150946E+02 -0.50062384929E+02  0.53403193720E+02  0.00000000000E+00 0. -1.
        -14    1    6    6    0    0  0.31748728609E+02  0.66862660620E+02  0.63067576639E+01  0.74285747931E+02  0.00000000000E+00 0.  1.
</event>
<event>
12    1  0.1348628E-002  0.2004962E+03  0.7818608E-02  0.1149321E+00
          2   -1    0    0  502    0  0.00000000000E+00  0.00000000000E+00  0.21740059304E+04  0.21740059304E+04  0.00000000000E+00 0. -1.
         -2   -1    0    0    0  501 -0.00000000000E+00 -0.00000000000E+00 -0.18902110785E+02  0.18902110785E+02  0.00000000000E+00 0.  1.
          6    2    1    2  502    0  0.89810763634E+02  0.50319635383E+02  0.12409404319E+04  0.12570822105E+04  0.17240791560E+03 0.  0.
         24    2    3    3    0    0  0.12438464330E+03  0.49719949539E+02  0.85028675152E+03  0.86487295410E+03  0.84107395953E+02 0.  0.
         -6    2    1    2    0  501 -0.89810763634E+02 -0.50319635383E+02  0.91416338770E+03  0.93582583071E+03  0.17168939118E+03 0.  0.
        -24    2    5    5    0    0 -0.74412223675E+02  0.36582946268E+02  0.47590294488E+03  0.48874252810E+03  0.74230417221E+02 0.  0.
          5    1    3    3  502    0 -0.34573879671E+02  0.59968584423E+00  0.39065368038E+03  0.39220925636E+03  0.47000000000E+01 0. -1.
        -11    1    4    4    0    0 -0.96177737685E+01  0.13714752883E+02  0.15302352831E+03  0.15393763748E+03  0.00000000000E+00 0.  1.
         12    1    4    4    0    0  0.13400241707E+03  0.36005196655E+02  0.69726322321E+03  0.71093531661E+03  0.00000000000E+00 0. -1.
         -5    1    5    5    0  501 -0.15398539959E+02 -0.86902581650E+02  0.43826044282E+03  0.44708330261E+03  0.47000000000E+01 0.  1.
         13    1    6    6    0    0 -0.78843709009E+02  0.11094557692E+02  0.41506032365E+03  0.42262807754E+03  0.00000000000E+00 0. -1.
        -14    1    6    6    0    0  0.44314853347E+01  0.25488388575E+02  0.60842621231E+02  0.66114450559E+02  0.00000000000E+00 0.  1.
</event>
<event>
12    1  0.1348628E-002  0.2697385E+03  0.7818608E-02  0.1101429E+00
         -1   -1    0    0    0  501 -0.00000000000E+00  0.00000000000E+00  0.21435969109E+03  0.21435969109E+03  0.00000000000E+00 0. -1.
          1   -1    0    0  502    0  0.00000000000E+00 -0.00000000000E+00 -0.51888558605E+03  0.51888558605E+03  0.00000000000E+00 0.  1.
          6    2    1    2  502    0 -0.13477878907E+03  0.15877538875E+03  0.63520506698E+02  0.27665797843E+03  0.17067465015E+03 0.  0.
         24    2    3    3    0    0 -0.32246442193E+02  0.13597071724E+02 -0.67868315110E+01  0.85464783741E+02  0.77675316442E+02 0.  0.
         -6    2    1    2    0  501  0.13477878907E+03 -0.15877538875E+03 -0.36804640166E+03  0.45658729870E+03  0.17215940725E+03 0.  0.
        -24    2    5    5    0    0  0.19926055024E+02 -0.29024172787E+02 -0.70493482830E+02  0.11222359843E+03  0.79908414126E+02 0.  0.
          5    1    3    3  502    0 -0.10253234687E+03  0.14517831703E+03  0.70307338209E+02  0.19119319469E+03  0.47000000000E+01 0. -1.
        -11    1    4    4    0    0 -0.70158617657E+01  0.41866524579E+02 -0.17761424471E+02  0.46016262298E+02  0.00000000000E+00 0.  1.
         12    1    4    4    0    0 -0.25230580427E+02 -0.28269452854E+02  0.10974592960E+02  0.39448521443E+02  0.00000000000E+00 0. -1.
         -5    1    5    5    0  501  0.11485273404E+03 -0.12975121597E+03 -0.29755291883E+03  0.34436370027E+03  0.47000000000E+01 0.  1.
         13    1    6    6    0    0  0.21589158889E+02  0.20518136291E+02 -0.51827701697E+01  0.30231553136E+02  0.00000000000E+00 0. -1.
        -14    1    6    6    0    0 -0.16631038648E+01 -0.49542309078E+02 -0.65310712660E+02  0.81992045294E+02  0.00000000000E+00 0.  1.
</event>
<event>
12    1  0.1348628E-002  0.2579044E+03  0.7818608E-02  0.1108409E+00
          1   -1    0    0  502    0  0.00000000000E+00  0.00000000000E+00  0.55695814381E+03  0.55695814381E+03  0.00000000000E+00 0. -1.
         -1   -1    0    0    0  501 -0.00000000000E+00 -0.00000000000E+00 -0.12047550247E+03  0.12047550247E+03  0.00000000000E+00 0.  1.
          6    2    1    2  502    0  0.33043332120E+02  0.19280875599E+03  0.18839048591E+03  0.32100028916E+03  0.17112314944E+03 0.  0.
         24    2    3    3    0    0 -0.21386167187E+02  0.13289113598E+03  0.57163152603E+02  0.16674272990E+03  0.80112981394E+02 0.  0.
         -6    2    1    2    0  501 -0.33043332120E+02 -0.19280875599E+03  0.24809215543E+03  0.35643335712E+03  0.16500891581E+03 0.  0.
        -24    2    5    5    0    0 -0.44043997056E+02 -0.21244580621E+03  0.23504026249E+03  0.32999341991E+03  0.81108803092E+02 0.  0.
          5    1    3    3  502    0  0.54429499307E+02  0.59917620009E+02  0.13122733331E+03  0.15425755926E+03  0.47000000000E+01 0. -1.
        -11    1    4    4    0    0 -0.21845494203E+02 -0.14943454612E+01  0.41965571050E+01  0.22295061715E+02  0.00000000000E+00 0.  1.
         12    1    4    4    0    0  0.45932701620E+00  0.13438548145E+03  0.52966595498E+02  0.14444766818E+03  0.00000000000E+00 0. -1.
         -5    1    5    5    0  501  0.11000664936E+02  0.19637050218E+02  0.13051892935E+02  0.26439937206E+02  0.47000000000E+01 0.  1.
         11    1    6    6    0    0 -0.39038954057E+02 -0.39363605241E+02  0.81503998755E+02  0.98571979612E+02  0.00000000000E+00 0. -1.
        -12    1    6    6    0    0 -0.50050429991E+01 -0.17308220097E+03  0.15353626374E+03  0.23142144030E+03  0.00000000000E+00 0.  1.
</event>
<event>
12    1  0.1348628E-002  0.2075399E+03  0.7818608E-02  0.1143529E+00
          1   -1    0    0  502    0  0.00000000000E+00  0.00000000000E+00  0.15254473690E+04  0.15254473690E+04  0.00000000000E+00 0.  1.
         -1   -1    0    0    0  501 -0.00000000000E+00 -0.00000000000E+00 -0.30053151862E+02  0.30053151862E+02  0.00000000000E+00 0. -1.
          6    2    1    2  502    0 -0.73501100140E+02  0.89646476241E+02  0.55698003264E+03  0.59444356766E+03  0.17232961422E+03 0.  0.
         24    2    3    3    0    0 -0.10966609026E+03  0.10183388928E+03  0.44711253390E+03  0.47804169126E+03  0.78850797441E+02 0.  0.
         -6    2    1    2    0  501  0.73501100140E+02 -0.89646476241E+02  0.93841418452E+03  0.96105695323E+03  0.17196041179E+03 0.  0.
        -24    2    5    5    0    0  0.59090455021E+02 -0.41965788832E+01  0.70780329166E+03  0.71465722605E+03  0.78994670123E+02 0.  0.
          5    1    3    3  502    0  0.36164990123E+02 -0.12187413037E+02  0.10986749875E+03  0.11640187639E+03  0.47000000000E+01 0. -1.
        -13    1    4    4    0    0 -0.36428670195E+02 -0.69528289929E+01  0.79143300884E+02  0.87401669996E+02  0.00000000000E+00 0.  1.
         14    1    4    4    0    0 -0.73237420068E+02  0.10878671827E+03  0.36796923301E+03  0.39064002127E+03  0.00000000000E+00 0. -1.
         -5    1    5    5    0  501  0.14410645120E+02 -0.85449897357E+02  0.23061089286E+03  0.24639972718E+03  0.47000000000E+01 0.  1.
         13    1    6    6    0    0  0.42139215031E+02  0.28574808532E+02  0.23683110237E+03  0.24224203635E+03  0.00000000000E+00 0. -1.
        -14    1    6    6    0    0  0.16951239989E+02 -0.32771387415E+02  0.47097218929E+03  0.47241518970E+03  0.00000000000E+00 0.  1.
</event>
<event>
12    1  0.1348628E-002  0.2120812E+03  0.7818608E-02  0.1139928E+00
         -2   -1    0    0    0  501 -0.00000000000E+00  0.00000000000E+00  0.10806092117E+03  0.10806092117E+03  0.00000000000E+00 0. -1.
          2   -1    0    0  502    0  0.00000000000E+00 -0.00000000000E+00 -0.63200044372E+03  0.63200044372E+03  0.00000000000E+00 0.  1.
          6    2    1    2  502    0 -0.58465796090E+02 -0.10932937826E+03 -0.44768119830E+02  0.21555264047E+03  0.17055085457E+03 0.  0.
         24    2    3    3    0    0 -0.60883580664E+02 -0.80668338324E+02  0.32737615261E+02  0.13274847472E+03  0.79600344759E+02 0.  0.
         -6    2    1    2    0  501  0.58465796090E+02  0.10932937826E+03 -0.47917140272E+03  0.52450872443E+03  0.17358861298E+03 0.  0.
        -24    2    5    5    0    0  0.13014449967E+01 -0.18374595452E+02 -0.16976068067E+03  0.18490137342E+03  0.70926086006E+02 0.  0.
          5    1    3    3  502    0  0.24177845738E+01 -0.28661039937E+02 -0.77505735091E+02  0.82804165744E+02  0.47000000000E+01 0. -1.
        -11    1    4    4    0    0 -0.74405384238E+01 -0.94287567697E+00 -0.21313642739E+02  0.22594733753E+02  0.00000000000E+00 0.  1.
         12    1    4    4    0    0 -0.53443042240E+02 -0.79725462647E+02  0.54051258000E+02  0.11015374097E+03  0.00000000000E+00 0. -1.
         -5    1    5    5    0  501  0.57164351093E+02  0.12770397371E+03 -0.30941072205E+03  0.33960735101E+03  0.47000000000E+01 0.  1.
         11    1    6    6    0    0  0.21393668887E+02 -0.26936737623E+02 -0.37652032809E+02  0.50999534085E+02  0.00000000000E+00 0. -1.
        -12    1    6    6    0    0 -0.20092223890E+02  0.85621421705E+01 -0.13210864786E+03  0.13390183934E+03  0.00000000000E+00 0.  1.
</event>
<event>
12    1  0.1348628E-002  0.1950560E+03  0.7818608E-02  0.1153979E+00
          2   -1    0    0  502    0  0.00000000000E+00  0.00000000000E+00  0.20800885179E+04  0.20800885179E+04  0.00000000000E+00 0. -1.
         -2   -1    0    0    0  501 -0.00000000000E+00 -0.00000000000E+00 -0.22527791845E+02  0.22527791845E+02  0.00000000000E+00 0.  1.
          6    2    1    2  502    0  0.18594028429E+02  0.90643689188E+02  0.14860309790E+04  0.14988183465E+04  0.17206495621E+03 0.  0.
         24    2    3    3    0    0 -0.21239979761E+01  0.17921805662E+02  0.38272253553E+03  0.39291178613E+03  0.87048434766E+02 0.  0.
         -6    2    1    2    0  501 -0.18594028429E+02 -0.90643689188E+02  0.57152974714E+03  0.60379796327E+03  0.17135843224E+03 0.  0.
        -24    2    5    5    0    0 -0.13320864281E+02 -0.13058922690E+03  0.44597756190E+03  0.47185519741E+03  0.80748684211E+02 0.  0.
          5    1    3    3  502    0  0.20718026405E+02  0.72721883526E+02  0.11033084434E+04  0.11059065604E+04  0.47000000000E+01 0. -1.
        -11    1    4    4    0    0 -0.31557215258E+02  0.33742660462E+01  0.54623478134E+02  0.63174107589E+02  0.00000000000E+00 0.  1.
         12    1    4    4    0    0  0.29433217282E+02  0.14547539615E+02  0.32809905739E+03  0.32973767854E+03  0.00000000000E+00 0. -1.
         -5    1    5    5    0  501 -0.52731641480E+01  0.39945537709E+02  0.12555218524E+03  0.13194276585E+03  0.47000000000E+01 0.  1.
         11    1    6    6    0    0  0.86926523941E+01 -0.69657115712E+02  0.34362266236E+03  0.35071956042E+03  0.00000000000E+00 0. -1.
        -12    1    6    6    0    0 -0.22013516675E+02 -0.60932111185E+02  0.10235489954E+03  0.12113563700E+03  0.00000000000E+00 0.  1.
</event>
<event>
12    1  0.1348628E-002  0.1757993E+03  0.7818608E-02  0.1171932E+00
          1   -1    0    0  502    0  0.00000000000E+00  0.00000000000E+00  0.27582195204E+04  0.27582195204E+04  0.00000000000E+00 0.  1.
         -1   -1    0    0    0  501 -0.00000000000E+00 -0.00000000000E+00 -0.11297227545E+02  0.11297227545E+02  0.00000000000E+00 0. -1.
          6    2    1    2  502    0  0.34949083614E+02 -0.77880067548E+01  0.12395561387E+04  0.12517981197E+04  0.17092986852E+03 0.  0.
         24    2    3    3    0    0  0.61515594396E+02 -0.44374150326E+02  0.55760328257E+03  0.56833187078E+03  0.79539053583E+02 0.  0.
         -6    2    1    2    0  501 -0.34949083614E+02  0.77880067548E+01  0.15073661541E+04  0.15177186282E+04  0.17330614644E+03 0.  0.
        -24    2    5    5    0    0 -0.53796998196E+02  0.44819470349E+02  0.13707802406E+04  0.13748747451E+04  0.79619059952E+02 0.  0.
          5    1    3    3  502    0 -0.26566510781E+02  0.36586143571E+02  0.68195285616E+03  0.68346624893E+03  0.47000000000E+01 0. -1.
        -13    1    4    4    0    0  0.37764577485E+02  0.18492436269E+02  0.18521952553E+03  0.18993263582E+03  0.00000000000E+00 0.  1.
         14    1    4    4    0    0  0.23751016910E+02 -0.62866586595E+02  0.37238375704E+03  0.37839923496E+03  0.00000000000E+00 0. -1.
         -5    1    5    5    0  501  0.18847914582E+02 -0.37031463594E+02  0.13658591348E+03  0.14284388310E+03  0.47000000000E+01 0.  1.
         11    1    6    6    0    0 -0.77479538747E+01  0.50781079574E+02  0.98002531678E+03  0.98137065900E+03  0.00000000000E+00 0. -1.
        -12    1    6    6    0    0 -0.46049044322E+02 -0.59616092249E+01  0.39075492383E+03  0.39350408609E+03  0.00000000000E+00 0.  1.
</event>
<event>
12    1  0.1348628E-002  0.2394076E+03  0.7818608E-02  0.1120188E+00
         -2   -1    0    0    0  501 -0.00000000000E+00  0.00000000000E+00  0.15241249557E+03  0.15241249557E+03  0.00000000000E+00 0. -1.
          2   -1    0    0  502    0  0.00000000000E+00 -0.00000000000E+00 -0.39750121219E+03  0.39750121219E+03  0.00000000000E+00 0.  1.
          6    2    1    2  502    0 -0.13043141986E+03 -0.10336491370E+03 -0.18643413625E+03  0.30348319627E+03  0.17218508235E+03 0.  0.
         24    2    3    3    0    0 -0.47540273347E+02 -0.57292536721E+02 -0.18701790991E+02  0.11074026971E+03  0.79819408637E+02 0.  0.
         -6    2    1    2    0  501  0.13043141986E+03  0.10336491370E+03 -0.58654580367E+02  0.24643051149E+03  0.17202027940E+03 0.  0.
        -24    2    5    5    0    0  0.15917311892E+03  0.68292399759E+02 -0.31716835714E+02  0.19347865991E+03  0.80175435893E+02 0.  0.
          5    1    3    3  502    0 -0.82891146512E+02 -0.46072376974E+02 -0.16773234526E+03  0.19274292656E+03  0.47000000000E+01 0. -1.
        -11    1    4    4    0    0 -0.52124728686E+02 -0.74033167885E+02 -0.21749110345E+02  0.93117780732E+02  0.00000000000E+00 0.  1.
         12    1    4    4    0    0  0.45844553390E+01  0.16740631163E+02  0.30473193539E+01  0.17622488977E+02  0.00000000000E+00 0. -1.
         -5    1    5    5    0  501 -0.28741699060E+02  0.35072513936E+02 -0.26937744653E+02  0.52951851579E+02  0.47000000000E+01 0.  1.
         13    1    6    6    0    0  0.42204564466E+02 -0.12856983526E+02 -0.25549544913E+02  0.50983394674E+02  0.00000000000E+00 0. -1.
        -14    1    6    6    0    0  0.11696855445E+03  0.81149383285E+02 -0.61672908009E+01  0.14249526523E+03  0.00000000000E+00 0.  1.
</event>
<event>
12    1  0.1348628E-002  0.2907178E+03  0.7818608E-02  0.1089975E+00
          4   -1    0    0  502    0  0.00000000000E+00  0.00000000000E+00  0.57342131625E+02  0.57342131625E+02  0.00000000000E+00 0.  1.
         -4   -1    0    0    0  501 -0.00000000000E+00 -0.00000000000E+00 -0.15441662411E+04  0.15441662411E+04  0.00000000000E+00 0. -1.
          6    2    1    2  502    0 -0.23753535134E+03  0.97489178186E+01 -0.57541556715E+03  0.64520199986E+03  0.16930582143E+03 0.  0.
         24    2    3    3    0    0 -0.25126026368E+03  0.14829453374E+02 -0.47379450988E+03  0.54242498716E+03  0.79949961267E+02 0.  0.
         -6    2    1    2    0  501  0.23753535134E+03 -0.97489178186E+01 -0.91140854232E+03  0.95630637286E+03  0.16534286564E+03 0.  0.
        -24    2    5    5    0    0  0.22798346300E+03 -0.50903125400E+02 -0.79467044683E+03  0.83206958157E+03  0.79190163036E+02 0.  0.
          5    1    3    3  502    0  0.13724912337E+02 -0.50805355559E+01 -0.10162105727E+03  0.10277701270E+03  0.47000000000E+01 0. -1.
        -13    1    4    4    0    0 -0.10371356672E+03  0.45720015157E+02 -0.20272869830E+03  0.23226224149E+03  0.00000000000E+00 0.  1.
         14    1    4    4    0    0 -0.14754669696E+03 -0.30890561783E+02 -0.27106581159E+03  0.31016274567E+03  0.00000000000E+00 0. -1.
         -5    1    5    5    0  501  0.95518883467E+01  0.41154207581E+02 -0.11673809549E+03  0.12423679129E+03  0.47000000000E+01 0.  1.
         11    1    6    6    0    0  0.18485407152E+03 -0.21177027156E+02 -0.51605499663E+03  0.54857292476E+03  0.00000000000E+00 0. -1.
        -12    1    6    6    0    0  0.43129391475E+02 -0.29726098244E+02 -0.27861545021E+03  0.28349665681E+03  0.00000000000E+00 0.  1.
</event>
<event>
12    1  0.1348628E-002  0.2095761E+03  0.7818608E-02  0.1141902E+00
          2   -1    0    0  502    0  0.00000000000E+00  0.00000000000E+00  0.19605538309E+03  0.19605538309E+03  0.00000000000E+00 0.  1.
         -2   -1    0    0    0  501 -0.00000000000E+00 -0.00000000000E+00 -0.24638543449E+03  0.24638543449E+03  0.00000000000E+00 0. -1.
          6    2    1    2  502    0 -0.10950012801E+03  0.49338988997E+02  0.41489403267E+02  0.21348503510E+03  0.17155137936E+03 0.  0.
         24    2    3    3    0    0 -0.78271426664E+02  0.52503405561E+02 -0.36374877121E+02  0.12940066390E+03  0.80860226965E+02 0.  0.
         -6    2    1    2    0  501  0.10950012801E+03 -0.49338988997E+02 -0.91819454669E+02  0.22895578248E+03  0.17194570133E+03 0.  0.
        -24    2    5    5    0    0  0.13614839484E+03 -0.94129498973E+01 -0.87082880454E+02  0.18049194175E+03  0.79805538182E+02 0.  0.
          5    1    3    3  502    0 -0.31228701348E+02 -0.31644165642E+01  0.77864280388E+02  0.84084371202E+02  0.47000000000E+01 0. -1.
        -11    1    4    4    0    0 -0.67276488568E+02  0.25418686703E+02  0.11968002152E+02  0.72907260429E+02  0.00000000000E+00 0.  1.
         12    1    4    4    0    0 -0.10994938096E+02  0.27084718858E+02 -0.48342879273E+02  0.56493403471E+02  0.00000000000E+00 0. -1.
         -5    1    5    5    0  501 -0.26648266827E+02 -0.39926039099E+02 -0.47365742145E+01  0.48463840730E+02  0.47000000000E+01 0.  1.
         13    1    6    6    0    0  0.57152813578E+02  0.34511004129E+02 -0.27334910145E+02  0.72143265927E+02  0.00000000000E+00 0. -1.
        -14    1    6    6    0    0  0.78995581261E+02 -0.43923954027E+02 -0.59747970309E+02  0.10834867582E+03  0.00000000000E+00 0.  1.
</event>
<event>
12    1  0.1348628E-002  0.2572672E+03  0.7818608E-02  0.1108796E+00
          2   -1    0    0  502    0  0.00000000000E+00  0.00000000000E+00  0.38329604398E+03  0.38329604398E+03  0.00000000000E+00 0. -1.
         -2   -1    0    0    0  501 -0.00000000000E+00 -0.00000000000E+00 -0.23512650753E+03  0.23512650753E+03  0.00000000000E+00 0.  1.
          6    2    1    2  502    0 -0.66263837109E+02  0.18292545147E+03 -0.85117361999E+02  0.27166557057E+03  0.16942431943E+03 0.  0.
         24    2    3    3    0    0  0.24428948331E+01  0.36062330511E+02 -0.71941998979E+02  0.10892322359E+03  0.73363192420E+02 0.  0.
         -6    2    1    2    0  501  0.66263837109E+02 -0.18292545147E+03  0.23328689844E+03  0.34675698094E+03  0.16722741983E+03 0.  0.
        -24    2    5    5    0    0  0.95564969271E+02 -0.94962892489E+02  0.18388527795E+03  0.24159720615E+03  0.80029996056E+02 0.  0.
          5    1    3    3  502    0 -0.68706731942E+02  0.14686312095E+03 -0.13175363020E+02  0.16274234698E+03  0.47000000000E+01 0. -1.
        -13    1    4    4    0    0  0.14626807781E+02  0.56079622933E+02 -0.55925047329E+02  0.80538677248E+02  0.00000000000E+00 0.  1.
         14    1    4    4    0    0 -0.12183912948E+02 -0.20017292421E+02 -0.16016951650E+02  0.28384546337E+02  0.00000000000E+00 0. -1.
         -5    1    5    5    0  501 -0.29301132162E+02 -0.87962558977E+02  0.49401620487E+02  0.10515977479E+03  0.47000000000E+01 0.  1.
         11    1    6    6    0    0  0.78360756006E+02 -0.87242984863E+02  0.18866854134E+03  0.22214311824E+03  0.00000000000E+00 0. -1.
        -12    1    6    6    0    0  0.17204213264E+02 -0.77199076261E+01 -0.47832633844E+01  0.19454087910E+02  0.00000000000E+00 0.  1.
</event>
<event>
12    1  0.1348628E-002  0.2444090E+03  0.7818608E-02  0.1116890E+00
          1   -1    0    0  502    0  0.00000000000E+00  0.00000000000E+00  0.19835867355E+04  0.19835867355E+04  0.00000000000E+00 0. -1.
         -1   -1    0    0    0  501 -0.00000000000E+00 -0.00000000000E+00 -0.14176362986E+03  0.14176362986E+03  0.00000000000E+00 0.  1.
          6    2    1    2  502    0 -0.16915405620E+03  0.35907001186E+02 -0.22459308476E+02  0.24506636958E+03  0.17219377891E+03 0.  0.
         24    2    3    3    0    0 -0.39896586001E+02  0.50783508802E+02  0.25941180191E+02  0.10616532068E+03  0.80171242629E+02 0.  0.
         -6    2    1    2    0  501  0.16915405620E+03 -0.35907001186E+02  0.18642824142E+04  0.18802839958E+04  0.17325293002E+03 0.  0.
        -24    2    5    5    0    0  0.57495496256E+02  0.43829527754E+02  0.73298450380E+03  0.74068643527E+03  0.78251856095E+02 0.  0.
          5    1    3    3  502    0 -0.12925747020E+03 -0.14876507617E+02 -0.48400488668E+02  0.13890104889E+03  0.47000000000E+01 0. -1.
        -13    1    4    4    0    0 -0.26600713772E+02  0.98257511069E+01 -0.26153859198E+02  0.38576776809E+02  0.00000000000E+00 0.  1.
         14    1    4    4    0    0 -0.13295872230E+02  0.40957757695E+02  0.52095039390E+02  0.67588543872E+02  0.00000000000E+00 0. -1.
         -5    1    5    5    0  501  0.11165855994E+03 -0.79736528940E+02  0.11312979104E+04  0.11395975606E+04  0.47000000000E+01 0.  1.
         11    1    6    6    0    0 -0.26010987388E+00 -0.18131174224E+02  0.22096853265E+03  0.22171129777E+03  0.00000000000E+00 0. -1.
        -12    1    6    6    0    0  0.57755606129E+02  0.61960701979E+02  0.51201597115E+03  0.51897513750E+03  0.00000000000E+00 0.  1.
</event>
<event>
12    1  0.1348628E-002  0.2446223E+03  0.7818608E-02  0.1116751E+00
          1   -1    0    0  502    0  0.00000000000E+00  0.00000000000E+00  0.77487679532E+03  0.77487679532E+03  0.00000000000E+00 0. -1.
         -1   -1    0    0    0  501 -0.00000000000E+00 -0.00000000000E+00 -0.81068139768E+02  0.81068139768E+02  0.00000000000E+00 0.  1.
          6    2    1    2  502    0  0.44717662476E+02 -0.16805753475E+03  0.25374816021E+03  0.35247191472E+03  0.17206195842E+03 0.  0.
         24    2    3    3    0    0  0.25413164532E+02 -0.17655943289E+03  0.14974563502E+03  0.24624780654E+03  0.79969773941E+02 0.  0.
         -6    2    1    2    0  501 -0.44717662476E+02  0.16805753475E+03  0.44006049534E+03  0.50347302037E+03  0.17201406440E+03 0.  0.
        -24    2    5    5    0    0 -0.76002700847E+02  0.16543809571E+03  0.42325782616E+03  0.46755596622E+03  0.79468359081E+02 0.  0.
          5    1    3    3  502    0  0.19304497944E+02  0.85018981441E+01  0.10400252519E+03  0.10622410818E+03  0.47000000000E+01 0. -1.
        -13    1    4    4    0    0  0.94413502788E+01 -0.48207341633E+02  0.10017838507E+01  0.49133394482E+02  0.00000000000E+00 0.  1.
         14    1    4    4    0    0  0.15971814253E+02 -0.12835209126E+03  0.14874385117E+03  0.19711441206E+03  0.00000000000E+00 0. -1.
         -5    1    5    5    0  501  0.31285038371E+02  0.26194390335E+01  0.16802669182E+02  0.35917054144E+02  0.47000000000E+01 0.  1.
         11    1    6    6    0    0 -0.13457146641E+00  0.25688207625E+02  0.14334540793E+03  0.14562900843E+03  0.00000000000E+00 0. -1.
        -12    1    6    6    0    0 -0.75868129380E+02  0.13974988809E+03  0.27991241823E+03  0.32192695779E+03  0.00000000000E+00 0.  1.
</event>
<event>
12    1  0.1348628E-002  0.2542685E+03  0.7818608E-02  0.1110637E+00
          2   -1    0    0  502    0  0.00000000000E+00  0.00000000000E+00  0.99660384666E+02  0.99660384666E+02  0.00000000000E+00 0.  1.
         -2   -1    0    0    0  501 -0.00000000000E+00 -0.00000000000E+00 -0.66705845851E+03  0.66705845851E+03  0.00000000000E+00 0. -1.
          6    2    1    2  502    0 -0.18136025503E+02  0.18681277169E+03 -0.22041075831E+03  0.33668293407E+03  0.17189115342E+03 0.  0.
         24    2    3    3    0    0 -0.69963539644E+02  0.13409522563E+03 -0.97725303902E+02  0.19336844907E+03  0.70460596498E+02 0.  0.
         -6    2    1    2    0  501  0.18136025503E+02 -0.18681277169E+03 -0.34698731553E+03  0.43003590910E+03  0.17118048631E+03 0.  0.
        -24    2    5    5    0    0  0.73179667625E+02 -0.80093987192E+02 -0.20697862126E+03  0.24552784431E+03  0.75322388004E+02 0.  0.
          5    1    3    3  502    0  0.51827514141E+02  0.52717546067E+02 -0.12268545441E+03  0.14331448500E+03  0.47000000000E+01 0. -1.
        -13    1    4    4    0    0 -0.60999433930E+02  0.57954599813E+02 -0.76743878029E+02  0.11388278796E+03  0.00000000000E+00 0.  1.
         14    1    4    4    0    0 -0.89641057142E+01  0.76140625813E+02 -0.20981425873E+02  0.79485661110E+02  0.00000000000E+00 0. -1.
         -5    1    5    5    0  501 -0.55043642122E+02 -0.10671878450E+03 -0.14000869427E+03  0.18450806480E+03  0.47000000000E+01 0.  1.
         13    1    6    6    0    0 -0.13533772453E+02 -0.22303996585E+02 -0.26907838708E+02  0.37478834619E+02  0.00000000000E+00 0. -1.
        -14    1    6    6    0    0  0.86713440078E+02 -0.57789990608E+02 -0.18007078255E+03  0.20804900969E+03  0.00000000000E+00 0.  1.
</event>
<event>
12    1  0.1348628E-002  0.1837106E+03  0.7818608E-02  0.1164260E+00
          2   -1    0    0  502    0  0.00000000000E+00  0.00000000000E+00  0.25396690022E+03  0.25396690022E+03  0.00000000000E+00 0.  1.
         -2   -1    0    0    0  501 -0.00000000000E+00 -0.00000000000E+00 -0.13528733777E+03  0.13528733777E+03  0.00000000000E+00 0. -1.
          6    2    1    2  502    0  0.65153863856E+02  0.93857858155E+00  0.33534052258E+02  0.18706348845E+03  0.17211132777E+03 0.  0.
         24    2    3    3    0    0  0.22172683467E+02 -0.52936850316E+01 -0.49562094699E+02  0.93184403368E+02  0.75546547286E+02 0.  0.
         -6    2    1    2    0  501 -0.65153863856E+02 -0.93857858155E+00  0.85145510192E+02  0.20219074953E+03  0.17142180254E+03 0.  0.
        -24    2    5    5    0    0 -0.37558814959E+02  0.67987994002E+02  0.49852125899E+02  0.11984955628E+03  0.76456849094E+02 0.  0.
          5    1    3    3  502    0  0.42981180389E+02  0.62322636131E+01  0.83096146957E+02  0.93879085086E+02  0.47000000000E+01 0. -1.
        -11    1    4    4    0    0  0.18816941297E+02 -0.25895752479E+02  0.71099031010E+01  0.32790516896E+02  0.00000000000E+00 0.  1.
         12    1    4    4    0    0  0.33557421703E+01  0.20602067447E+02 -0.56671997800E+02  0.60393886472E+02  0.00000000000E+00 0. -1.
         -5    1    5    5    0  501 -0.27595048897E+02 -0.68926572583E+02  0.35293384294E+02  0.82341193255E+02  0.47000000000E+01 0.  1.
         13    1    6    6    0    0 -0.33669947131E+02 -0.59474136143E-01 -0.27083385338E+01  0.33778750341E+02  0.00000000000E+00 0. -1.
        -14    1    6    6    0    0 -0.38888678287E+01  0.68047468138E+02  0.52560464433E+02  0.86070805935E+02  0.00000000000E+00 0.  1.
</event>
<event>
12    1  0.1348628E-002  0.4839130E+03  0.7818608E-02  0.1018065E+00
         -1   -1    0    0    0  501 -0.00000000000E+00  0.00000000000E+00  0.13918100693E+03  0.13918100693E+03  0.00000000000E+00 0. -1.
          1   -1    0    0  502    0  0.00000000000E+00 -0.00000000000E+00 -0.17441843066E+04  0.17441843066E+04  0.00000000000E+00 0.  1.
          6    2    1    2  502    0 -0.42441717632E+03  0.15411628008E+03 -0.97989847774E+03  0.10929579176E+04  0.17456865610E+03 0.  0.
         24    2    3    3    0    0 -0.35463128214E+03  0.14940318570E+03 -0.68416488586E+03  0.78902909101E+03  0.80004107684E+02 0.  0.
         -6    2    1    2    0  501  0.42441717632E+03 -0.15411628008E+03 -0.62510482194E+03  0.79040739592E+03  0.17351093847E+03 0.  0.
        -24    2    5    5    0    0  0.36446981079E+03 -0.10613079678E+03 -0.42384119918E+03  0.57494178593E+03  0.82551233074E+02 0.  0.
          5    1    3    3  502    0 -0.69785894180E+02  0.47130943826E+01 -0.29573359189E+03  0.30392882663E+03  0.47000000000E+01 0. -1.
        -13    1    4    4    0    0 -0.29294830891E+03  0.99837577179E+02 -0.58813833286E+03  0.66459984358E+03  0.00000000000E+00 0.  1.
         14    1    4    4    0    0 -0.61682973222E+02  0.49565608519E+02 -0.96026553001E+02  0.12442924742E+03  0.00000000000E+00 0. -1.
         -5    1    5    5    0  501  0.59947365529E+02 -0.47985483304E+02 -0.20126362276E+03  0.21546560999E+03  0.47000000000E+01 0.  1.
         11    1    6    6    0    0  0.23977203192E+03 -0.32035518893E+02 -0.28920489183E+03  0.37703629960E+03  0.00000000000E+00 0. -1.
        -12    1    6    6    0    0  0.12469777887E+03 -0.74095277884E+02 -0.13463630735E+03  0.19790548632E+03  0.00000000000E+00 0.  1.
</event>
<event>
12    1  0.1348628E-002  0.1720560E+03  0.7818608E-02  0.1175721E+00
         -2   -1    0    0    0  501 -0.00000000000E+00  0.00000000000E+00  0.23591681643E+02  0.23591681643E+02  0.00000000000E+00 0.  1.
          2   -1    0    0  502    0  0.00000000000E+00 -0.00000000000E+00 -0.15247190839E+04  0.15247190839E+04  0.00000000000E+00 0. -1.
          6    2    1    2  502    0 -0.25379736077E+02 -0.13356683042E+02 -0.43053080120E+03  0.46422228630E+03  0.17123968095E+03 0.  0.
         24    2    3    3    0    0  0.40423436777E+00 -0.47000601995E+02 -0.12668574785E+03  0.15739883078E+03  0.80721082922E+02 0.  0.
         -6    2    1    2    0  501  0.25379736077E+02  0.13356683042E+02 -0.10705966011E+04  0.10840884793E+04  0.16807205791E+03 0.  0.
        -24    2    5    5    0    0  0.40377457566E+02  0.63676998916E+02 -0.86201938168E+03  0.86895221480E+03  0.79469729650E+02 0.  0.
          5    1    3    3  502    0 -0.25783970444E+02  0.33643918952E+02 -0.30384505335E+03  0.30682345552E+03  0.47000000000E+01 0. -1.
        -13    1    4    4    0    0  0.21248693547E+02  0.12231755846E+02 -0.13569350903E+02  0.28022314545E+02  0.00000000000E+00 0.  1.
         14    1    4    4    0    0 -0.20844459179E+02 -0.59232357841E+02 -0.11311639695E+03  0.12937651623E+03  0.00000000000E+00 0. -1.
         -5    1    5    5    0  501 -0.14997721489E+02 -0.50320315873E+02 -0.20857721942E+03  0.21513626449E+03  0.47000000000E+01 0.  1.
         13    1    6    6    0    0 -0.52918729042E+01  0.62529896675E+02 -0.43655487555E+03  0.44104211960E+03  0.00000000000E+00 0. -1.
        -14    1    6    6    0    0  0.45669330470E+02  0.11471022410E+01 -0.42546450614E+03  0.42791009520E+03  0.00000000000E+00 0.  1.
</event>
<event>
12    1  0.1348628E-002  0.2082402E+03  0.7818608E-02  0.1142967E+00
          4   -1    0    0  502    0  0.00000000000E+00  0.00000000000E+00  0.25566831670E+03  0.25566831670E+03  0.00000000000E+00 0. -1.
         -4   -1    0    0    0  501 -0.00000000000E+00 -0.00000000000E+00 -0.17724240112E+03  0.17724240112E+03  0.00000000000E+00 0.  1.
          6    2    1    2  502    0 -0.50066158663E+01 -0.11821604693E+03  0.84241371632E+02  0.22523663854E+03  0.17214771183E+03 0.  0.
         24    2    3    3    0    0  0.54745031870E+02 -0.76847394749E+02  0.89807796983E+02  0.15219760868E+03  0.78715507340E+02 0.  0.
         -6    2    1    2    0  501  0.50066158663E+01  0.11821604693E+03 -0.58154560574E+01  0.20767407928E+03  0.17057140359E+03 0.  0.
        -24    2    5    5    0    0  0.79835173778E+01  0.27442028490E+02  0.51144530203E+02  0.10036464633E+03  0.81489249505E+02 0.  0.
          5    1    3    3  502    0 -0.59751647736E+02 -0.41368652182E+02 -0.55664253512E+01  0.73039029852E+02  0.47000000000E+01 0. -1.
        -11    1    4    4    0    0  0.68585862765E+02 -0.65443327602E+02  0.47053210984E+02  0.10583408885E+03  0.00000000000E+00 0.  1.
         12    1    4    4    0    0 -0.13840830895E+02 -0.11404067147E+02  0.42754586000E+02  0.46363519833E+02  0.00000000000E+00 0. -1.
         -5    1    5    5    0  501 -0.29769015115E+01  0.90774018442E+02 -0.56959986261E+02  0.10730943296E+03  0.47000000000E+01 0.  1.
         13    1    6    6    0    0  0.40261037883E+02  0.12754122229E+02  0.49212556154E+02  0.64849784028E+02  0.00000000000E+00 0. -1.
        -14    1    6    6    0    0 -0.32277520505E+02  0.14687906261E+02  0.19319740488E+01  0.35514862297E+02  0.00000000000E+00 0.  1.
</event>
<event>
12    1  0.1348628E-002  0.2566636E+03  0.7818608E-02  0.1109165E+00
         -1   -1    0    0    0  501 -0.00000000000E+00  0.00000000000E+00  0.19602287700E+03  0.19602287700E+03  0.00000000000E+00 0.  1.
          1   -1    0    0  502    0  0.00000000000E+00 -0.00000000000E+00 -0.42814708451E+03  0.42814708451E+03  0.00000000000E+00 0. -1.
          6    2    1    2  502    0 -0.18491668289E+03  0.46308007841E+02 -0.26068842175E+03  0.36562500997E+03  0.17141932061E+03 0.  0.
         24    2    3    3    0    0 -0.23386400501E+02  0.49722179822E+02 -0.98469701359E+02  0.13662568258E+03  0.77143218499E+02 0.  0.
         -6    2    1    2    0  501  0.18491668289E+03 -0.46308007841E+02  0.28564214248E+02  0.25854495154E+03  0.17231066836E+03 0.  0.
        -24    2    5    5    0    0  0.11727794409E+03 -0.85274627389E+02 -0.18514975141E+02  0.16726550972E+03  0.81296175749E+02 0.  0.
          5    1    3    3  502    0 -0.16153028239E+03 -0.34141719808E+01 -0.16221872039E+03  0.22899932739E+03  0.47000000000E+01 0. -1.
        -11    1    4    4    0    0  0.11452098209E+02 -0.16242934335E+02 -0.16909820495E+02  0.26094549208E+02  0.00000000000E+00 0.  1.
         12    1    4    4    0    0 -0.34838498710E+02  0.65965114157E+02 -0.81559880864E+02  0.11053113337E+03  0.00000000000E+00 0. -1.
         -5    1    5    5    0  501  0.67638738802E+02  0.38966619547E+02  0.47079189389E+02  0.91279441821E+02  0.47000000000E+01 0.  1.
         11    1    6    6    0    0  0.24395446533E+02  0.13251194913E+02 -0.15566638549E+02  0.31828481175E+02  0.00000000000E+00 0. -1.
        -12    1    6    6    0    0  0.92882497557E+02 -0.98525822302E+02 -0.29483365918E+01  0.13543702855E+03  0.00000000000E+00 0.  1.
</event>
<event>
12    1  0.1348628E-002  0.2017257E+03  0.7818608E-02  0.1148291E+00
          2   -1    0    0  502    0  0.00000000000E+00  0.00000000000E+00  0.53398081207E+03  0.53398081207E+03  0.00000000000E+00 0. -1.
         -2   -1    0    0    0  501 -0.00000000000E+00 -0.00000000000E+00 -0.87187420525E+02  0.87187420525E+02  0.00000000000E+00 0.  1.
          6    2    1    2  502    0  0.20138044901E+02  0.10473018424E+03  0.33602469049E+03  0.39325845866E+03  0.17425748291E+03 0.  0.
         24    2    3    3    0    0  0.42469477430E+02  0.11398050380E+03  0.16409543001E+03  0.21957477521E+03  0.80564011802E+02 0.  0.
         -6    2    1    2    0  501 -0.20138044901E+02 -0.10473018424E+03  0.11076870106E+03  0.22790977394E+03  0.16822368317E+03 0.  0.
        -24    2    5    5    0    0 -0.59383002224E+02 -0.22213993593E+02  0.83975320965E+02  0.13257319328E+03  0.80647347020E+02 0.  0.
          5    1    3    3  502    0 -0.22331432529E+02 -0.92503195606E+01  0.17192926047E+03  0.17368368345E+03  0.47000000000E+01 0. -1.
        -11    1    4    4    0    0  0.24733624761E+02  0.18338285180E+02  0.24105334308E+01  0.30884552265E+02  0.00000000000E+00 0.  1.
         12    1    4    4    0    0  0.17735852669E+02  0.95642218617E+02  0.16168489658E+03  0.18869022294E+03  0.00000000000E+00 0. -1.
         -5    1    5    5    0  501  0.39244957324E+02 -0.82516190644E+02  0.26793380095E+02  0.95336580653E+02  0.47000000000E+01 0.  1.
         11    1    6    6    0    0 -0.36111932041E+02 -0.14888523548E+02  0.97248187245E+02  0.10479956914E+03  0.00000000000E+00 0. -1.
        -12    1    6    6    0    0 -0.23271070183E+02 -0.73254700445E+01 -0.13272866279E+02  0.27773624144E+02  0.00000000000E+00 0.  1.
</event>
<event>
12    1  0.1348628E-002  0.2279297E+03  0.7818608E-02  0.1128106E+00
         -2   -1    0    0    0  501 -0.00000000000E+00  0.00000000000E+00  0.60993477919E+02  0.60993477919E+02  0.00000000000E+00 0.  1.
          2   -1    0    0  502    0  0.00000000000E+00 -0.00000000000E+00 -0.86410510848E+03  0.86410510848E+03  0.00000000000E+00 0. -1.
          6    2    1    2  502    0  0.10124855995E+03 -0.10985949701E+03 -0.45710093277E+03  0.51084480480E+03  0.17233911883E+03 0.  0.
         24    2    3    3    0    0  0.42311140051E+02 -0.33375316150E+02 -0.90871912947E+02  0.13207147635E+03  0.79252924250E+02 0.  0.
         -6    2    1    2    0  501 -0.10124855995E+03  0.10985949701E+03 -0.34601069779E+03  0.41425378159E+03  0.17193723449E+03 0.  0.
        -24    2    5    5    0    0 -0.10063232444E+03  0.11678151321E+03 -0.35857638458E+03  0.39914482601E+03  0.83515160297E+02 0.  0.
          5    1    3    3  502    0  0.58937419900E+02 -0.76484180863E+02 -0.36622901982E+03  0.37877332845E+03  0.47000000000E+01 0. -1.
        -13    1    4    4    0    0  0.39443607375E+02  0.14283052085E+02 -0.19642807038E+02  0.46321092473E+02  0.00000000000E+00 0.  1.
         14    1    4    4    0    0  0.28675326761E+01 -0.47658368235E+02 -0.71229105909E+02  0.85750383877E+02  0.00000000000E+00 0. -1.
         -5    1    5    5    0  501 -0.61623551031E+00 -0.69220161964E+01  0.12565686791E+02  0.15108955588E+02  0.47000000000E+01 0.  1.
         13    1    6    6    0    0 -0.87607433588E+02  0.56800998645E+02 -0.28384221346E+03  0.30243646937E+03  0.00000000000E+00 0. -1.
        -14    1    6    6    0    0 -0.13024890852E+02  0.59980514565E+02 -0.74734171123E+02  0.96708356633E+02  0.00000000000E+00 0.  1.
</event>
<event>
12    1  0.1348628E-002  0.1770539E+03  0.7818608E-02  0.1170685E+00
          1   -1    0    0  502    0  0.00000000000E+00  0.00000000000E+00  0.16099345743E+04  0.16099345743E+04  0.00000000000E+00 0.  1.
         -1   -1    0    0    0  501 -0.00000000000E+00 -0.00000000000E+00 -0.68190689499E+02  0.68190689499E+02  0.00000000000E+00 0. -1.
          6    2    1    2  502    0 -0.20002544636E+02  0.30992233599E+02  0.60181908999E+02  0.18587911210E+03  0.17195511568E+03 0.  0.
         24    2    3    3    0    0  0.54379248127E+02  0.25458235506E+02  0.47819393212E+02  0.11012821755E+03  0.78970282706E+02 0.  0.
         -6    2    1    2    0  501  0.20002544636E+02 -0.30992233599E+02  0.14815619758E+04  0.14922461517E+04  0.17439056389E+03 0.  0.
        -24    2    5    5    0    0  0.29368587391E+02 -0.71403283522E+02  0.63868615414E+03  0.64833708287E+03  0.80374291323E+02 0.  0.
          5    1    3    3  502    0 -0.74381792763E+02  0.55339980933E+01  0.12362515788E+02  0.75750894557E+02  0.47000000000E+01 0. -1.
        -11    1    4    4    0    0  0.39426308853E+02  0.39945803394E+02  0.62989965096E+02  0.84367272929E+02  0.00000000000E+00 0.  1.
         12    1    4    4    0    0  0.14952939274E+02 -0.14487567888E+02 -0.15170571885E+02  0.25760944617E+02  0.00000000000E+00 0. -1.
         -5    1    5    5    0  501 -0.93660427548E+01  0.40411049923E+02  0.84287582163E+03  0.84390906879E+03  0.47000000000E+01 0.  1.
         11    1    6    6    0    0  0.49378597740E+02 -0.17147210781E+02  0.35385061713E+03  0.35769055341E+03  0.00000000000E+00 0. -1.
        -12    1    6    6    0    0 -0.20010010349E+02 -0.54256072741E+02  0.28483553701E+03  0.29064652946E+03  0.00000000000E+00 0.  1.
</event>
<event>
12    1  0.1348628E-002  0.2290820E+03  0.7818608E-02  0.1127288E+00
         -2   -1    0    0    0  501 -0.00000000000E+00  0.00000000000E+00  0.29720304142E+02  0.29720304142E+02  0.00000000000E+00 0. -1.
          2   -1    0    0  502    0  0.00000000000E+00 -0.00000000000E+00 -0.19235082775E+04  0.19235082775E+04  0.00000000000E+00 0.  1.
          6    2    1    2  502    0  0.94030286543E+02  0.11659739897E+03 -0.66786674494E+03  0.70611924181E+03  0.17355617656E+03 0.  0.
         24    2    3    3    0    0  0.92809643482E+02  0.14320716597E+03 -0.46686956069E+03  0.50331014994E+03  0.78943004908E+02 0.  0.
         -6    2    1    2    0  501 -0.94030286543E+02 -0.11659739897E+03 -0.12259212284E+04  0.12471093398E+04  0.17309592421E+03 0.  0.
        -24    2    5    5    0    0 -0.10717361697E+03 -0.28813559192E+02 -0.61584357986E+03  0.63059042129E+03  0.77875279714E+02 0.  0.
          5    1    3    3  502    0  0.12206430612E+01 -0.26609766997E+02 -0.20099718425E+03  0.20280909187E+03  0.47000000000E+01 0. -1.
        -11    1    4    4    0    0  0.43376621305E+02  0.15581907774E+02 -0.17462014303E+03  0.18060044706E+03  0.00000000000E+00 0.  1.
         12    1    4    4    0    0  0.49433022177E+02  0.12762525819E+03 -0.29224941766E+03  0.32270970288E+03  0.00000000000E+00 0. -1.
         -5    1    5    5    0  501  0.13143330426E+02 -0.87783839777E+02 -0.61007764853E+03  0.61651891852E+03  0.47000000000E+01 0.  1.
         11    1    6    6    0    0  0.12563962778E+01 -0.26463133933E+02 -0.98484874309E+02  0.10198601108E+03  0.00000000000E+00 0. -1.
        -12    1    6    6    0    0 -0.10843001325E+03 -0.23504252595E+01 -0.51735870556E+03  0.52860441020E+03  0.00000000000E+00 0.  1.
</event>
<event>
12    1  0.1348628E-002  0.2281160E+03  0.7818608E-02  0.1127973E+00
          2   -1    0    0  502    0  0.00000000000E+00  0.00000000000E+00  0.26688668842E+04  0.26688668842E+04  0.00000000000E+00 0. -1.
         -2   -1    0    0    0  501 -0.00000000000E+00 -0.00000000000E+00 -0.20046385944E+02  0.20046385944E+02  0.00000000000E+00 0.  1.
          6    2    1    2  502    0 -0.12517409466E+03  0.84096441523E+02  0.15506667886E+04  0.15674560730E+04  0.17207639656E+03 0.  0.
         24    2    3    3    0    0 -0.12519997169E+03  0.68758741144E+02  0.15387939467E+04  0.15474986159E+04  0.80388794305E+02 0.  0.
         -6    2    1    2    0  501  0.12517409466E+03 -0.84096441523E+02  0.10981537097E+04  0.11214571971E+04  0.17024661350E+03 0.  0.
        -24    2    5    5    0    0  0.15264856741E+03 -0.76631471414E+02  0.89224450434E+03  0.91353590605E+03  0.96299681061E+02 0.  0.
          5    1    3    3  502    0  0.25877024925E-01  0.15337700380E+02  0.11872841831E+02  0.19957457145E+02  0.47000000000E+01 0. -1.
        -11    1    4    4    0    0 -0.42700506986E+02  0.10361632462E+02  0.19410365592E+03  0.19901488880E+03  0.00000000000E+00 0.  1.
         12    1    4    4    0    0 -0.82499464704E+02  0.58397108682E+02  0.13446902908E+04  0.13484837271E+04  0.00000000000E+00 0. -1.
         -5    1    5    5    0  501 -0.27474472750E+02 -0.74649701092E+01  0.20590920533E+03  0.20792129105E+03  0.47000000000E+01 0.  1.
         13    1    6    6    0    0  0.74331038569E+02 -0.26570334781E+02  0.63740350518E+03  0.64227277259E+03  0.00000000000E+00 0. -1.
        -14    1    6    6    0    0  0.78317528846E+02 -0.50061136633E+02  0.25484099916E+03  0.27126313346E+03  0.00000000000E+00 0.  1.
</event>
<event>
12    1  0.1348628E-002  0.2477333E+03  0.7818608E-02  0.1114746E+00
         -2   -1    0    0    0  501 -0.00000000000E+00  0.00000000000E+00  0.60483429495E+02  0.60483429495E+02  0.00000000000E+00 0.  1.
          2   -1    0    0  502    0  0.00000000000E+00 -0.00000000000E+00 -0.14230227513E+04  0.14230227513E+04  0.00000000000E+00 0. -1.
          6    2    1    2  502    0  0.81968071745E+02 -0.15822688503E+03 -0.28411804910E+03  0.37701769119E+03  0.17223461241E+03 0.  0.
         24    2    3    3    0    0  0.16961238972E+02 -0.14451495600E+03 -0.13710200040E+03  0.21561845365E+03  0.80759537528E+02 0.  0.
         -6    2    1    2    0  501 -0.81968071745E+02  0.15822688503E+03 -0.10784212727E+04  0.11064884896E+04  0.17195878656E+03 0.  0.
        -24    2    5    5    0    0 -0.20477968432E+02  0.14834350805E+03 -0.58416134227E+03  0.60829808145E+03  0.79730411519E+02 0.  0.
          5    1    3    3  502    0  0.65006832774E+02 -0.13711929029E+02 -0.14701604870E+03  0.16139923755E+03  0.47000000000E+01 0. -1.
        -13    1    4    4    0    0  0.32905914302E+02 -0.98750917992E+02 -0.13015966278E+03  0.16666157570E+03  0.00000000000E+00 0.  1.
         14    1    4    4    0    0 -0.15944675331E+02 -0.45764038013E+02 -0.69423376274E+01  0.48956877948E+02  0.00000000000E+00 0. -1.
         -5    1    5    5    0  501 -0.61490103313E+02  0.98833769867E+01 -0.49425993042E+03  0.49819040814E+03  0.47000000000E+01 0.  1.
         11    1    6    6    0    0  0.36018043694E+01  0.51660340107E+02 -0.35014216394E+03  0.35395098348E+03  0.00000000000E+00 0. -1.
        -12    1    6    6    0    0 -0.24079772802E+02  0.96683167940E+02 -0.23401917832E+03  0.25434709797E+03  0.00000000000E+00 0.  1.
</event>
<event>
12    1  0.1348628E-002  0.1744882E+03  0.7818608E-02  0.1173247E+00
          2   -1    0    0  502    0  0.00000000000E+00  0.00000000000E+00  0.22278866753E+04  0.22278866753E+04  0.00000000000E+00 0.  1.
         -2   -1    0    0    0  501 -0.00000000000E+00 -0.00000000000E+00 -0.22488193371E+02  0.22488193371E+02  0.00000000000E+00 0. -1.
          6    2    1    2  502    0  0.19076435277E+02 -0.26557238442E+02  0.18095995057E+04  0.18180464269E+04  0.17196872415E+03 0.  0.
         24    2    3    3    0    0 -0.11008150328E+02 -0.43842274247E+02  0.17112450092E+04  0.17136455086E+04  0.78601039410E+02 0.  0.
         -6    2    1    2    0  501 -0.19076435277E+02  0.26557238442E+02  0.39579897622E+03  0.43232844175E+03  0.17082697290E+03 0.  0.
        -24    2    5    5    0    0 -0.22690954336E+02  0.78574655387E+02  0.21250836473E+03  0.24170731314E+03  0.81078753475E+02 0.  0.
          5    1    3    3  502    0  0.30084585605E+02  0.17285035805E+02  0.98354496484E+02  0.10440091825E+03  0.47000000000E+01 0. -1.
        -11    1    4    4    0    0  0.61297921813E+01 -0.53053509575E+02  0.64019092811E+03  0.64241472093E+03  0.00000000000E+00 0.  1.
         12    1    4    4    0    0 -0.17137942509E+02  0.92112353285E+01  0.10710540811E+04  0.10712307877E+04  0.00000000000E+00 0. -1.
         -5    1    5    5    0  501  0.36145190596E+01 -0.52017416945E+02  0.18329061149E+03  0.19062112861E+03  0.47000000000E+01 0.  1.
         11    1    6    6    0    0  0.40086255523E+01  0.68740274548E+02  0.19827818260E+03  0.20989409739E+03  0.00000000000E+00 0. -1.
        -12    1    6    6    0    0 -0.26699579889E+02  0.98343808387E+01  0.14230182133E+02  0.31813215748E+02  0.00000000000E+00 0.  1.
</event>
<event>
12    1  0.1348628E-002  0.1986739E+03  0.7818608E-02  0.1150863E+00
         -2   -1    0    0    0  501 -0.00000000000E+00  0.00000000000E+00  0.57759843856E+02  0.57759843856E+02  0.00000000000E+00 0.  1.
          2   -1    0    0  502    0  0.00000000000E+00 -0.00000000000E+00 -0.77304909442E+03  0.77304909442E+03  0.00000000000E+00 0. -1.
          6    2    1    2  502    0  0.21205067340E+02  0.96987256229E+02 -0.21730313440E+03  0.29491839715E+03  0.17291623985E+03 0.  0.
         24    2    3    3    0    0  0.42602450173E+01  0.13162255669E+03 -0.12952234609E+03  0.19892731508E+03  0.73847081380E+02 0.  0.
         -6    2    1    2    0  501 -0.21205067340E+02 -0.96987256229E+02 -0.49798611615E+03  0.53589054112E+03  0.17126680188E+03 0.  0.
        -24    2    5    5    0    0  0.29671914632E+02 -0.46027552715E+02 -0.16047653225E+03  0.19075264418E+03  0.87377890405E+02 0.  0.
          5    1    3    3  502    0  0.16944822323E+02 -0.34635300462E+02 -0.87780788312E+02  0.95991082077E+02  0.47000000000E+01 0. -1.
        -13    1    4    4    0    0  0.34613566371E+02  0.39637409878E+02 -0.59328908865E+02  0.79304115063E+02  0.00000000000E+00 0.  1.
         14    1    4    4    0    0 -0.30353321354E+02  0.91985146813E+02 -0.70193437227E+02  0.11962320001E+03  0.00000000000E+00 0. -1.
         -5    1    5    5    0  501 -0.50876981972E+02 -0.50959703513E+02 -0.33750958390E+03  0.34513789694E+03  0.47000000000E+01 0.  1.
         13    1    6    6    0    0  0.11220350285E+02 -0.66569375271E+02 -0.14283823258E+03  0.15798778013E+03  0.00000000000E+00 0. -1.
        -14    1    6    6    0    0  0.18451564347E+02  0.20541822556E+02 -0.17638299670E+02  0.32764864047E+02  0.00000000000E+00 0.  1.
</event>
<event>
12    1  0.1348628E-002  0.1739560E+03  0.7818608E-02  0.1173784E+00
         -2   -1    0    0    0  501 -0.00000000000E+00  0.00000000000E+00  0.96401846052E+01  0.96401846052E+01  0.00000000000E+00 0. -1.
          2   -1    0    0  502    0  0.00000000000E+00 -0.00000000000E+00 -0.32701592740E+04  0.32701592740E+04  0.00000000000E+00 0.  1.
          6    2    1    2  502    0  0.23695543598E+02 -0.11551704520E+02 -0.19614074772E+04  0.19691335217E+04  0.17225740687E+03 0.  0.
         24    2    3    3    0    0 -0.39794658066E+02  0.30399056775E+02 -0.12784188160E+04  0.12819025028E+04  0.80072717776E+02 0.  0.
         -6    2    1    2    0  501 -0.23695543598E+02  0.11551704520E+02 -0.12991116122E+04  0.13106659369E+04  0.17163710675E+03 0.  0.
        -24    2    5    5    0    0  0.25689826865E+02 -0.68846841014E+01 -0.41002479626E+03  0.42000535531E+03  0.87044809497E+02 0.  0.
          5    1    3    3  502    0  0.63490201664E+02 -0.41950761295E+02 -0.68298866122E+03  0.68723101897E+03  0.47000000000E+01 0. -1.
        -13    1    4    4    0    0 -0.45137422395E+02  0.21180844263E+02 -0.36155231613E+03  0.36497409821E+03  0.00000000000E+00 0.  1.
         14    1    4    4    0    0  0.53427643289E+01  0.92182125116E+01 -0.91686649982E+03  0.91692840455E+03  0.00000000000E+00 0. -1.
         -5    1    5    5    0  501 -0.49385370463E+02  0.18436388621E+02 -0.88908681598E+03  0.89066058159E+03  0.47000000000E+01 0.  1.
         11    1    6    6    0    0  0.49748386542E+02  0.14472277298E+02 -0.32488740655E+03  0.32899266817E+03  0.00000000000E+00 0. -1.
        -12    1    6    6    0    0 -0.24058559677E+02 -0.21356961399E+02 -0.85137389713E+02  0.91012687143E+02  0.00000000000E+00 0.  1.
</event>
<event>
12    1  0.1348628E-002  0.2275366E+03  0.7818608E-02  0.1128386E+00
          1   -1    0    0  502    0  0.00000000000E+00  0.00000000000E+00  0.15125888629E+03  0.15125888629E+03  0.00000000000E+00 0.  1.
         -1   -1    0    0    0  501 -0.00000000000E+00 -0.00000000000E+00 -0.38067640369E+03  0.38067640369E+03  0.00000000000E+00 0. -1.
          6    2    1    2  502    0  0.52515652719E+02 -0.13322199923E+03 -0.20071225778E+03  0.30615411200E+03  0.18149086757E+03 0.  0.
         24    2    3    3    0    0 -0.24994291887E+02 -0.17425016860E+02 -0.11253045904E+03  0.14118486557E+03  0.79634893203E+02 0.  0.
         -6    2    1    2    0  501 -0.52515652719E+02  0.13322199923E+03 -0.28705259615E+02  0.22578117798E+03  0.17218348801E+03 0.  0.
        -24    2    5    5    0    0 -0.64726310715E+02  0.59843837656E+02 -0.72901034889E+02  0.13912778038E+03  0.79190897080E+02 0.  0.
          5    1    3    3  502    0  0.77509944607E+02 -0.11579698237E+03 -0.88181798743E+02  0.16496924643E+03  0.47000000000E+01 0. -1.
        -13    1    4    4    0    0 -0.20681173902E+02 -0.45381350313E+02 -0.42027034716E+02  0.65218475582E+02  0.00000000000E+00 0.  1.
         14    1    4    4    0    0 -0.43131179856E+01  0.27956333453E+02 -0.70503424322E+02  0.75966389990E+02  0.00000000000E+00 0. -1.
         -5    1    5    5    0  501  0.12210657995E+02  0.73378161570E+02  0.44195775274E+02  0.86653397603E+02  0.47000000000E+01 0.  1.
         13    1    6    6    0    0  0.47082369446E+01  0.28651871291E+02 -0.53028373160E+02  0.60457469212E+02  0.00000000000E+00 0. -1.
        -14    1    6    6    0    0 -0.69434547659E+02  0.31191966365E+02 -0.19872661729E+02  0.78670311163E+02  0.00000000000E+00 0.  1.
</event>
<event>
12    1  0.1348628E-002  0.1985069E+03  0.7818608E-02  0.1151005E+00
         -1   -1    0    0    0  501 -0.00000000000E+00  0.00000000000E+00  0.14500806291E+03  0.14500806291E+03  0.00000000000E+00 0.  1.
          1   -1    0    0  502    0  0.00000000000E+00 -0.00000000000E+00 -0.56283925561E+03  0.56283925561E+03  0.00000000000E+00 0. -1.
          6    2    1    2  502    0  0.81158604668E+02 -0.55530263377E+02  0.45525253247E+02  0.20382719475E+03  0.17263443276E+03 0.  0.
         24    2    3    3    0    0 -0.24101111424E+02 -0.37471483869E+02  0.26489266368E+02  0.95244571157E+02  0.79905390475E+02 0.  0.
         -6    2    1    2    0  501 -0.81158604668E+02  0.55530263377E+02 -0.46335644594E+03  0.50402012377E+03  0.17224041309E+03 0.  0.
        -24    2    5    5    0    0 -0.10385581464E+03  0.43705353022E+02 -0.45682907967E+03  0.47719311581E+03  0.79525301813E+02 0.  0.
          5    1    3    3  502    0  0.10525971609E+03 -0.18058779508E+02  0.19035986879E+02  0.10858262359E+03  0.47000000000E+01 0. -1.
        -11    1    4    4    0    0  0.29365252396E+02 -0.87533777434E+01  0.62940476093E+01  0.31281859048E+02  0.00000000000E+00 0.  1.
         12    1    4    4    0    0 -0.53466363820E+02 -0.28718106125E+02  0.20195218759E+02  0.63962712109E+02  0.00000000000E+00 0. -1.
         -5    1    5    5    0  501  0.22697209973E+02  0.11824910355E+02 -0.65273662762E+01  0.26827007958E+02  0.47000000000E+01 0.  1.
         11    1    6    6    0    0 -0.20939792227E+02  0.19948990970E+02 -0.26849161371E+03  0.27004478105E+03  0.00000000000E+00 0. -1.
        -12    1    6    6    0    0 -0.82916022413E+02  0.23756362052E+02 -0.18833746596E+03  0.20714833476E+03  0.00000000000E+00 0.  1.
</event>
<event>
12    1  0.1348628E-002  0.1853595E+03  0.7818608E-02  0.1162715E+00
          2   -1    0    0  502    0  0.00000000000E+00  0.00000000000E+00  0.15387159818E+03  0.15387159818E+03  0.00000000000E+00 0.  1.
         -2   -1    0    0    0  501 -0.00000000000E+00 -0.00000000000E+00 -0.23190836214E+03  0.23190836214E+03  0.00000000000E+00 0. -1.
          6    2    1    2  502    0 -0.11011115645E+02  0.68710709184E+02 -0.18971446242E+01  0.18566599127E+03  0.17212162831E+03 0.  0.
         24    2    3    3    0    0 -0.73033173509E+02  0.29055354382E+02  0.27802707604E+01  0.11175218308E+03  0.79389939336E+02 0.  0.
         -6    2    1    2    0  501  0.11011115645E+02 -0.68710709184E+02 -0.76139619341E+02  0.20011396905E+03  0.17148163969E+03 0.  0.
        -24    2    5    5    0    0 -0.24024550872E+01 -0.12426361908E+02  0.25376017730E+02  0.83172247675E+02  0.78188837098E+02 0.  0.
          5    1    3    3  502    0  0.62022057864E+02  0.39655354802E+02 -0.46774153846E+01  0.73913808188E+02  0.47000000000E+01 0. -1.
        -11    1    4    4    0    0 -0.32705114987E+02  0.37078423601E+02  0.34103293202E+02  0.60062206506E+02  0.00000000000E+00 0.  1.
         12    1    4    4    0    0 -0.40328058522E+02 -0.80230692197E+01 -0.31323022442E+02  0.51689976579E+02  0.00000000000E+00 0. -1.
         -5    1    5    5    0  501  0.13413570732E+02 -0.56284347276E+02 -0.10151563707E+03  0.11694172137E+03  0.47000000000E+01 0.  1.
         11    1    6    6    0    0 -0.31095140545E+02  0.54095871306E+01  0.35885785800E+02  0.47790804774E+02  0.00000000000E+00 0. -1.
        -12    1    6    6    0    0  0.28692685457E+02 -0.17835949038E+02 -0.10509768070E+02  0.35381442901E+02  0.00000000000E+00 0.  1.
</event>
<event>
12    1  0.1348628E-002  0.1931943E+03  0.7818608E-02  0.1155611E+00
          1   -1    0    0  502    0  0.00000000000E+00  0.00000000000E+00  0.46802589292E+03  0.46802589292E+03  0.00000000000E+00 0.  1.
         -1   -1    0    0    0  501 -0.00000000000E+00 -0.00000000000E+00 -0.89179779570E+02  0.89179779570E+02  0.00000000000E+00 0. -1.
          6    2    1    2  502    0 -0.81546802448E+02  0.37172194797E+02  0.98551173051E+02  0.21660712674E+03  0.17080591497E+03 0.  0.
         24    2    3    3    0    0 -0.81828165327E+01  0.40658858152E+02 -0.44533969659E+01  0.90011460563E+02  0.79762955408E+02 0.  0.
         -6    2    1    2    0  501  0.81546802448E+02 -0.37172194797E+02  0.28029494030E+03  0.34059854575E+03  0.17149478929E+03 0.  0.
        -24    2    5    5    0    0  0.34740690811E+02  0.23111852151E+02  0.23533261821E+03  0.25189297202E+03  0.79545929207E+02 0.  0.
          5    1    3    3  502    0 -0.73363985915E+02 -0.34866633550E+01  0.10300457002E+03  0.12659566618E+03  0.47000000000E+01 0. -1.
        -11    1    4    4    0    0 -0.23766625021E+02  0.21438052349E+02  0.32450646101E+02  0.45579457936E+02  0.00000000000E+00 0.  1.
         12    1    4    4    0    0  0.15583808488E+02  0.19220805803E+02 -0.36904043067E+02  0.44432002626E+02  0.00000000000E+00 0. -1.
         -5    1    5    5    0  501  0.46806111637E+02 -0.60284046948E+02  0.44962322096E+02  0.88705573733E+02  0.47000000000E+01 0.  1.
         11    1    6    6    0    0  0.47766623965E+02  0.30612859456E+02  0.94225137384E+02  0.10998715400E+03  0.00000000000E+00 0. -1.
        -12    1    6    6    0    0 -0.13025933154E+02 -0.75010073048E+01  0.14110748082E+03  0.14190581802E+03  0.00000000000E+00 0.  1.
</event>
<event>
12    1  0.1348628E-002  0.2388302E+03  0.7818608E-02  0.1120575E+00
         -1   -1    0    0    0  501 -0.00000000000E+00  0.00000000000E+00  0.83174089701E+02  0.83174089701E+02  0.00000000000E+00 0.  1.
          1   -1    0    0  502    0  0.00000000000E+00 -0.00000000000E+00 -0.74059998469E+03  0.74059998469E+03  0.00000000000E+00 0. -1.
          6    2    1    2  502    0 -0.92650185766E+02 -0.13720704613E+03 -0.43979665857E+03  0.50010201434E+03  0.17108796987E+03 0.  0.
         24    2    3    3    0    0 -0.78377042102E+02 -0.22213229875E+02 -0.28325083641E+03  0.30527905666E+03  0.79547959099E+02 0.  0.
         -6    2    1    2    0  501  0.92650185766E+02  0.13720704613E+03 -0.21762923642E+03  0.32367206005E+03  0.17317992806E+03 0.  0.
        -24    2    5    5    0    0  0.10584781110E+03  0.13534474742E+03 -0.11858853770E+03  0.22362809235E+03  0.80151872366E+02 0.  0.
          5    1    3    3  502    0 -0.14273143664E+02 -0.11499381625E+03 -0.15654582215E+03  0.19482295768E+03  0.47000000000E+01 0. -1.
        -11    1    4    4    0    0 -0.13424216841E+02 -0.13689077963E+02 -0.55559006038E+01  0.19961675400E+02  0.00000000000E+00 0.  1.
         12    1    4    4    0    0 -0.64952825262E+02 -0.85241519124E+01 -0.27769493581E+03  0.28531738126E+03  0.00000000000E+00 0. -1.
         -5    1    5    5    0  501 -0.13197625330E+02  0.18622987079E+01 -0.99040698722E+02  0.10004396771E+03  0.47000000000E+01 0.  1.
         13    1    6    6    0    0  0.27552710893E+02  0.13062699450E+02 -0.59514184725E+02  0.66870951675E+02  0.00000000000E+00 0. -1.
        -14    1    6    6    0    0  0.78295100203E+02  0.12228204797E+03 -0.59074352976E+02  0.15675714067E+03  0.00000000000E+00 0.  1.
</event>
<event>
12    1  0.1348628E-002  0.1852886E+03  0.7818608E-02  0.1162781E+00
         -2   -1    0    0    0  501 -0.00000000000E+00  0.00000000000E+00  0.34691740791E+02  0.34691740791E+02  0.00000000000E+00 0. -1.
          2   -1    0    0  502    0  0.00000000000E+00 -0.00000000000E+00 -0.13529171741E+04  0.13529171741E+04  0.00000000000E+00 0.  1.
          6    2    1    2  502    0 -0.69231962681E+02 -0.43057720181E+01 -0.10169769228E+04  0.10336049849E+04  0.17113035640E+03 0.  0.
         24    2    3    3    0    0  0.98182541170E+01  0.42864060558E+02 -0.43849328746E+03  0.44782402218E+03  0.79600665132E+02 0.  0.
         -6    2    1    2    0  501  0.69231962681E+02  0.43057720181E+01 -0.30124851045E+03  0.35400392998E+03  0.17250076250E+03 0.  0.
        -24    2    5    5    0    0 -0.74997139090E+01 -0.34462425744E+02 -0.86422798428E+02  0.12256732981E+03  0.79435166975E+02 0.  0.
          5    1    3    3  502    0 -0.79050216798E+02 -0.47169832576E+02 -0.57848363538E+03  0.58578096272E+03  0.47000000000E+01 0. -1.
        -13    1    4    4    0    0  0.37476447333E+02 -0.22494531255E+01 -0.15976604159E+03  0.16411804346E+03  0.00000000000E+00 0.  1.
         14    1    4    4    0    0 -0.27658193216E+02  0.45113513683E+02 -0.27872724587E+03  0.28370597872E+03  0.00000000000E+00 0. -1.
         -5    1    5    5    0  501  0.76731676590E+02  0.38768197762E+02 -0.21482571203E+03  0.23143660017E+03  0.47000000000E+01 0.  1.
         13    1    6    6    0    0 -0.24323854337E+02  0.18017401133E+02 -0.42057402701E+02  0.51817967496E+02  0.00000000000E+00 0. -1.
        -14    1    6    6    0    0  0.16824140428E+02 -0.52479826877E+02 -0.44365395727E+02  0.70749362317E+02  0.00000000000E+00 0.  1.
</event>
<event>
12    1  0.1348628E-002  0.2006492E+03  0.7818608E-02  0.1149192E+00
         -2   -1    0    0    0  501 -0.00000000000E+00  0.00000000000E+00  0.18235915858E+03  0.18235915858E+03  0.00000000000E+00 0. -1.
          2   -1    0    0  502    0  0.00000000000E+00 -0.00000000000E+00 -0.25984021658E+03  0.25984021658E+03  0.00000000000E+00 0.  1.
          6    2    1    2  502    0  0.12122869884E+01  0.10480729108E+03 -0.12441277360E+03  0.23579118467E+03  0.17068364488E+03 0.  0.
         24    2    3    3    0    0 -0.57158720174E+02  0.70687205165E+02 -0.39345135351E+02  0.12702562111E+03  0.79521496945E+02 0.  0.
         -6    2    1    2    0  501 -0.12122869884E+01 -0.10480729108E+03  0.46931715597E+02  0.20640819048E+03  0.17151010835E+03 0.  0.
        -24    2    5    5    0    0  0.15238358126E+01 -0.15198020114E+02 -0.30205078276E+02  0.88046529545E+02  0.81280641732E+02 0.  0.
          5    1    3    3  502    0  0.58371007162E+02  0.34120085915E+02 -0.85067638253E+02  0.10876556357E+03  0.47000000000E+01 0. -1.
        -13    1    4    4    0    0 -0.55065691668E+02  0.87423412401E+02 -0.38070078808E+02  0.11011091833E+03  0.00000000000E+00 0.  1.
         14    1    4    4    0    0 -0.20930285054E+01 -0.16736207235E+02 -0.12750565428E+01  0.16914702780E+02  0.00000000000E+00 0. -1.
         -5    1    5    5    0  501 -0.27361228009E+01 -0.89609270967E+02  0.77136793874E+02  0.11836166094E+03  0.47000000000E+01 0.  1.
         11    1    6    6    0    0 -0.49017436571E+01 -0.23264893148E+02  0.23458839450E+02  0.33400591198E+02  0.00000000000E+00 0. -1.
        -12    1    6    6    0    0  0.64255794697E+01  0.80668730340E+01 -0.53663917726E+02  0.54645938347E+02  0.00000000000E+00 0.  1.
</event>
<event>
12    1  0.1348628E-002  0.1936364E+03  0.7818608E-02  0.1155222E+00
         -1   -1    0    0    0  501 -0.00000000000E+00  0.00000000000E+00  0.32309892974E+03  0.32309892974E+03  0.00000000000E+00 0.  1.
          1   -1    0    0  502    0  0.00000000000E+00 -0.00000000000E+00 -0.23703774247E+03  0.23703774247E+03  0.00000000000E+00 0. -1.
          6    2    1    2  502    0 -0.88572019542E+02  0.13435903632E+02 -0.15712335914E+03  0.24891198944E+03  0.17100848618E+03 0.  0.
         24    2    3    3    0    0 -0.81245617413E+02  0.43448751788E+02 -0.17495967134E+03  0.21293044896E+03  0.78992690277E+02 0.  0.
         -6    2    1    2    0  501  0.88572019542E+02 -0.13435903632E+02  0.24318454641E+03  0.31122468277E+03  0.17232687951E+03 0.  0.
        -24    2    5    5    0    0 -0.20174080817E+02 -0.30033785474E+01  0.12992667739E+03  0.15379537540E+03  0.79724915669E+02 0.  0.
          5    1    3    3  502    0 -0.73264021290E+01 -0.30012848157E+02  0.17836312197E+02  0.35981540481E+02  0.47000000000E+01 0. -1.
        -11    1    4    4    0    0 -0.16685338952E+01 -0.61883896348E+01  0.62094969164E+01  0.89240138719E+01  0.00000000000E+00 0.  1.
         12    1    4    4    0    0 -0.79577083517E+02  0.49637141423E+02 -0.18116916825E+03  0.20400643508E+03  0.00000000000E+00 0. -1.
         -5    1    5    5    0  501  0.10874610036E+03 -0.10432525084E+02  0.11325786902E+03  0.15742930736E+03  0.47000000000E+01 0.  1.
         13    1    6    6    0    0 -0.66859536388E+01 -0.16429431815E+02 -0.42793641632E+01  0.18246675408E+02  0.00000000000E+00 0. -1.
        -14    1    6    6    0    0 -0.13488127178E+02  0.13426053267E+02  0.13420604155E+03  0.13554870000E+03  0.00000000000E+00 0.  1.
</event>
<event>
12    1  0.1348628E-002  0.3131358E+03  0.7818608E-02  0.1078852E+00
         -2   -1    0    0    0  501 -0.00000000000E+00  0.00000000000E+00  0.67176076897E+02  0.67176076897E+02  0.00000000000E+00 0. -1.
          2   -1    0    0  502    0  0.00000000000E+00 -0.00000000000E+00 -0.18041436938E+04  0.18041436938E+04  0.00000000000E+00 0.  1.
          6    2    1    2  502    0  0.22398581113E+03 -0.13612580068E+03 -0.12778967725E+04  0.13157623139E+04  0.17178599606E+03 0.  0.
         24    2    3    3    0    0  0.43994644710E+02 -0.27370255826E+02 -0.27001959241E+03  0.28616866173E+03  0.79355296033E+02 0.  0.
         -6    2    1    2    0  501 -0.22398581113E+03  0.13612580068E+03 -0.45907084445E+03  0.55555745679E+03  0.17087472129E+03 0.  0.
        -24    2    5    5    0    0 -0.11165717929E+03  0.10889711672E+03 -0.16857579453E+03  0.24287776959E+03  0.79031036576E+02 0.  0.
          5    1    3    3  502    0  0.17999116643E+03 -0.10875554485E+03 -0.10078771800E+04  0.10295936522E+04  0.47000000000E+01 0. -1.
        -13    1    4    4    0    0 -0.38956213297E+01  0.41143733253E+01 -0.17576902918E+03  0.17586032967E+03  0.00000000000E+00 0.  1.
         14    1    4    4    0    0  0.47890266039E+02 -0.31484629151E+02 -0.94250563230E+02  0.11030833207E+03  0.00000000000E+00 0. -1.
         -5    1    5    5    0  501 -0.11232863185E+03  0.27228683958E+02 -0.29049504992E+03  0.31267968720E+03  0.47000000000E+01 0.  1.
         11    1    6    6    0    0 -0.10605172834E+03  0.71148488516E+02 -0.92242937710E+02  0.15753677685E+03  0.00000000000E+00 0. -1.
        -12    1    6    6    0    0 -0.56054509463E+01  0.37748628204E+02 -0.76332856820E+02  0.85340992740E+02  0.00000000000E+00 0.  1.
</event>
<event>
12    1  0.1348628E-002  0.1912967E+03  0.7818608E-02  0.1157297E+00
          1   -1    0    0  502    0  0.00000000000E+00  0.00000000000E+00  0.20164458400E+04  0.20164458400E+04  0.00000000000E+00 0.  1.
         -1   -1    0    0    0  501 -0.00000000000E+00 -0.00000000000E+00 -0.18166547323E+02  0.18166547323E+02  0.00000000000E+00 0. -1.
          6    2    1    2  502    0  0.63606325307E+02 -0.52770528295E+02  0.96601896103E+03  0.98475527400E+03  0.17239438305E+03 0.  0.
         24    2    3    3    0    0 -0.28734112737E+02 -0.12521193545E+01  0.44031781520E+03  0.44850469106E+03  0.80308545561E+02 0.  0.
         -6    2    1    2    0  501 -0.63606325307E+02  0.52770528295E+02  0.10322603317E+04  0.10498571134E+04  0.17265014581E+03 0.  0.
        -24    2    5    5    0    0 -0.28336321469E+02  0.96389342788E+02  0.57433480303E+03  0.58848475406E+03  0.79749528292E+02 0.  0.
          5    1    3    3  502    0  0.92340438044E+02 -0.51518408941E+02  0.52570114584E+03  0.53625058293E+03  0.47000000000E+01 0. -1.
        -13    1    4    4    0    0  0.40301239120E+01  0.64552606809E+01  0.37452308672E+03  0.37460039345E+03  0.00000000000E+00 0.  1.
         14    1    4    4    0    0 -0.32764236649E+02 -0.77073800354E+01  0.65794728479E+02  0.73904297614E+02  0.00000000000E+00 0. -1.
         -5    1    5    5    0  501 -0.35270003838E+02 -0.43618814492E+02  0.45792552865E+03  0.46137235931E+03  0.47000000000E+01 0.  1.
         13    1    6    6    0    0  0.76886744969E+01  0.63972590496E+02  0.18003178278E+03  0.19121467219E+03  0.00000000000E+00 0. -1.
        -14    1    6    6    0    0 -0.36024995966E+02  0.32416752292E+02  0.39430302025E+03  0.39727008186E+03  0.00000000000E+00 0.  1.
</event>
<event>
12    1  0.1348628E-002  0.1999249E+03  0.7818608E-02  0.1149802E+00
          1   -1    0    0  502    0  0.00000000000E+00  0.00000000000E+00  0.26221352397E+04  0.26221352397E+04  0.00000000000E+00 0. -1.
         -1   -1    0    0    0  501 -0.00000000000E+00 -0.00000000000E+00 -0.15343469170E+02  0.15343469170E+02  0.00000000000E+00 0.  1.
          6    2    1    2  502    0 -0.84457274412E+02 -0.63650015065E+02  0.14171562509E+04  0.14313509698E+04  0.17102457069E+03 0.  0.
         24    2    3    3    0    0  0.91831292765E+01 -0.23038506143E+02  0.38376112914E+03  0.39291686623E+03  0.80597499351E+02 0.  0.
         -6    2    1    2    0  501  0.84457274412E+02  0.63650015065E+02  0.11896355196E+04  0.12061277390E+04  0.16830655861E+03 0.  0.
        -24    2    5    5    0    0  0.66693106729E+02 -0.28256996635E+01  0.98000961433E+03  0.98544766182E+03  0.78944885530E+02 0.  0.
          5    1    3    3  502    0 -0.93640403689E+02 -0.40611508921E+02  0.10333951218E+04  0.10384341036E+04  0.47000000000E+01 0. -1.
        -11    1    4    4    0    0 -0.17473368935E+02  0.19559708815E+02  0.62970960130E+02  0.68214680609E+02  0.00000000000E+00 0.  1.
         12    1    4    4    0    0  0.26656498212E+02 -0.42598214959E+02  0.32079016901E+03  0.32470218562E+03  0.00000000000E+00 0. -1.
         -5    1    5    5    0  501  0.17764167683E+02  0.66475714728E+02  0.20962590527E+03  0.22068007718E+03  0.47000000000E+01 0.  1.
         13    1    6    6    0    0 -0.66355819732E+01  0.21134570783E+02  0.12349547245E+03  0.12546646064E+03  0.00000000000E+00 0. -1.
        -14    1    6    6    0    0  0.73328688702E+02 -0.23960270446E+02  0.85651414188E+03  0.85998120118E+03  0.00000000000E+00 0.  1.
</event>
<event>
12    1  0.1348628E-002  0.1884666E+03  0.7818608E-02  0.1159852E+00
         -1   -1    0    0    0  501 -0.00000000000E+00  0.00000000000E+00  0.63893078920E+03  0.63893078920E+03  0.00000000000E+00 0.  1.
          1   -1    0    0  502    0  0.00000000000E+00 -0.00000000000E+00 -0.58570928760E+02  0.58570928760E+02  0.00000000000E+00 0. -1.
          6    2    1    2  502    0  0.76848290485E+02 -0.79066170370E+01  0.36846085830E+03  0.41375023266E+03  0.17163238793E+03 0.  0.
         24    2    3    3    0    0 -0.13050663227E+02 -0.39466606866E+02  0.15777629675E+03  0.18247565708E+03  0.81707238004E+02 0.  0.
         -6    2    1    2    0  501 -0.76848290485E+02  0.79066170370E+01  0.21189900214E+03  0.28375148530E+03  0.17217881390E+03 0.  0.
        -24    2    5    5    0    0 -0.96962618823E+02  0.27734913865E+02  0.82008176952E+02  0.15074222236E+03  0.76334144510E+02 0.  0.
          5    1    3    3  502    0  0.89898953712E+02  0.31559989829E+02  0.21068456155E+03  0.23127457558E+03  0.47000000000E+01 0. -1.
        -11    1    4    4    0    0 -0.71181398510E-01 -0.20264885215E+02  0.15800328859E+03  0.15929755128E+03  0.00000000000E+00 0.  1.
         12    1    4    4    0    0 -0.12979481828E+02 -0.19201721651E+02 -0.22699184283E+00  0.23178105794E+02  0.00000000000E+00 0. -1.
         -5    1    5    5    0  501  0.20114328337E+02 -0.19828296828E+02  0.12989082519E+03  0.13300926294E+03  0.47000000000E+01 0.  1.
         11    1    6    6    0    0 -0.48243571874E+02 -0.22591812978E+02  0.52313052370E+02  0.74662491848E+02  0.00000000000E+00 0. -1.
        -12    1    6    6    0    0 -0.48719046949E+02  0.50326726843E+02  0.29695124582E+02  0.76079730509E+02  0.00000000000E+00 0.  1.
</event>
<event>
12    1  0.1348628E-002  0.2163081E+03  0.7818608E-02  0.1136666E+00
         -2   -1    0    0    0  501 -0.00000000000E+00  0.00000000000E+00  0.16869470702E+03  0.16869470702E+03  0.00000000000E+00 0. -1.
          2   -1    0    0  502    0  0.00000000000E+00 -0.00000000000E+00 -0.27986926629E+03  0.27986926629E+03  0.00000000000E+00 0.  1.
          6    2    1    2  502    0  0.11313532323E+03  0.66062983851E+02 -0.76761370248E+02  0.22929954569E+03  0.17181983150E+03 0.  0.
         24    2    3    3    0    0  0.55547960591E+02  0.41944934893E+02 -0.11545727713E+03  0.15569623170E+03  0.77884403031E+02 0.  0.
         -6    2    1    2    0  501 -0.11313532323E+03 -0.66062983851E+02 -0.34413189025E+02  0.21926442761E+03  0.17242013351E+03 0.  0.
        -24    2    5    5    0    0 -0.25138132095E+02  0.23044040210E+02 -0.36873927929E+02  0.93918057017E+02  0.79359696311E+02 0.  0.
          5    1    3    3  502    0  0.57587362639E+02  0.24118048958E+02  0.38695906881E+02  0.73603313992E+02  0.47000000000E+01 0. -1.
        -13    1    4    4    0    0  0.55880318930E+02 -0.62433145195E+01 -0.64263385870E+02  0.85389529706E+02  0.00000000000E+00 0.  1.
         14    1    4    4    0    0 -0.33235833875E+00  0.48188249413E+02 -0.51193891258E+02  0.70306701997E+02  0.00000000000E+00 0. -1.
         -5    1    5    5    0  501 -0.87997191135E+02 -0.89107024061E+02  0.24607389042E+01  0.12534637059E+03  0.47000000000E+01 0.  1.
         11    1    6    6    0    0  0.98508385788E+01 -0.14483284414E+02 -0.38803460342E+02  0.42573619562E+02  0.00000000000E+00 0. -1.
        -12    1    6    6    0    0 -0.34988970674E+02  0.37527324624E+02  0.19295324126E+01  0.51344437455E+02  0.00000000000E+00 0.  1.
</event>
<event>
12    1  0.1348628E-002  0.1764469E+03  0.7818608E-02  0.1171287E+00
         -2   -1    0    0    0  501 -0.00000000000E+00  0.00000000000E+00  0.76119168098E+02  0.76119168098E+02  0.00000000000E+00 0.  1.
          2   -1    0    0  502    0  0.00000000000E+00 -0.00000000000E+00 -0.48974660154E+03  0.48974660154E+03  0.00000000000E+00 0. -1.
          6    2    1    2  502    0  0.99857875712E+01 -0.33337127324E+02 -0.92494537413E+02  0.19972278648E+03  0.17355941916E+03 0.  0.
         24    2    3    3    0    0 -0.37515936805E+02 -0.72840280487E+02 -0.72920735461E+02  0.13474481598E+03  0.78266083308E+02 0.  0.
         -6    2    1    2    0  501 -0.99857875712E+01  0.33337127324E+02 -0.32113289603E+03  0.36614298315E+03  0.17240437114E+03 0.  0.
        -24    2    5    5    0    0  0.10488977119E+02 -0.21856177949E+02 -0.74516194770E+02  0.11255393710E+03  0.80796128121E+02 0.  0.
          5    1    3    3  502    0  0.47501724376E+02  0.39503153163E+02 -0.19573801952E+02  0.64977970509E+02  0.47000000000E+01 0. -1.
        -11    1    4    4    0    0  0.38148032504E+01 -0.52171041383E+02 -0.71396310485E+02  0.88508776027E+02  0.00000000000E+00 0.  1.
         12    1    4    4    0    0 -0.41330740056E+02 -0.20669239104E+02 -0.15244249757E+01  0.46236039949E+02  0.00000000000E+00 0. -1.
         -5    1    5    5    0  501 -0.20474764690E+02  0.55193305272E+02 -0.24661670126E+03  0.25358904605E+03  0.47000000000E+01 0.  1.
         11    1    6    6    0    0 -0.30491164801E+02 -0.78547048687E+01 -0.68607610655E+01  0.32225417948E+02  0.00000000000E+00 0. -1.
        -12    1    6    6    0    0  0.40980141920E+02 -0.14001473080E+02 -0.67655433705E+02  0.80328519157E+02  0.00000000000E+00 0.  1.
</event>
<event>
12    1  0.1348628E-002  0.1871778E+03  0.7818608E-02  0.1161032E+00
          2   -1    0    0  502    0  0.00000000000E+00  0.00000000000E+00  0.14586536938E+04  0.14586536938E+04  0.00000000000E+00 0.  1.
         -2   -1    0    0    0  501 -0.00000000000E+00 -0.00000000000E+00 -0.30238780210E+02  0.30238780210E+02  0.00000000000E+00 0. -1.
          6    2    1    2  502    0  0.75002194206E+01 -0.72016928835E+02  0.37930184116E+03  0.42336839287E+03  0.17357481972E+03 0.  0.
         24    2    3    3    0    0  0.31861669671E+02 -0.63016449897E+02  0.38228384160E+03  0.39680768493E+03  0.79556045148E+02 0.  0.
         -6    2    1    2    0  501 -0.75002194206E+01  0.72016928835E+02  0.10491130725E+04  0.10655240812E+04  0.17164101323E+03 0.  0.
        -24    2    5    5    0    0  0.28816119054E+02 -0.17140204256E+02  0.54797172671E+03  0.55519809786E+03  0.82751188980E+02 0.  0.
          5    1    3    3  502    0 -0.24361450250E+02 -0.90004789384E+01 -0.29820004420E+01  0.26560707936E+02  0.47000000000E+01 0. -1.
        -13    1    4    4    0    0  0.20024534818E+02  0.82570974060E+01  0.19286501762E+03  0.19407750172E+03  0.00000000000E+00 0.  1.
         14    1    4    4    0    0  0.11837134853E+02 -0.71273547303E+02  0.18941882398E+03  0.20273018321E+03  0.00000000000E+00 0. -1.
         -5    1    5    5    0  501 -0.36316338475E+02  0.89157133091E+02  0.50114134577E+03  0.51032598333E+03  0.47000000000E+01 0.  1.
         11    1    6    6    0    0  0.48356880577E+02  0.15190441588E+02  0.27605409540E+03  0.28066884580E+03  0.00000000000E+00 0. -1.
        -12    1    6    6    0    0 -0.19540761524E+02 -0.32330645844E+02  0.27191763131E+03  0.27452925206E+03  0.00000000000E+00 0.  1.
</event>
<event>
12    1  0.1348628E-002  0.2856680E+03  0.7818608E-02  0.1092633E+00
         -2   -1    0    0    0  501 -0.00000000000E+00  0.00000000000E+00  0.32887633678E+03  0.32887633678E+03  0.00000000000E+00 0. -1.
          2   -1    0    0  502    0  0.00000000000E+00 -0.00000000000E+00 -0.28326170181E+03  0.28326170181E+03  0.00000000000E+00 0.  1.
          6    2    1    2  502    0  0.22737227335E+03  0.20094245960E+02 -0.84966568982E+02  0.29810948723E+03  0.17189537260E+03 0.  0.
         24    2    3    3    0    0  0.23310742583E+03 -0.10899991659E+02 -0.82789445930E+02  0.26616634079E+03  0.97634762354E+02 0.  0.
         -6    2    1    2    0  501 -0.22737227335E+03 -0.20094245960E+02  0.13058120395E+03  0.31402855136E+03  0.17164076099E+03 0.  0.
        -24    2    5    5    0    0 -0.11511267437E+03  0.52338178620E+02  0.10051289279E+03  0.17700714051E+03  0.72377299152E+02 0.  0.
          5    1    3    3  502    0 -0.57351524737E+01  0.30994237619E+02 -0.21771230515E+01  0.31943146436E+02  0.47000000000E+01 0. -1.
        -11    1    4    4    0    0  0.12711316352E+03 -0.38648587834E+02 -0.82898097707E+02  0.15660001369E+03  0.00000000000E+00 0.  1.
         12    1    4    4    0    0  0.10599426230E+03  0.27748596175E+02  0.10865177663E+00  0.10956632711E+03  0.00000000000E+00 0. -1.
         -5    1    5    5    0  501 -0.11225959899E+03 -0.72432424580E+02  0.30068311161E+02  0.13702141085E+03  0.47000000000E+01 0.  1.
         13    1    6    6    0    0 -0.11784286262E+02  0.51271087598E+01  0.51852346053E+02  0.53421179678E+02  0.00000000000E+00 0. -1.
        -14    1    6    6    0    0 -0.10332838810E+03  0.47211069860E+02  0.48660546738E+02  0.12358596083E+03  0.00000000000E+00 0.  1.
</event>
<event>
12    1  0.1348628E-002  0.2093961E+03  0.7818608E-02  0.1142045E+00
         -1   -1    0    0    0  501 -0.00000000000E+00  0.00000000000E+00  0.40716668247E+02  0.40716668247E+02  0.00000000000E+00 0.  1.
          1   -1    0    0  502    0  0.00000000000E+00 -0.00000000000E+00 -0.20518580863E+04  0.20518580863E+04  0.00000000000E+00 0. -1.
          6    2    1    2  502    0  0.11849676283E+03  0.16413250770E+02 -0.17292993571E+04  0.17420510243E+04  0.17307405030E+03 0.  0.
         24    2    3    3    0    0  0.93971636389E+01 -0.33951452293E+02 -0.80190177766E+03  0.80688917394E+03  0.82356968155E+02 0.  0.
         -6    2    1    2    0  501 -0.11849676283E+03 -0.16413250770E+02 -0.28184206090E+03  0.35052373028E+03  0.17064893963E+03 0.  0.
        -24    2    5    5    0    0 -0.49083047267E+02 -0.31014663809E+02 -0.59062213259E+02  0.11667673824E+03  0.82183096265E+02 0.  0.
          5    1    3    3  502    0  0.10909959920E+03  0.50364703063E+02 -0.92739757949E+03  0.93516185032E+03  0.47000000000E+01 0. -1.
        -11    1    4    4    0    0 -0.31304449203E+02  0.67227499411E+01 -0.29389799946E+03  0.29563693611E+03  0.00000000000E+00 0.  1.
         12    1    4    4    0    0  0.40701612842E+02 -0.40674202234E+02 -0.50800377820E+03  0.51125223783E+03  0.00000000000E+00 0. -1.
         -5    1    5    5    0  501 -0.69413715567E+02  0.14601413039E+02 -0.22277984764E+03  0.23384699204E+03  0.47000000000E+01 0.  1.
         11    1    6    6    0    0 -0.49882477199E+02 -0.39887768072E+02 -0.74943409313E+02  0.98467305095E+02  0.00000000000E+00 0. -1.
        -12    1    6    6    0    0  0.79942993174E+00  0.88731042634E+01  0.15881196053E+02  0.18209433148E+02  0.00000000000E+00 0.  1.
</event>
<event>
12    1  0.1348628E-002  0.1824895E+03  0.7818608E-02  0.1165415E+00
          1   -1    0    0  502    0  0.00000000000E+00  0.00000000000E+00  0.39456486412E+03  0.39456486412E+03  0.00000000000E+00 0. -1.
         -1   -1    0    0    0  501 -0.00000000000E+00 -0.00000000000E+00 -0.87441862045E+02  0.87441862045E+02  0.00000000000E+00 0.  1.
          6    2    1    2  502    0  0.62330133532E+02  0.10396672338E+02  0.19903679260E+03  0.27049676200E+03  0.17192939569E+03 0.  0.
         24    2    3    3    0    0  0.32384988436E+02  0.72465820100E+02  0.10277953870E+03  0.15201959227E+03  0.79033159492E+02 0.  0.
         -6    2    1    2    0  501 -0.62330133532E+02 -0.10396672338E+02  0.10808620947E+03  0.21150996416E+03  0.17047199160E+03 0.  0.
        -24    2    5    5    0    0  0.12759431195E+00 -0.48437191303E+02  0.13927136211E+02  0.92194961218E+02  0.77199533478E+02 0.  0.
          5    1    3    3  502    0  0.29945145096E+02 -0.62069147762E+02  0.96257253897E+02  0.11847716973E+03  0.47000000000E+01 0. -1.
        -13    1    4    4    0    0 -0.88689084135E+01 -0.35766338473E+01 -0.72872335353E+01  0.12023045318E+02  0.00000000000E+00 0.  1.
         14    1    4    4    0    0  0.41253896850E+02  0.76042453947E+02  0.11006677224E+03  0.13999654695E+03  0.00000000000E+00 0. -1.
         -5    1    5    5    0  501 -0.62457727844E+02  0.38040518965E+02  0.94159073260E+02  0.11931500295E+03  0.47000000000E+01 0.  1.
         13    1    6    6    0    0 -0.40779204949E+01 -0.50766884744E+02  0.40574863563E+02  0.65117014484E+02  0.00000000000E+00 0. -1.
        -14    1    6    6    0    0  0.42055148068E+01  0.23296934410E+01 -0.26647727352E+02  0.27077946734E+02  0.00000000000E+00 0.  1.
</event>
<event>
12    1  0.1348628E-002  0.1847844E+03  0.7818608E-02  0.1163251E+00
         -2   -1    0    0    0  501 -0.00000000000E+00  0.00000000000E+00  0.54292519915E+02  0.54292519915E+02  0.00000000000E+00 0.  1.
          2   -1    0    0  502    0  0.00000000000E+00 -0.00000000000E+00 -0.71150741190E+03  0.71150741190E+03  0.00000000000E+00 0. -1.
          6    2    1    2  502    0 -0.66606583323E+02 -0.20146399779E+01 -0.19760012999E+03  0.27029932688E+03  0.17197505349E+03 0.  0.
         24    2    3    3    0    0  0.14792965061E+02  0.72533252776E+01 -0.28894037106E+02  0.82694376427E+02  0.75710316136E+02 0.  0.
         -6    2    1    2    0  501  0.66606583323E+02  0.20146399779E+01 -0.45961476199E+03  0.49550060493E+03  0.17272702259E+03 0.  0.
        -24    2    5    5    0    0  0.68326570829E+02  0.15788922176E+02 -0.14252556837E+03  0.17807291881E+03  0.80489852958E+02 0.  0.
          5    1    3    3  502    0 -0.81399548384E+02 -0.92679652555E+01 -0.16870609289E+03  0.18760495045E+03  0.47000000000E+01 0. -1.
        -13    1    4    4    0    0  0.21454513283E+01  0.32163384115E+02  0.10939623670E+02  0.34040587615E+02  0.00000000000E+00 0.  1.
         14    1    4    4    0    0  0.12647513733E+02 -0.24910058837E+02 -0.39833660776E+02  0.48653788812E+02  0.00000000000E+00 0. -1.
         -5    1    5    5    0  501 -0.17199875057E+01 -0.13774282198E+02 -0.31708919362E+03  0.31742768613E+03  0.47000000000E+01 0.  1.
         13    1    6    6    0    0  0.84590437618E+02  0.22885484972E+02 -0.12809157770E+03  0.15519903297E+03  0.00000000000E+00 0. -1.
        -14    1    6    6    0    0 -0.16263866789E+02 -0.70965627958E+01 -0.14433990667E+02  0.22873885831E+02  0.00000000000E+00 0.  1.
</event>
<event>
12    1  0.1348628E-002  0.2520919E+03  0.7818608E-02  0.1111990E+00
          1   -1    0    0  502    0  0.00000000000E+00  0.00000000000E+00  0.26542830551E+03  0.26542830551E+03  0.00000000000E+00 0. -1.
         -1   -1    0    0    0  501 -0.00000000000E+00 -0.00000000000E+00 -0.25390905747E+03  0.25390905747E+03  0.00000000000E+00 0.  1.
          6    2    1    2  502    0  0.14825766893E+03 -0.11235063466E+03 -0.56254444430E+02  0.25846003362E+03  0.17039373509E+03 0.  0.
         24    2    3    3    0    0  0.35976110488E+02 -0.18823602256E+02  0.23771410253E+02  0.91784655794E+02  0.78808213824E+02 0.  0.
         -6    2    1    2    0  501 -0.14825766893E+03  0.11235063466E+03  0.67773692475E+02  0.26087732936E+03  0.16988439033E+03 0.  0.
        -24    2    5    5    0    0 -0.13945632097E+03  0.64156095256E+02 -0.62212893935E+01  0.17200931095E+03  0.77359088647E+02 0.  0.
          5    1    3    3  502    0  0.11228155844E+03 -0.93527032402E+02 -0.80025854683E+02  0.16667537783E+03  0.47000000000E+01 0. -1.
        -13    1    4    4    0    0  0.20916544617E+00 -0.94420666106E+01 -0.27211665056E+02  0.28804011651E+02  0.00000000000E+00 0.  1.
         14    1    4    4    0    0  0.35766945041E+02 -0.93815356451E+01  0.50983075309E+02  0.62980644143E+02  0.00000000000E+00 0. -1.
         -5    1    5    5    0  501 -0.88013479626E+01  0.48194539402E+02  0.73994981868E+02  0.88868018408E+02  0.47000000000E+01 0.  1.
         11    1    6    6    0    0 -0.99096010656E+02  0.37287948703E+02  0.31625308191E+02  0.11050145051E+03  0.00000000000E+00 0. -1.
        -12    1    6    6    0    0 -0.40360310310E+02  0.26868146553E+02 -0.37846597584E+02  0.61507860442E+02  0.00000000000E+00 0.  1.
</event>
<event>
12    1  0.1348628E-002  0.1911137E+03  0.7818608E-02  0.1157461E+00
         -2   -1    0    0    0  501 -0.00000000000E+00  0.00000000000E+00  0.25261935868E+02  0.25261935868E+02  0.00000000000E+00 0. -1.
          2   -1    0    0  502    0  0.00000000000E+00 -0.00000000000E+00 -0.23456102781E+04  0.23456102781E+04  0.00000000000E+00 0.  1.
          6    2    1    2  502    0  0.67940839760E+02  0.58632627095E+02 -0.18800313620E+04  0.18893482369E+04  0.16451472751E+03 0.  0.
         24    2    3    3    0    0  0.92810621425E+00  0.47504579935E+02 -0.14956821856E+04  0.14990138683E+04  0.87862566916E+02 0.  0.
         -6    2    1    2    0  501 -0.67940839760E+02 -0.58632627095E+02 -0.44031698031E+03  0.48152397712E+03  0.17301027349E+03 0.  0.
        -24    2    5    5    0    0 -0.68515304505E+02 -0.52373830300E+02 -0.14351274952E+03  0.18461600491E+03  0.77780427777E+02 0.  0.
          5    1    3    3  502    0  0.67012733546E+02  0.11128047159E+02 -0.38434917640E+03  0.39033436857E+03  0.47000000000E+01 0. -1.
        -13    1    4    4    0    0 -0.35281432341E+02 -0.29419218349E+01 -0.70970250842E+03  0.71058502998E+03  0.00000000000E+00 0.  1.
         14    1    4    4    0    0  0.36209538556E+02  0.50446501770E+02 -0.78597967716E+03  0.78842883834E+03  0.00000000000E+00 0. -1.
         -5    1    5    5    0  501  0.57446474499E+00 -0.62587967948E+01 -0.29680423079E+03  0.29690797221E+03  0.47000000000E+01 0.  1.
         13    1    6    6    0    0 -0.97995251422E+01 -0.11408862778E+02  0.80034590159E+01  0.17036672185E+02  0.00000000000E+00 0. -1.
        -14    1    6    6    0    0 -0.58715779363E+02 -0.40964967522E+02 -0.15151620853E+03  0.16757933273E+03  0.00000000000E+00 0.  1.
</event>
<event>
12    1  0.1348628E-002  0.2259806E+03  0.7818608E-02  0.1129501E+00
          2   -1    0    0  502    0  0.00000000000E+00  0.00000000000E+00  0.14955914090E+04  0.14955914090E+04  0.00000000000E+00 0. -1.
         -2   -1    0    0    0  501 -0.00000000000E+00 -0.00000000000E+00 -0.34307229490E+02  0.34307229490E+02  0.00000000000E+00 0.  1.
          6    2    1    2  502    0 -0.44397060574E+02  0.13742717110E+03  0.67594618788E+03  0.71250731930E+03  0.17293381627E+03 0.  0.
         24    2    3    3    0    0 -0.43219978526E+02  0.64838590646E+01  0.21897595610E+03  0.23712177134E+03  0.79788834543E+02 0.  0.
         -6    2    1    2    0  501  0.44397060574E+02 -0.13742717110E+03  0.78533799159E+03  0.81739131914E+03  0.17468680897E+03 0.  0.
        -24    2    5    5    0    0 -0.29606015407E+02 -0.27194119790E+02  0.39080948648E+03  0.40109501577E+03  0.80802974290E+02 0.  0.
          5    1    3    3  502    0 -0.11770820484E+01  0.13094331204E+03  0.45697023177E+03  0.47538554797E+03  0.47000000000E+01 0. -1.
        -11    1    4    4    0    0  0.38118517968E+01 -0.14509220544E+02  0.32722241710E+01  0.15354320107E+02  0.00000000000E+00 0.  1.
         12    1    4    4    0    0 -0.47031830323E+02  0.20993079608E+02  0.21570373193E+03  0.22176745123E+03  0.00000000000E+00 0. -1.
         -5    1    5    5    0  501  0.74003075981E+02 -0.11023305131E+03  0.39452850511E+03  0.41629630337E+03  0.47000000000E+01 0.  1.
         11    1    6    6    0    0 -0.19364910588E+02 -0.98919012735E+01  0.19398431908E+02  0.29140154999E+02  0.00000000000E+00 0. -1.
        -12    1    6    6    0    0 -0.10241104819E+02 -0.17302218517E+02  0.37141105457E+03  0.37195486077E+03  0.00000000000E+00 0.  1.
</event>
<event>
12    1  0.1348628E-002  0.5772567E+03  0.7818608E-02  0.9953748E-01
         -1   -1    0    0    0  501 -0.00000000000E+00  0.00000000000E+00  0.36390423445E+03  0.36390423445E+03  0.00000000000E+00 0.  1.
          1   -1    0    0  502    0  0.00000000000E+00 -0.00000000000E+00 -0.12428374596E+04  0.12428374596E+04  0.00000000000E+00 0. -1.
          6    2    1    2  502    0  0.27837437160E+03  0.47553442243E+03 -0.27418335124E+02  0.57812573958E+03  0.17277826249E+03 0.  0.
         24    2    3    3    0    0  0.25655926844E+03  0.47528069180E+03 -0.41636899925E+01  0.54589482856E+03  0.79179753172E+02 0.  0.
         -6    2    1    2    0  501 -0.27837437160E+03 -0.47553442243E+03 -0.85151488998E+03  0.10286159544E+04  0.17131227672E+03 0.  0.
        -24    2    5    5    0    0 -0.25562284549E+03 -0.34195689985E+03 -0.57473922750E+03  0.72041562376E+03  0.79974563707E+02 0.  0.
          5    1    3    3  502    0  0.21815103165E+02  0.25373062760E+00 -0.23254645131E+02  0.32230911025E+02  0.47000000000E+01 0. -1.
        -11    1    4    4    0    0  0.95100130631E+02  0.15635294125E+03 -0.37733699042E+02  0.18685317532E+03  0.00000000000E+00 0.  1.
         12    1    4    4    0    0  0.16145913781E+03  0.31892775055E+03  0.33570009050E+02  0.35904165324E+03  0.00000000000E+00 0. -1.
         -5    1    5    5    0  501 -0.22751526113E+02 -0.13357752258E+03 -0.27677566248E+03  0.30820033066E+03  0.47000000000E+01 0.  1.
         13    1    6    6    0    0 -0.85577959575E+02 -0.58953957965E+02 -0.12663046658E+03  0.16381218328E+03  0.00000000000E+00 0. -1.
        -14    1    6    6    0    0 -0.17004488591E+03 -0.28300294188E+03 -0.44810876093E+03  0.55660344049E+03  0.00000000000E+00 0.  1.
</event>
<event>
12    1  0.1348628E-002  0.1893467E+03  0.7818608E-02  0.1159052E+00
         -2   -1    0    0    0  501 -0.00000000000E+00  0.00000000000E+00  0.12832068319E+02  0.12832068319E+02  0.00000000000E+00 0.  1.
          2   -1    0    0  502    0  0.00000000000E+00 -0.00000000000E+00 -0.28699304933E+04  0.28699304933E+04  0.00000000000E+00 0. -1.
          6    2    1    2  502    0  0.13494096101E+02  0.77639736244E+02 -0.16673052456E+04  0.16780881734E+04  0.17280948057E+03 0.  0.
         24    2    3    3    0    0  0.72702124889E+02  0.36734535776E+02 -0.83320260791E+03  0.84087366909E+03  0.78783986062E+02 0.  0.
         -6    2    1    2    0  501 -0.13494096101E+02 -0.77639736244E+02 -0.11897931794E+04  0.12046743882E+04  0.17153003397E+03 0.  0.
        -24    2    5    5    0    0 -0.70695724354E+01 -0.11855621978E+03 -0.10084181740E+04  0.10185711488E+04  0.80463752145E+02 0.  0.
          5    1    3    3  502    0 -0.59208028789E+02  0.40905200467E+02 -0.83410263767E+03  0.83721450434E+03  0.47000000000E+01 0. -1.
        -13    1    4    4    0    0  0.13012656159E+02 -0.24051512000E+01 -0.16938860619E+02  0.21495091804E+02  0.00000000000E+00 0.  1.
         14    1    4    4    0    0  0.59689468730E+02  0.39139686976E+02 -0.81626374730E+03  0.81937857729E+03  0.00000000000E+00 0. -1.
         -5    1    5    5    0  501 -0.64245236652E+01  0.40916483541E+02 -0.18137500541E+03  0.18610323941E+03  0.47000000000E+01 0.  1.
         11    1    6    6    0    0  0.37411271119E+01 -0.94023180307E+02 -0.94561326779E+03  0.95028354015E+03  0.00000000000E+00 0. -1.
        -12    1    6    6    0    0 -0.10810699547E+02 -0.24533039477E+02 -0.62804906233E+02  0.68287608668E+02  0.00000000000E+00 0.  1.
</event>
<event>
12    1  0.1348628E-002  0.1836736E+03  0.7818608E-02  0.1164294E+00
         -1   -1    0    0    0  501 -0.00000000000E+00  0.00000000000E+00  0.42328102322E+02  0.42328102322E+02  0.00000000000E+00 0.  1.
          1   -1    0    0  502    0  0.00000000000E+00 -0.00000000000E+00 -0.83250567046E+03  0.83250567046E+03  0.00000000000E+00 0. -1.
          6    2    1    2  502    0 -0.15449657994E+02  0.60864465541E+02 -0.30723346149E+03  0.35855669951E+03  0.17386009264E+03 0.  0.
         24    2    3    3    0    0 -0.72451386218E+02  0.55626294334E+02 -0.15892008640E+03  0.19951084862E+03  0.78774976155E+02 0.  0.
         -6    2    1    2    0  501  0.15449657994E+02 -0.60864465541E+02 -0.48294410665E+03  0.51627707327E+03  0.17135877898E+03 0.  0.
        -24    2    5    5    0    0 -0.34886170886E+02 -0.51739389840E+01 -0.37281413928E+03  0.38291354703E+03  0.79928639975E+02 0.  0.
          5    1    3    3  502    0  0.57001728224E+02  0.52381712075E+01 -0.14831337508E+03  0.15904585089E+03  0.47000000000E+01 0. -1.
        -11    1    4    4    0    0 -0.31757441292E+02  0.69695644929E+02 -0.89233082967E+02  0.11759490251E+03  0.00000000000E+00 0.  1.
         12    1    4    4    0    0 -0.40693944926E+02 -0.14069350595E+02 -0.69687003437E+02  0.81915946115E+02  0.00000000000E+00 0. -1.
         -5    1    5    5    0  501  0.50335828880E+02 -0.55690526557E+02 -0.11012996737E+03  0.13336352624E+03  0.47000000000E+01 0.  1.
         11    1    6    6    0    0  0.15351617543E+02 -0.13870799143E+02 -0.23604975946E+03  0.23695476398E+03  0.00000000000E+00 0. -1.
        -12    1    6    6    0    0 -0.50237788429E+02  0.86968601594E+01 -0.13676437982E+03  0.14595878305E+03  0.00000000000E+00 0.  1.
</event>
<event>
12    1  0.1348628E-002  0.2234211E+03  0.7818608E-02  0.1131358E+00
          1   -1    0    0  502    0  0.00000000000E+00  0.00000000000E+00  0.40249158616E+03  0.40249158616E+03  0.00000000000E+00 0.  1.
         -1   -1    0    0    0  501 -0.00000000000E+00 -0.00000000000E+00 -0.12682256883E+03  0.12682256883E+03  0.00000000000E+00 0. -1.
          6    2    1    2  502    0 -0.32945666817E+02  0.13788793399E+03  0.17778332356E+03  0.28633676780E+03  0.17402107677E+03 0.  0.
         24    2    3    3    0    0 -0.36718105876E+02  0.46477190240E+01  0.91066534767E+02  0.12724849784E+03  0.80803749032E+02 0.  0.
         -6    2    1    2    0  501  0.32945666817E+02 -0.13788793399E+03  0.97885693775E+02  0.24297738719E+03  0.17134147874E+03 0.  0.
        -24    2    5    5    0    0 -0.15408020666E+01 -0.10937140166E+03  0.13982057430E+01  0.13651408601E+03  0.81668005534E+02 0.  0.
          5    1    3    3  502    0  0.37724390596E+01  0.13324021497E+03  0.86716788790E+02  0.15908826996E+03  0.47000000000E+01 0. -1.
        -11    1    4    4    0    0 -0.58446415239E+02  0.16207086819E+02  0.79660586962E+02  0.10012223645E+03  0.00000000000E+00 0.  1.
         12    1    4    4    0    0  0.21728309363E+02 -0.11559367795E+02  0.11405947804E+02  0.27126261388E+02  0.00000000000E+00 0. -1.
         -5    1    5    5    0  501  0.34486468883E+02 -0.28516532336E+02  0.96487488032E+02  0.10646330119E+03  0.47000000000E+01 0.  1.
         13    1    6    6    0    0  0.38926211339E+02 -0.58148570379E+02 -0.84979408181E+01  0.70489156362E+02  0.00000000000E+00 0. -1.
        -14    1    6    6    0    0 -0.40467013406E+02 -0.51222831276E+02  0.98961465611E+01  0.66024929645E+02  0.00000000000E+00 0.  1.
</event>
<event>
12    1  0.1348628E-002  0.1875068E+03  0.7818608E-02  0.1160729E+00
          1   -1    0    0  502    0  0.00000000000E+00  0.00000000000E+00  0.93370975106E+03  0.93370975106E+03  0.00000000000E+00 0.  1.
         -1   -1    0    0    0  501 -0.00000000000E+00 -0.00000000000E+00 -0.42216246073E+02  0.42216246073E+02  0.00000000000E+00 0. -1.
          6    2    1    2  502    0 -0.52149037901E+01 -0.73860871223E+02  0.60703187656E+03  0.63545646233E+03  0.17272693139E+03 0.  0.
         24    2    3    3    0    0 -0.57792089947E+02 -0.61176448015E+02  0.52053146641E+03  0.53333072584E+03  0.80038566635E+02 0.  0.
         -6    2    1    2    0  501  0.52149037901E+01  0.73860871223E+02  0.28446162843E+03  0.34046953481E+03  0.17180937858E+03 0.  0.
        -24    2    5    5    0    0 -0.56774285616E+02  0.31047060155E+02  0.11710063653E+03  0.15687358271E+03  0.81911674522E+02 0.  0.
          5    1    3    3  502    0  0.52577186157E+02 -0.12684423208E+02  0.86500410157E+02  0.10212573649E+03  0.47000000000E+01 0. -1.
        -11    1    4    4    0    0 -0.49647755990E+02 -0.60631117303E+02  0.23576928582E+03  0.24845158119E+03  0.00000000000E+00 0.  1.
         12    1    4    4    0    0 -0.81443339570E+01 -0.54533071257E+00  0.28476218059E+03  0.28487914464E+03  0.00000000000E+00 0. -1.
         -5    1    5    5    0  501  0.61989189406E+02  0.42813811068E+02  0.16736099189E+03  0.18359595210E+03  0.47000000000E+01 0.  1.
         13    1    6    6    0    0 -0.40107409560E+02 -0.12975980297E+02  0.15527508888E+02  0.44923088702E+02  0.00000000000E+00 0. -1.
        -14    1    6    6    0    0 -0.16666876057E+02  0.44023040452E+02  0.10157312764E+03  0.11195049400E+03  0.00000000000E+00 0.  1.
</event>
<event>
12    1  0.1348628E-002  0.1831565E+03  0.7818608E-02  0.1164783E+00
         -1   -1    0    0    0  501 -0.00000000000E+00  0.00000000000E+00  0.58191738729E+03  0.58191738729E+03  0.00000000000E+00 0.  1.
          1   -1    0    0  502    0  0.00000000000E+00 -0.00000000000E+00 -0.79775405246E+02  0.79775405246E+02  0.00000000000E+00 0. -1.
          6    2    1    2  502    0 -0.61267680895E+02 -0.15104481491E+02  0.76784462397E+02  0.19856112231E+03  0.17189761937E+03 0.  0.
         24    2    3    3    0    0 -0.62500860576E+02  0.88069292863E+01  0.11452508609E+03  0.15361981643E+03  0.80617200906E+02 0.  0.
         -6    2    1    2    0  501  0.61267680895E+02  0.15104481491E+02  0.42535751965E+03  0.46313167023E+03  0.17198851811E+03 0.  0.
        -24    2    5    5    0    0  0.24856899427E+02  0.26401190347E+02  0.87216251930E+02  0.12281568827E+03  0.78499238114E+02 0.  0.
          5    1    3    3  502    0  0.12331796814E+01 -0.23911410777E+02 -0.37740623690E+02  0.44941305877E+02  0.47000000000E+01 0. -1.
        -13    1    4    4    0    0 -0.61584605768E+02  0.25484232692E+02  0.41063940845E+02  0.78283823496E+02  0.00000000000E+00 0.  1.
         14    1    4    4    0    0 -0.91625480885E+00 -0.16677303406E+02  0.73461145242E+02  0.75335992938E+02  0.00000000000E+00 0. -1.
         -5    1    5    5    0  501  0.36410781468E+02 -0.11296708856E+02  0.33814126772E+03  0.34031598196E+03  0.47000000000E+01 0.  1.
         13    1    6    6    0    0  0.49221569015E+02  0.15637886720E+01  0.64946528054E+02  0.81506194842E+02  0.00000000000E+00 0. -1.
        -14    1    6    6    0    0 -0.24364669587E+02  0.24837401674E+02  0.22269723875E+02  0.41309493431E+02  0.00000000000E+00 0.  1.
</event>
<event>
12    1  0.1348628E-002  0.2143279E+03  0.7818608E-02  0.1138184E+00
          2   -1    0    0  502    0  0.00000000000E+00  0.00000000000E+00  0.54577258526E+02  0.54577258526E+02  0.00000000000E+00 0. -1.
         -2   -1    0    0    0  501 -0.00000000000E+00 -0.00000000000E+00 -0.12623427714E+04  0.12623427714E+04  0.00000000000E+00 0.  1.
          6    2    1    2  502    0  0.11968711292E+03 -0.41766675319E+02 -0.98706977840E+03  0.10104244804E+04  0.17487544981E+03 0.  0.
         24    2    3    3    0    0  0.12391705388E+03 -0.83924733588E+02 -0.70611976576E+03  0.72625869447E+03  0.80298010844E+02 0.  0.
         -6    2    1    2    0  501 -0.11968711292E+03  0.41766675319E+02 -0.22069573446E+03  0.30649554953E+03  0.17077310827E+03 0.  0.
        -24    2    5    5    0    0 -0.15393152210E+03  0.27895232500E+02 -0.18856814725E+03  0.25730847455E+03  0.78591649841E+02 0.  0.
          5    1    3    3  502    0 -0.42299409545E+01  0.42158058269E+02 -0.28095001264E+03  0.28416578591E+03  0.47000000000E+01 0. -1.
        -13    1    4    4    0    0  0.44191798521E+02 -0.30066608740E+02 -0.44087852187E+03  0.44410672936E+03  0.00000000000E+00 0.  1.
         14    1    4    4    0    0  0.79725255358E+02 -0.53858124849E+02 -0.26524124389E+03  0.28215196511E+03  0.00000000000E+00 0. -1.
         -5    1    5    5    0  501  0.34244409178E+02  0.13871442819E+02 -0.32127587205E+02  0.49187074983E+02  0.47000000000E+01 0.  1.
         11    1    6    6    0    0 -0.91857409223E+02  0.45748970956E+02 -0.76637366510E+02  0.12807824920E+03  0.00000000000E+00 0. -1.
        -12    1    6    6    0    0 -0.62074112879E+02 -0.17853738455E+02 -0.11193078074E+03  0.12923022535E+03  0.00000000000E+00 0.  1.
</event>
<event>
12    1  0.1348628E-002  0.2301269E+03  0.7818608E-02  0.1126550E+00
          1   -1    0    0  502    0  0.00000000000E+00  0.00000000000E+00  0.96225365749E+03  0.96225365749E+03  0.00000000000E+00 0. -1.
         -1   -1    0    0    0  501 -0.00000000000E+00 -0.00000000000E+00 -0.55039807266E+02  0.55039807266E+02  0.00000000000E+00 0.  1.
          6    2    1    2  502    0  0.10448460904E+03 -0.11549298368E+03  0.45704073215E+03  0.51259416324E+03  0.17207812916E+03 0.  0.
         24    2    3    3    0    0  0.12307300889E+03 -0.13835002036E+03  0.39116423315E+03  0.44027697402E+03  0.80911451026E+02 0.  0.
         -6    2    1    2    0  501 -0.10448460904E+03  0.11549298368E+03  0.45017311807E+03  0.50469930151E+03  0.16676296325E+03 0.  0.
        -24    2    5    5    0    0 -0.53778534052E+02  0.79874809799E+02  0.13662153531E+03  0.18504879642E+03  0.79407160780E+02 0.  0.
          5    1    3    3  502    0 -0.18588399854E+02  0.22857036685E+02  0.65876499003E+02  0.72317189216E+02  0.47000000000E+01 0. -1.
        -13    1    4    4    0    0  0.87121934555E+02 -0.14049410179E+03  0.33478677149E+03  0.37337783341E+03  0.00000000000E+00 0.  1.
         14    1    4    4    0    0  0.35951074340E+02  0.21440814293E+01  0.56377461659E+02  0.66899140611E+02  0.00000000000E+00 0. -1.
         -5    1    5    5    0  501 -0.50706074989E+02  0.35618173880E+02  0.31355158276E+03  0.31965050509E+03  0.47000000000E+01 0.  1.
         11    1    6    6    0    0  0.16167748521E+02  0.42419959731E+02  0.52733941704E+02  0.69582452411E+02  0.00000000000E+00 0. -1.
        -12    1    6    6    0    0 -0.69946282573E+02  0.37454850068E+02  0.83887593602E+02  0.11546634401E+03  0.00000000000E+00 0.  1.
</event>
<event>
12    1  0.1348628E-002  0.3340806E+03  0.7818608E-02  0.1069345E+00
          2   -1    0    0  502    0  0.00000000000E+00  0.00000000000E+00  0.15053340114E+04  0.15053340114E+04  0.00000000000E+00 0. -1.
         -2   -1    0    0    0  501 -0.00000000000E+00 -0.00000000000E+00 -0.76710251134E+02  0.76710251134E+02  0.00000000000E+00 0.  1.
          6    2    1    2  502    0  0.13903547071E+03  0.25081488834E+03  0.85827831382E+03  0.92087535078E+03  0.17067740734E+03 0.  0.
         24    2    3    3    0    0  0.21914914582E+02  0.17580205573E+03  0.51964034979E+03  0.55475800565E+03  0.79647507330E+02 0.  0.
         -6    2    1    2    0  501 -0.13903547071E+03 -0.25081488834E+03  0.57034544648E+03  0.66116891179E+03  0.17207972358E+03 0.  0.
        -24    2    5    5    0    0 -0.12345542338E+03 -0.92841923313E+02  0.33344505786E+03  0.37596358280E+03  0.79386048494E+02 0.  0.
          5    1    3    3  502    0  0.11712055613E+03  0.75012832604E+02  0.33863796403E+03  0.36611734513E+03  0.47000000000E+01 0. -1.
        -11    1    4    4    0    0 -0.14583870889E+02  0.25868376131E+02  0.17007078357E+03  0.17264395037E+03  0.00000000000E+00 0.  1.
         12    1    4    4    0    0  0.36498785471E+02  0.14993367960E+03  0.34956956622E+03  0.38211405528E+03  0.00000000000E+00 0. -1.
         -5    1    5    5    0  501 -0.15580047327E+02 -0.15797296502E+03  0.23690038863E+03  0.28520532899E+03  0.47000000000E+01 0.  1.
         11    1    6    6    0    0 -0.25970693216E+02  0.91893229884E+01  0.94763521652E+02  0.98686602936E+02  0.00000000000E+00 0. -1.
        -12    1    6    6    0    0 -0.97484730167E+02 -0.10203124630E+03  0.23868153620E+03  0.27727697986E+03  0.00000000000E+00 0.  1.
</event>
<event>
12    1  0.1348628E-002  0.3000902E+03  0.7818608E-02  0.1085196E+00
          2   -1    0    0  502    0  0.00000000000E+00  0.00000000000E+00  0.83496872714E+03  0.83496872714E+03  0.00000000000E+00 0.  1.
         -2   -1    0    0    0  501 -0.00000000000E+00 -0.00000000000E+00 -0.10786436881E+03  0.10786436881E+03  0.00000000000E+00 0. -1.
          6    2    1    2  502    0  0.19891110973E+03  0.14285555067E+03  0.36773351264E+03  0.47435262378E+03  0.17265322885E+03 0.  0.
         24    2    3    3    0    0  0.14573818962E+03  0.59797442900E+02  0.13509738505E+03  0.22163209323E+03  0.77808272126E+02 0.  0.
         -6    2    1    2    0  501 -0.19891110973E+03 -0.14285555067E+03  0.35937084569E+03  0.46848047217E+03  0.17422172697E+03 0.  0.
        -24    2    5    5    0    0 -0.41276815514E+02 -0.23082965252E+02  0.63303691351E+02  0.11228966263E+03  0.79781026630E+02 0.  0.
          5    1    3    3  502    0  0.53172920109E+02  0.83058107775E+02  0.23263612759E+03  0.25272053055E+03  0.47000000000E+01 0. -1.
        -11    1    4    4    0    0  0.60550042808E+02  0.39886087107E+01  0.93841550029E+02  0.11175174806E+03  0.00000000000E+00 0.  1.
         12    1    4    4    0    0  0.85188146808E+02  0.55808834189E+02  0.41255835024E+02  0.10988034517E+03  0.00000000000E+00 0. -1.
         -5    1    5    5    0  501 -0.15763429421E+03 -0.11977258542E+03  0.29606715434E+03  0.35619080955E+03  0.47000000000E+01 0.  1.
         11    1    6    6    0    0 -0.57619376043E+02  0.29455305278E+01  0.24226761048E+02  0.62574792022E+02  0.00000000000E+00 0. -1.
        -12    1    6    6    0    0  0.16342560530E+02 -0.26028495780E+02  0.39076930303E+02  0.49714870604E+02  0.00000000000E+00 0.  1.
</event>
<event>
12    1  0.1348628E-002  0.2072005E+03  0.7818608E-02  0.1143802E+00
          2   -1    0    0  502    0  0.00000000000E+00  0.00000000000E+00  0.24028624246E+04  0.24028624246E+04  0.00000000000E+00 0.  1.
         -2   -1    0    0    0  501 -0.00000000000E+00 -0.00000000000E+00 -0.18276611237E+02  0.18276611237E+02  0.00000000000E+00 0. -1.
          6    2    1    2  502    0  0.65978698959E+02 -0.85602045342E+02  0.99498656495E+03  0.10157264781E+04  0.17326602380E+03 0.  0.
         24    2    3    3    0    0  0.89810783044E+02 -0.64313940825E+02  0.95287280400E+03  0.96265284541E+03  0.80818688671E+02 0.  0.
         -6    2    1    2    0  501 -0.65978698959E+02  0.85602045342E+02  0.13895992484E+04  0.14054125578E+04  0.18032605847E+03 0.  0.
        -24    2    5    5    0    0 -0.45961088462E+02 -0.21561260809E+02  0.48581842572E+03  0.49506836767E+03  0.80596751041E+02 0.  0.
          5    1    3    3  502    0 -0.23832084085E+02 -0.21288104518E+02  0.42113760951E+02  0.53073632693E+02  0.47000000000E+01 0. -1.
        -11    1    4    4    0    0  0.25290137331E+02  0.28382304603E+00  0.50157743557E+03  0.50221469062E+03  0.00000000000E+00 0.  1.
         12    1    4    4    0    0  0.64520645713E+02 -0.64597763871E+02  0.45129536843E+03  0.46043815479E+03  0.00000000000E+00 0. -1.
         -5    1    5    5    0  501 -0.20017610497E+02  0.10716330615E+03  0.90378082272E+03  0.91034419009E+03  0.47000000000E+01 0.  1.
         13    1    6    6    0    0  0.21746280614E+02 -0.16589176815E+02  0.13599831620E+03  0.13872146019E+03  0.00000000000E+00 0. -1.
        -14    1    6    6    0    0 -0.67707369076E+02 -0.49720839944E+01  0.34982010952E+03  0.35634690748E+03  0.00000000000E+00 0.  1.
</event>
<event>
12    1  0.1348628E-002  0.1821082E+03  0.7818608E-02  0.1165778E+00
         -1   -1    0    0    0  501 -0.00000000000E+00  0.00000000000E+00  0.62676884217E+02  0.62676884217E+02  0.00000000000E+00 0.  1.
          1   -1    0    0  502    0  0.00000000000E+00 -0.00000000000E+00 -0.56860183883E+03  0.56860183883E+03  0.00000000000E+00 0. -1.
          6    2    1    2  502    0 -0.50651245152E+02 -0.31884475314E+02 -0.16948322199E+03  0.24860118539E+03  0.17174346695E+03 0.  0.
         24    2    3    3    0    0 -0.74427705713E+02 -0.74510111397E+02 -0.13238563565E+03  0.18711471663E+03  0.79966996791E+02 0.  0.
         -6    2    1    2    0  501  0.50651245152E+02  0.31884475314E+02 -0.33644173263E+03  0.38267753766E+03  0.17224079068E+03 0.  0.
        -24    2    5    5    0    0  0.11230092723E+01  0.12494622718E+02 -0.31644063232E+03  0.32565871141E+03  0.75904846952E+02 0.  0.
          5    1    3    3  502    0  0.23776460561E+02  0.42625636083E+02 -0.37097586341E+02  0.61486468760E+02  0.47000000000E+01 0. -1.
        -11    1    4    4    0    0 -0.28069862404E+02 -0.61772335432E+02 -0.30368279396E+02  0.74336875059E+02  0.00000000000E+00 0.  1.
         12    1    4    4    0    0 -0.46357843309E+02 -0.12737775965E+02 -0.10201735625E+03  0.11277784157E+03  0.00000000000E+00 0. -1.
         -5    1    5    5    0  501  0.49528235880E+02  0.19389852596E+02 -0.20001100312E+02  0.57018826248E+02  0.47000000000E+01 0.  1.
         11    1    6    6    0    0  0.24385429108E+02 -0.11184994929E+02 -0.24951599905E+03  0.25095415327E+03  0.00000000000E+00 0. -1.
        -12    1    6    6    0    0 -0.23262419836E+02  0.23679617646E+02 -0.66924633270E+02  0.74704558139E+02  0.00000000000E+00 0.  1.
</event>
<event>
12    1  0.1348628E-002  0.3180284E+03  0.7818608E-02  0.1076560E+00
          2   -1    0    0  502    0  0.00000000000E+00  0.00000000000E+00  0.40649145094E+03  0.40649145094E+03  0.00000000000E+00 0.  1.
         -2   -1    0    0    0  501 -0.00000000000E+00 -0.00000000000E+00 -0.26496520806E+03  0.26496520806E+03  0.00000000000E+00 0. -1.
          6    2    1    2  502    0  0.25909666217E+03 -0.66773705128E+02  0.15358782218E+03  0.35293465103E+03  0.17141715412E+03 0.  0.
         24    2    3    3    0    0  0.79889578724E+02  0.16676469807E+02  0.90479837007E+02  0.14536823214E+03  0.79277188256E+02 0.  0.
         -6    2    1    2    0  501 -0.25909666217E+03  0.66773705128E+02 -0.12061579301E+02  0.31852200798E+03  0.17239773731E+03 0.  0.
        -24    2    5    5    0    0 -0.45476919471E+02  0.17187219879E+02 -0.11102871137E+02  0.99170183024E+02  0.85719896884E+02 0.  0.
          5    1    3    3  502    0  0.17920708345E+03 -0.83450174936E+02  0.63107985176E+02  0.20756641888E+03  0.47000000000E+01 0. -1.
        -13    1    4    4    0    0  0.62771616205E+01 -0.21575114613E+02 -0.19466492718E+00  0.22470563478E+02  0.00000000000E+00 0.  1.
         14    1    4    4    0    0  0.73612417103E+02  0.38251584420E+02  0.90674501934E+02  0.12289766867E+03  0.00000000000E+00 0. -1.
         -5    1    5    5    0  501 -0.21361974270E+03  0.49586485249E+02 -0.95870816400E+00  0.21935182496E+03  0.47000000000E+01 0.  1.
         11    1    6    6    0    0 -0.61140349936E+02  0.34976848214E+02 -0.20973746206E+02  0.73494355777E+02  0.00000000000E+00 0. -1.
        -12    1    6    6    0    0  0.15663430465E+02 -0.17789628335E+02  0.98708750684E+01  0.25675827247E+02  0.00000000000E+00 0.  1.
</event>
<event>
12    1  0.1348628E-002  0.1766175E+03  0.7818608E-02  0.1171117E+00
          2   -1    0    0  502    0  0.00000000000E+00  0.00000000000E+00  0.15243858132E+04  0.15243858132E+04  0.00000000000E+00 0. -1.
         -2   -1    0    0    0  501 -0.00000000000E+00 -0.00000000000E+00 -0.29417315978E+02  0.29417315978E+02  0.00000000000E+00 0.  1.
          6    2    1    2  502    0 -0.18236044347E+02  0.24917822102E+01  0.31529246837E+03  0.36079687632E+03  0.17443131330E+03 0.  0.
         24    2    3    3    0    0 -0.84515067055E+01  0.60180509130E+02  0.27107794019E+03  0.28730714307E+03  0.73273618449E+02 0.  0.
         -6    2    1    2    0  501  0.18236044347E+02 -0.24917822102E+01  0.11796760288E+04  0.11930062528E+04  0.17688873343E+03 0.  0.
        -24    2    5    5    0    0  0.26150167492E+01 -0.70708265298E+02  0.65081917648E+03  0.65951851601E+03  0.79953582704E+02 0.  0.
          5    1    3    3  502    0 -0.97845376414E+01 -0.57688726919E+02  0.44214528183E+02  0.73489733248E+02  0.47000000000E+01 0. -1.
        -13    1    4    4    0    0 -0.12950733528E+02  0.17875104621E+01  0.36954221062E+01  0.13585758614E+02  0.00000000000E+00 0.  1.
         14    1    4    4    0    0  0.44992268229E+01  0.58392998668E+02  0.26738251808E+03  0.27372138446E+03  0.00000000000E+00 0. -1.
         -5    1    5    5    0  501  0.15621027598E+02  0.68216483087E+02  0.52885685233E+03  0.53348773681E+03  0.47000000000E+01 0.  1.
         13    1    6    6    0    0 -0.17479877259E+02  0.11965428072E+02  0.15717995678E+03  0.15860093439E+03  0.00000000000E+00 0. -1.
        -14    1    6    6    0    0  0.20094894008E+02 -0.82673693369E+02  0.49363921971E+03  0.50091758162E+03  0.00000000000E+00 0.  1.
</event>
<event>
12    1  0.1348628E-002  0.1861527E+03  0.7818608E-02  0.1161978E+00
          2   -1    0    0  502    0  0.00000000000E+00  0.00000000000E+00  0.65728975888E+03  0.65728975888E+03  0.00000000000E+00 0. -1.
         -2   -1    0    0    0  501 -0.00000000000E+00 -0.00000000000E+00 -0.58108461865E+02  0.58108461865E+02  0.00000000000E+00 0.  1.
          6    2    1    2  502    0 -0.58358544803E+02  0.18331473946E+02  0.41441604981E+03  0.45608499144E+03  0.18036378348E+03 0.  0.
         24    2    3    3    0    0 -0.61431202389E+02 -0.55067279473E+02  0.21762743765E+03  0.24597867049E+03  0.79609087566E+02 0.  0.
         -6    2    1    2    0  501  0.58358544803E+02 -0.18331473946E+02  0.18476524721E+03  0.25931322931E+03  0.17135749656E+03 0.  0.
        -24    2    5    5    0    0  0.12708059405E+02  0.34779252906E+02  0.16424185129E+03  0.18618309938E+03  0.79483769229E+02 0.  0.
          5    1    3    3  502    0  0.30726575856E+01  0.73398753419E+02  0.19678861215E+03  0.21010632095E+03  0.47000000000E+01 0. -1.
        -13    1    4    4    0    0 -0.56387892758E+02 -0.28434338295E+02  0.63756748267E+02  0.89738670558E+02  0.00000000000E+00 0.  1.
         14    1    4    4    0    0 -0.50433096302E+01 -0.26632941178E+02  0.15387068938E+03  0.15623999993E+03  0.00000000000E+00 0. -1.
         -5    1    5    5    0  501  0.45650485398E+02 -0.53110726852E+02  0.20523395919E+02  0.73130129932E+02  0.47000000000E+01 0.  1.
         13    1    6    6    0    0  0.35290535543E+02 -0.41430469964E+01  0.37365749194E+02  0.51563416781E+02  0.00000000000E+00 0. -1.
        -14    1    6    6    0    0 -0.22582476138E+02  0.38922299902E+02  0.12687610210E+03  0.13461968260E+03  0.00000000000E+00 0.  1.
</event>
<event>
12    1  0.1348628E-002  0.2304355E+03  0.7818608E-02  0.1126334E+00
          1   -1    0    0  502    0  0.00000000000E+00  0.00000000000E+00  0.11198231059E+04  0.11198231059E+04  0.00000000000E+00 0.  1.
         -1   -1    0    0    0  501 -0.00000000000E+00 -0.00000000000E+00 -0.47451147527E+02  0.47451147527E+02  0.00000000000E+00 0. -1.
          6    2    1    2  502    0  0.90292204542E+02  0.12411109884E+03  0.52115039866E+03  0.56986407963E+03  0.17202059230E+03 0.  0.
         24    2    3    3    0    0 -0.26584260371E+01  0.41142005803E+02  0.12151465618E+03  0.15122998309E+03  0.80031020532E+02 0.  0.
         -6    2    1    2    0  501 -0.90292204542E+02 -0.12411109884E+03  0.55122155968E+03  0.59741017376E+03  0.17174824832E+03 0.  0.
        -24    2    5    5    0    0 -0.90663839700E+02 -0.16227304861E+02  0.29498478322E+03  0.31934826209E+03  0.80523492923E+02 0.  0.
          5    1    3    3  502    0  0.92950630579E+02  0.82969093033E+02  0.39963574247E+03  0.41863409654E+03  0.47000000000E+01 0. -1.
        -11    1    4    4    0    0 -0.19655328065E+02  0.60569961255E+02  0.78705533824E+02  0.10124037328E+03  0.00000000000E+00 0.  1.
         12    1    4    4    0    0  0.16996902028E+02 -0.19427955451E+02  0.42809122360E+02  0.49989609808E+02  0.00000000000E+00 0. -1.
         -5    1    5    5    0  501  0.37163515766E+00 -0.10788379398E+03  0.25623677646E+03  0.27806191167E+03  0.47000000000E+01 0.  1.
         13    1    6    6    0    0 -0.50055206620E+02  0.92916748447E+00  0.51197064683E+02  0.71606748943E+02  0.00000000000E+00 0. -1.
        -14    1    6    6    0    0 -0.40608633080E+02 -0.17156472345E+02  0.24378771854E+03  0.24774151314E+03  0.00000000000E+00 0.  1.
</event>
<event>
12    1  0.1348628E-002  0.1769732E+03  0.7818608E-02  0.1170765E+00
          4   -1    0    0  502    0  0.00000000000E+00  0.00000000000E+00  0.55120931354E+03  0.55120931354E+03  0.00000000000E+00 0. -1.
         -4   -1    0    0    0  501 -0.00000000000E+00 -0.00000000000E+00 -0.92438176987E+02  0.92438176987E+02  0.00000000000E+00 0.  1.
          6    2    1    2  502    0  0.49972335896E+02  0.16489927842E+02  0.42819493703E+03  0.46287243123E+03  0.16772248333E+03 0.  0.
         24    2    3    3    0    0 -0.21237482408E+02  0.49508973102E+02  0.19921759851E+03  0.22076954580E+03  0.78417929856E+02 0.  0.
         -6    2    1    2    0  501 -0.49972335896E+02 -0.16489927842E+02  0.30576199519E+02  0.18077505930E+03  0.17022210788E+03 0.  0.
        -24    2    5    5    0    0  0.25654204141E+02 -0.34835807071E+02 -0.10393744200E+02  0.92703661381E+02  0.81328145624E+02 0.  0.
          5    1    3    3  502    0  0.71209818304E+02 -0.33019045260E+02  0.22897733852E+03  0.24210288542E+03  0.47000000000E+01 0. -1.
        -11    1    4    4    0    0 -0.16998112198E+02 -0.17680805240E+02  0.30650167836E+02  0.39255311496E+02  0.00000000000E+00 0.  1.
         12    1    4    4    0    0 -0.42393702092E+01  0.67189778342E+02  0.16856743067E+03  0.18151423431E+03  0.00000000000E+00 0. -1.
         -5    1    5    5    0  501 -0.75626540037E+02  0.18345879228E+02  0.40969943719E+02  0.88071397916E+02  0.47000000000E+01 0.  1.
         13    1    6    6    0    0 -0.22219195118E+01 -0.46766774997E+02  0.18948872994E+02  0.50508691902E+02  0.00000000000E+00 0. -1.
        -14    1    6    6    0    0  0.27876123653E+02  0.11930967926E+02 -0.29342617194E+02  0.42194969479E+02  0.00000000000E+00 0.  1.
</event>
<event>
12    1  0.1348628E-002  0.2006660E+03  0.7818608E-02  0.1149178E+00
         -1   -1    0    0    0  501 -0.00000000000E+00  0.00000000000E+00  0.94288288702E+02  0.94288288702E+02  0.00000000000E+00 0.  1.
          1   -1    0    0  502    0  0.00000000000E+00 -0.00000000000E+00 -0.46746001480E+03  0.46746001480E+03  0.00000000000E+00 0. -1.
          6    2    1    2  502    0  0.77830910356E+02  0.67561367068E+02 -0.26914178615E+03  0.33570390425E+03  0.17215580545E+03 0.  0.
         24    2    3    3    0    0  0.61670348523E+02  0.36317069791E+02 -0.27897604192E+03  0.29887765739E+03  0.79862761527E+02 0.  0.
         -6    2    1    2    0  501 -0.77830910356E+02 -0.67561367068E+02 -0.10402993995E+03  0.22604439925E+03  0.17219655368E+03 0.  0.
        -24    2    5    5    0    0 -0.33779012017E+02 -0.73836198479E+02 -0.37034096677E+00  0.11314025532E+03  0.78789430524E+02 0.  0.
          5    1    3    3  502    0  0.16160561833E+02  0.31244297277E+02  0.98342557693E+01  0.36826246858E+02  0.47000000000E+01 0. -1.
        -13    1    4    4    0    0 -0.23314081032E+01 -0.18047686485E+02 -0.93822896871E+02  0.95571389173E+02  0.00000000000E+00 0.  1.
         14    1    4    4    0    0  0.64001756626E+02  0.54364756277E+02 -0.18515314505E+03  0.20330626822E+03  0.00000000000E+00 0. -1.
         -5    1    5    5    0  501 -0.44051898339E+02  0.62748314105E+01 -0.10365959898E+03  0.11290414393E+03  0.47000000000E+01 0.  1.
         11    1    6    6    0    0  0.41671948858E+01 -0.55448198435E+02 -0.28469269564E+02  0.62468932538E+02  0.00000000000E+00 0. -1.
        -12    1    6    6    0    0 -0.37946206903E+02 -0.18388000043E+02  0.28098928597E+02  0.50671322780E+02  0.00000000000E+00 0.  1.
</event>
<event>
12    1  0.1348628E-002  0.1885558E+03  0.7818608E-02  0.1159770E+00
          2   -1    0    0  502    0  0.00000000000E+00  0.00000000000E+00  0.21524171552E+03  0.21524171552E+03  0.00000000000E+00 0. -1.
         -2   -1    0    0    0  501 -0.00000000000E+00 -0.00000000000E+00 -0.24238668336E+03  0.24238668336E+03  0.00000000000E+00 0.  1.
          6    2    1    2  502    0 -0.23345958896E+02  0.73909376367E+02 -0.14271641249E+03  0.23654175240E+03  0.17197789545E+03 0.  0.
         24    2    3    3    0    0  0.27828154553E+02  0.17677974607E+01 -0.11855141663E+03  0.14473089074E+03  0.78198855851E+02 0.  0.
         -6    2    1    2    0  501  0.23345958896E+02 -0.73909376367E+02  0.11557144465E+03  0.22108664648E+03  0.17179905914E+03 0.  0.
        -24    2    5    5    0    0  0.65126169040E+02 -0.86861689604E+02  0.11507081434E+03  0.17709018061E+03  0.79581836757E+02 0.  0.
          5    1    3    3  502    0 -0.51174113449E+02  0.72141578906E+02 -0.24164995860E+02  0.91810861663E+02  0.47000000000E+01 0. -1.
        -11    1    4    4    0    0 -0.26599166553E+02  0.24007287374E+01 -0.54377164347E+02  0.60581805538E+02  0.00000000000E+00 0.  1.
         12    1    4    4    0    0  0.54427321105E+02 -0.63293127668E+00 -0.64174252282E+02  0.84149085204E+02  0.00000000000E+00 0. -1.
         -5    1    5    5    0  501 -0.41780210144E+02  0.12952313237E+02  0.50063030351E+00  0.43996465865E+02  0.47000000000E+01 0.  1.
         11    1    6    6    0    0  0.17655838475E+02  0.11381708605E+02  0.38283209091E+02  0.43667791579E+02  0.00000000000E+00 0. -1.
        -12    1    6    6    0    0  0.47470330565E+02 -0.98243398209E+02  0.76787605253E+02  0.13342238904E+03  0.00000000000E+00 0.  1.
</event>
<event>
12    1  0.1348628E-002  0.1879238E+03  0.7818608E-02  0.1160347E+00
         -2   -1    0    0    0  501 -0.00000000000E+00  0.00000000000E+00  0.26599374470E+02  0.26599374470E+02  0.00000000000E+00 0. -1.
          2   -1    0    0  502    0  0.00000000000E+00 -0.00000000000E+00 -0.14285027642E+04  0.14285027642E+04  0.00000000000E+00 0.  1.
          6    2    1    2  502    0  0.55577158837E+02  0.59901191257E+02 -0.50075643124E+03  0.53414853190E+03  0.16697508020E+03 0.  0.
         24    2    3    3    0    0  0.52073754976E+02  0.62237923997E+01 -0.14986577358E+03  0.17912757390E+03  0.82924821930E+02 0.  0.
         -6    2    1    2    0  501 -0.55577158837E+02 -0.59901191257E+02 -0.90114695854E+03  0.92095360682E+03  0.17150140444E+03 0.  0.
        -24    2    5    5    0    0  0.17135088059E+02 -0.50982802864E+02 -0.29614524328E+03  0.31151470588E+03  0.80290406870E+02 0.  0.
          5    1    3    3  502    0  0.35034038614E+01  0.53677398858E+02 -0.35089065766E+03  0.35502095800E+03  0.47000000000E+01 0. -1.
        -13    1    4    4    0    0  0.33150489979E+02  0.60416928089E+00 -0.15518173430E+03  0.15868424832E+03  0.00000000000E+00 0.  1.
         14    1    4    4    0    0  0.18923264997E+02  0.56196231188E+01  0.53159607222E+01  0.20443325574E+02  0.00000000000E+00 0. -1.
         -5    1    5    5    0  501 -0.72712246896E+02 -0.89183883935E+01 -0.60500171527E+03  0.60943890094E+03  0.47000000000E+01 0.  1.
         11    1    6    6    0    0 -0.27613225863E+02 -0.43107220220E+02 -0.15929533695E+03  0.16731923695E+03  0.00000000000E+00 0. -1.
        -12    1    6    6    0    0  0.44748313922E+02 -0.78755826441E+01 -0.13684990632E+03  0.14419546893E+03  0.00000000000E+00 0.  1.
</event>
<event>
12    1  0.1348628E-002  0.1821148E+03  0.7818608E-02  0.1165772E+00
          2   -1    0    0  502    0  0.00000000000E+00  0.00000000000E+00  0.59325912052E+03  0.59325912052E+03  0.00000000000E+00 0. -1.
         -2   -1    0    0    0  501 -0.00000000000E+00 -0.00000000000E+00 -0.58073124148E+02  0.58073124148E+02  0.00000000000E+00 0.  1.
          6    2    1    2  502    0  0.96706279674E+01  0.55951164534E+02  0.32858888627E+03  0.37503689345E+03  0.17163321769E+03 0.  0.
         24    2    3    3    0    0  0.70349445952E+02  0.16631024739E+02  0.19873440682E+03  0.22633494935E+03  0.80662936447E+02 0.  0.
         -6    2    1    2    0  501 -0.96706279674E+01 -0.55951164534E+02  0.20659711010E+03  0.27629535121E+03  0.17444971007E+03 0.  0.
        -24    2    5    5    0    0 -0.46126732757E+02 -0.93541314105E+02  0.16358875360E+03  0.20836983576E+03  0.76020097536E+02 0.  0.
          5    1    3    3  502    0 -0.60678817984E+02  0.39320139795E+02  0.12985447945E+03  0.14870194410E+03  0.47000000000E+01 0. -1.
        -11    1    4    4    0    0  0.72829621796E+02  0.32321518629E+02  0.10795244181E+03  0.13417363404E+03  0.00000000000E+00 0.  1.
         12    1    4    4    0    0 -0.24801758446E+01 -0.15690493890E+02  0.90781965003E+02  0.92161315314E+02  0.00000000000E+00 0. -1.
         -5    1    5    5    0  501  0.36456104790E+02  0.37590149571E+02  0.43008356500E+02  0.67925515457E+02  0.47000000000E+01 0.  1.
         13    1    6    6    0    0  0.12203807597E+02 -0.45968741359E+02  0.33848967122E+02  0.58376456532E+02  0.00000000000E+00 0. -1.
        -14    1    6    6    0    0 -0.58330540355E+02 -0.47572572745E+02  0.12973978648E+03  0.14999337923E+03  0.00000000000E+00 0.  1.
</event>
<event>
12    1  0.1348628E-002  0.2388670E+03  0.7818608E-02  0.1120550E+00
         -1   -1    0    0    0  501 -0.00000000000E+00  0.00000000000E+00  0.24021304288E+03  0.24021304288E+03  0.00000000000E+00 0.  1.
          1   -1    0    0  502    0  0.00000000000E+00 -0.00000000000E+00 -0.24208479048E+03  0.24208479048E+03  0.00000000000E+00 0. -1.
          6    2    1    2  502    0  0.72893931905E+02 -0.14967896602E+03 -0.34019098915E+02  0.24129227588E+03  0.17131066847E+03 0.  0.
         24    2    3    3    0    0  0.94122096721E+02 -0.16121801106E+03 -0.52362967199E+02  0.21059419703E+03  0.82205956628E+02 0.  0.
         -6    2    1    2    0  501 -0.72893931905E+02  0.14967896602E+03  0.32147351313E+02  0.24100555748E+03  0.17126852707E+03 0.  0.
        -24    2    5    5    0    0 -0.97757067886E+02  0.51897744985E+02  0.23834576845E+02  0.13966190974E+03  0.81777391275E+02 0.  0.
          5    1    3    3  502    0 -0.21228164816E+02  0.11539045043E+02  0.18343868283E+02  0.30698078857E+02  0.47000000000E+01 0. -1.
        -11    1    4    4    0    0  0.81915195928E+02 -0.93706790163E+02 -0.28863737408E+00  0.12446342900E+03  0.00000000000E+00 0.  1.
         12    1    4    4    0    0  0.12206900793E+02 -0.67511220899E+02 -0.52074329825E+02  0.86130768028E+02  0.00000000000E+00 0. -1.
         -5    1    5    5    0  501  0.24863135980E+02  0.97781221035E+02  0.83127744684E+01  0.10134364774E+03  0.47000000000E+01 0.  1.
         11    1    6    6    0    0  0.10950248730E+02  0.52469165351E+01  0.17366942275E+02  0.21190770736E+02  0.00000000000E+00 0. -1.
        -12    1    6    6    0    0 -0.10870731662E+03  0.46650828450E+02  0.64676345696E+01  0.11847113901E+03  0.00000000000E+00 0.  1.
</event>
<event>
12    1  0.1348628E-002  0.1967417E+03  0.7818608E-02  0.1152517E+00
          1   -1    0    0  502    0  0.00000000000E+00  0.00000000000E+00  0.80424348878E+03  0.80424348878E+03  0.00000000000E+00 0.  1.
         -1   -1    0    0    0  501 -0.00000000000E+00 -0.00000000000E+00 -0.10636804328E+03  0.10636804328E+03  0.00000000000E+00 0. -1.
          6    2    1    2  502    0 -0.57837328576E+02  0.68948352103E+02  0.68398362716E+03  0.71109405344E+03  0.17240104055E+03 0.  0.
         24    2    3    3    0    0 -0.92570902759E+02  0.88615551343E+02  0.58679791090E+03  0.60592574383E+03  0.79950802516E+02 0.  0.
         -6    2    1    2    0  501  0.57837328576E+02 -0.68948352103E+02  0.13891818344E+02  0.19951747862E+03  0.17752523714E+03 0.  0.
        -24    2    5    5    0    0  0.10946320135E+03 -0.59653035454E+02  0.14310564992E+02  0.14684966111E+03  0.76284687908E+02 0.  0.
          5    1    3    3  502    0  0.34733574184E+02 -0.19667199240E+02  0.97185716261E+02  0.10516830961E+03  0.47000000000E+01 0. -1.
        -13    1    4    4    0    0 -0.24075769639E+02  0.72041348565E+02  0.37799118159E+03  0.38554757417E+03  0.00000000000E+00 0.  1.
         14    1    4    4    0    0 -0.68495133120E+02  0.16574202778E+02  0.20880672930E+03  0.22037816966E+03  0.00000000000E+00 0. -1.
         -5    1    5    5    0  501 -0.51625872779E+02 -0.92953166492E+01 -0.41874664839E+00  0.52667817503E+02  0.47000000000E+01 0.  1.
         11    1    6    6    0    0  0.50776007885E+02 -0.51111284326E+02 -0.24357420818E+02  0.76051629247E+02  0.00000000000E+00 0. -1.
        -12    1    6    6    0    0  0.58687193469E+02 -0.85417511275E+01  0.38667985810E+02  0.70798031867E+02  0.00000000000E+00 0.  1.
</event>
<event>
12    1  0.1348628E-002  0.1899949E+03  0.7818608E-02  0.1158466E+00
         -1   -1    0    0    0  501 -0.00000000000E+00  0.00000000000E+00  0.44594777713E+02  0.44594777713E+02  0.00000000000E+00 0. -1.
          1   -1    0    0  502    0  0.00000000000E+00 -0.00000000000E+00 -0.10396839982E+04  0.10396839982E+04  0.00000000000E+00 0.  1.
          6    2    1    2  502    0  0.12498850751E+02 -0.80133116827E+02 -0.24158650302E+03  0.30708944746E+03  0.17135446482E+03 0.  0.
         24    2    3    3    0    0  0.88414428228E+01 -0.21437493997E+02 -0.30785797973E+02  0.88188602275E+02  0.79320406922E+02 0.  0.
         -6    2    1    2    0  501 -0.12498850751E+02  0.80133116827E+02 -0.75350271742E+03  0.77718932841E+03  0.17227701342E+03 0.  0.
        -24    2    5    5    0    0  0.22911412351E+02  0.44359271549E+02 -0.19505504915E+03  0.21645807109E+03  0.79466637990E+02 0.  0.
          5    1    3    3  502    0  0.36574079283E+01 -0.58695622829E+02 -0.21080070505E+03  0.21890084518E+03  0.47000000000E+01 0. -1.
        -13    1    4    4    0    0 -0.35162316822E+02 -0.12066870034E+02 -0.92463380183E+01  0.38307866600E+02  0.00000000000E+00 0.  1.
         14    1    4    4    0    0  0.44003759645E+02 -0.93706239637E+01 -0.21539459955E+02  0.49880735675E+02  0.00000000000E+00 0. -1.
         -5    1    5    5    0  501 -0.35410263102E+02  0.35773845277E+02 -0.55844766827E+03  0.56073125732E+03  0.47000000000E+01 0.  1.
         11    1    6    6    0    0  0.33820740876E+02 -0.11963849663E+02 -0.63394415044E+02  0.72841115250E+02  0.00000000000E+00 0. -1.
        -12    1    6    6    0    0 -0.10909328524E+02  0.56323121212E+02 -0.13166063410E+03  0.14361695584E+03  0.00000000000E+00 0.  1.
</event>
<event>
12    1  0.1348628E-002  0.1722963E+03  0.7818608E-02  0.1175474E+00
         -1   -1    0    0    0  501 -0.00000000000E+00  0.00000000000E+00  0.11510059514E+04  0.11510059514E+04  0.00000000000E+00 0.  1.
          1   -1    0    0  502    0  0.00000000000E+00 -0.00000000000E+00 -0.26606939207E+02  0.26606939207E+02  0.00000000000E+00 0. -1.
          6    2    1    2  502    0 -0.25874689500E+02 -0.10556537418E+02  0.45938946896E+03  0.49066788041E+03  0.17010392303E+03 0.  0.
         24    2    3    3    0    0  0.79717046426E+01  0.42922720604E+02  0.14171016789E+03  0.16671134356E+03  0.76190500520E+02 0.  0.
         -6    2    1    2    0  501  0.25874689500E+02  0.10556537418E+02  0.66500954323E+03  0.68694501019E+03  0.16992590859E+03 0.  0.
        -24    2    5    5    0    0  0.24221047484E+02  0.72342358332E+02  0.42781038612E+03  0.44178026492E+03  0.79548727476E+02 0.  0.
          5    1    3    3  502    0 -0.33846394142E+02 -0.53479258021E+02  0.31767930108E+03  0.32395653685E+03  0.47000000000E+01 0. -1.
        -11    1    4    4    0    0  0.87284827754E+01  0.53710034654E+02  0.14542917277E+03  0.15527587877E+03  0.00000000000E+00 0.  1.
         12    1    4    4    0    0 -0.75677813281E+00 -0.10787314050E+02 -0.37190048876E+01  0.11435464788E+02  0.00000000000E+00 0. -1.
         -5    1    5    5    0  501  0.16536420158E+01 -0.61785820914E+02  0.23719915710E+03  0.24516474528E+03  0.47000000000E+01 0.  1.
         11    1    6    6    0    0  0.32479628054E+02 -0.93036641952E+00  0.82150390677E+02  0.88342959587E+02  0.00000000000E+00 0. -1.
        -12    1    6    6    0    0 -0.82585805699E+01  0.73272724752E+02  0.34565999545E+03  0.35343730533E+03  0.00000000000E+00 0.  1.
</event>
<event>
12    1  0.1348628E-002  0.1999697E+03  0.7818608E-02  0.1149765E+00
         -1   -1    0    0    0  501 -0.00000000000E+00  0.00000000000E+00  0.14593163314E+02  0.14593163314E+02  0.00000000000E+00 0.  1.
          1   -1    0    0  502    0  0.00000000000E+00 -0.00000000000E+00 -0.28186506930E+04  0.28186506930E+04  0.00000000000E+00 0. -1.
          6    2    1    2  502    0  0.61438904088E+02  0.81468439593E+02 -0.11648483573E+04  0.11818680015E+04  0.17183838880E+03 0.  0.
         24    2    3    3    0    0  0.51143553291E+02  0.48169432985E+02 -0.33827219405E+03  0.35454396477E+03  0.79607715511E+02 0.  0.
         -6    2    1    2    0  501 -0.61438904088E+02 -0.81468439593E+02 -0.16392091723E+04  0.16513758548E+04  0.17211524471E+03 0.  0.
        -24    2    5    5    0    0 -0.84516334272E+02 -0.96757734955E+02 -0.97702598021E+03  0.98859761111E+03  0.78996206570E+02 0.  0.
          5    1    3    3  502    0  0.10295350796E+02  0.33299006608E+02 -0.82657616327E+03  0.82732403675E+03  0.47000000000E+01 0. -1.
        -11    1    4    4    0    0  0.46789653644E+01  0.58372535330E+02 -0.19174313207E+03  0.20048609501E+03  0.00000000000E+00 0.  1.
         12    1    4    4    0    0  0.46464587927E+02 -0.10203102345E+02 -0.14652906198E+03  0.15405786975E+03  0.00000000000E+00 0. -1.
         -5    1    5    5    0  501  0.23077430185E+02  0.15289295362E+02 -0.66218319213E+03  0.66277824367E+03  0.47000000000E+01 0.  1.
         11    1    6    6    0    0 -0.39160959469E+01 -0.53650507116E+02 -0.50067269019E+03  0.50355422293E+03  0.00000000000E+00 0. -1.
        -12    1    6    6    0    0 -0.80600238326E+02 -0.43107227840E+02 -0.47635329001E+03  0.48504338818E+03  0.00000000000E+00 0.  1.
</event>
<event>
12    1  0.1348628E-002  0.2910536E+03  0.7818608E-02  0.1089800E+00
          1   -1    0    0  502    0  0.00000000000E+00  0.00000000000E+00  0.41242826626E+03  0.41242826626E+03  0.00000000000E+00 0. -1.
         -1   -1    0    0    0  501 -0.00000000000E+00 -0.00000000000E+00 -0.21263044972E+03  0.21263044972E+03  0.00000000000E+00 0.  1.
          6    2    1    2  502    0 -0.23482160442E+03 -0.84801806370E+01  0.42206598954E+02  0.29393175192E+03  0.17146830152E+03 0.  0.
         24    2    3    3    0    0 -0.68517523936E+02 -0.44010848213E+02 -0.13927811383E+02  0.11478757103E+03  0.79690631101E+02 0.  0.
         -6    2    1    2    0  501  0.23482160442E+03  0.84801806370E+01  0.15759121758E+03  0.33112696406E+03  0.17203771417E+03 0.  0.
        -24    2    5    5    0    0  0.91378205628E+02  0.56906694403E+01  0.53709310997E+01  0.12189767440E+03  0.80298418053E+02 0.  0.
          5    1    3    3  502    0 -0.16630408049E+03  0.35530667576E+02  0.56134410337E+02  0.17914418090E+03  0.47000000000E+01 0. -1.
        -11    1    4    4    0    0  0.21883290195E+01 -0.25616243032E+02 -0.30481678003E+02  0.39876225810E+02  0.00000000000E+00 0.  1.
         12    1    4    4    0    0 -0.70705852956E+02 -0.18394605181E+02  0.16553866620E+02  0.74911345216E+02  0.00000000000E+00 0. -1.
         -5    1    5    5    0  501  0.14344339880E+03  0.27895111967E+01  0.15222028648E+03  0.20922928965E+03  0.47000000000E+01 0.  1.
         11    1    6    6    0    0  0.33638983299E+02 -0.28580546994E+02  0.26527956168E+02  0.51499139044E+02  0.00000000000E+00 0. -1.
        -12    1    6    6    0    0  0.57739222329E+02  0.34271216434E+02 -0.21157025068E+02  0.70398535360E+02  0.00000000000E+00 0.  1.
</event>
<event>
12    1  0.1348628E-002  0.1765973E+03  0.7818608E-02  0.1171137E+00
          1   -1    0    0  502    0  0.00000000000E+00  0.00000000000E+00  0.11364372881E+04  0.11364372881E+04  0.00000000000E+00 0. -1.
         -1   -1    0    0    0  501 -0.00000000000E+00 -0.00000000000E+00 -0.30646960558E+02  0.30646960558E+02  0.00000000000E+00 0.  1.
          6    2    1    2  502    0 -0.19690675690E+02 -0.42241250870E+02  0.74315287877E+03  0.76397738790E+03  0.17091870001E+03 0.  0.
         24    2    3    3    0    0 -0.63632682428E+02 -0.69820631033E+02  0.48409573900E+03  0.49973467025E+03  0.80386673890E+02 0.  0.
         -6    2    1    2    0  501  0.19690675690E+02  0.42241250870E+02  0.36263744880E+03  0.40310686079E+03  0.16975622509E+03 0.  0.
        -24    2    5    5    0    0  0.32748600948E+02  0.63155916315E+02  0.12871773037E+03  0.16784433229E+03  0.80884640951E+02 0.  0.
          5    1    3    3  502    0  0.43942006738E+02  0.27579380163E+02  0.25905713977E+03  0.26424271766E+03  0.47000000000E+01 0. -1.
        -11    1    4    4    0    0 -0.40457811058E+01 -0.27977845620E+02  0.36052891987E+02  0.45814181329E+02  0.00000000000E+00 0.  1.
         12    1    4    4    0    0 -0.59586901322E+02 -0.41842785413E+02  0.44804284701E+03  0.45392048892E+03  0.00000000000E+00 0. -1.
         -5    1    5    5    0  501 -0.13057925258E+02 -0.20914665445E+02  0.23391971843E+03  0.23526252849E+03  0.47000000000E+01 0.  1.
         13    1    6    6    0    0 -0.13242207039E+02  0.57874801684E+02  0.88220319367E+02  0.10633754495E+03  0.00000000000E+00 0. -1.
        -14    1    6    6    0    0  0.45990807987E+02  0.52811146305E+01  0.40497411004E+02  0.61506787342E+02  0.00000000000E+00 0.  1.
</event>
<event>
12    1  0.1348628E-002  0.2457932E+03  0.7818608E-02  0.1115993E+00
          2   -1    0    0  502    0  0.00000000000E+00  0.00000000000E+00  0.89895327324E+03  0.89895327324E+03  0.00000000000E+00 0.  1.
         -2   -1    0    0    0  501 -0.00000000000E+00 -0.00000000000E+00 -0.89733545920E+02  0.89733545920E+02  0.00000000000E+00 0. -1.
          6    2    1    2  502    0  0.17282879344E+03 -0.29984027335E+02  0.15745113720E+03  0.29226463325E+03  0.17279734229E+03 0.  0.
         24    2    3    3    0    0  0.12693199017E+03 -0.70953859559E+02  0.15592736506E+03  0.23054384595E+03  0.87698012612E+02 0.  0.
         -6    2    1    2    0  501 -0.17282879344E+03  0.29984027335E+02  0.65176859012E+03  0.69642218591E+03  0.17155970456E+03 0.  0.
        -24    2    5    5    0    0 -0.22521380691E+02 -0.19300214210E+02  0.96907730071E+02  0.11943525469E+03  0.63197793140E+02 0.  0.
          5    1    3    3  502    0  0.45896803272E+02  0.40969832224E+02  0.15237721442E+01  0.61720787298E+02  0.47000000000E+01 0. -1.
        -13    1    4    4    0    0  0.10719590700E+03 -0.22276939922E+02  0.70373214461E+02  0.13015227176E+03  0.00000000000E+00 0.  1.
         14    1    4    4    0    0  0.19736083170E+02 -0.48676919637E+02  0.85554150595E+02  0.10039157419E+03  0.00000000000E+00 0. -1.
         -5    1    5    5    0  501 -0.15030741275E+03  0.49284241545E+02  0.55486086005E+03  0.57698693123E+03  0.47000000000E+01 0.  1.
         13    1    6    6    0    0 -0.35038162141E+02  0.11179538075E+02  0.54023496615E+02  0.65354365304E+02  0.00000000000E+00 0. -1.
        -14    1    6    6    0    0  0.12516781451E+02 -0.30479752285E+02  0.42884233456E+02  0.54080889382E+02  0.00000000000E+00 0.  1.
</event>
<event>
12    1  0.1348628E-002  0.2017489E+03  0.7818608E-02  0.1148272E+00
          2   -1    0    0  502    0  0.00000000000E+00  0.00000000000E+00  0.33247813370E+02  0.33247813370E+02  0.00000000000E+00 0. -1.
         -2   -1    0    0    0  501 -0.00000000000E+00 -0.00000000000E+00 -0.12250681603E+04  0.12250681603E+04  0.00000000000E+00 0.  1.
          6    2    1    2  502    0 -0.10417263250E+03  0.34898822907E+02 -0.60887430199E+03  0.64108540559E+03  0.16790686833E+03 0.  0.
         24    2    3    3    0    0 -0.45439355179E+02 -0.40275031464E+02 -0.24285165609E+03  0.26280591426E+03  0.80020050907E+02 0.  0.
         -6    2    1    2    0  501  0.10417263250E+03 -0.34898822907E+02 -0.58294604494E+03  0.61723056808E+03  0.17052160467E+03 0.  0.
        -24    2    5    5    0    0  0.12414721296E+03 -0.67390616681E+02 -0.50145361680E+03  0.52713169810E+03  0.80362128153E+02 0.  0.
          5    1    3    3  502    0 -0.58733277322E+02  0.75173854371E+02 -0.36602264590E+03  0.37827949133E+03  0.47000000000E+01 0. -1.
        -13    1    4    4    0    0 -0.14061070936E+02 -0.49128426082E+02 -0.21145858177E+03  0.21754550736E+03  0.00000000000E+00 0.  1.
         14    1    4    4    0    0 -0.31378284242E+02  0.88533946180E+01 -0.31393074315E+02  0.45260406905E+02  0.00000000000E+00 0. -1.
         -5    1    5    5    0  501 -0.19974580459E+02  0.32491793774E+02 -0.81492428147E+02  0.90098869984E+02  0.47000000000E+01 0.  1.
         13    1    6    6    0    0 -0.88707174629E+01 -0.18764542262E+02 -0.71588624535E+02  0.74536761651E+02  0.00000000000E+00 0. -1.
        -14    1    6    6    0    0  0.13301793042E+03 -0.48626074418E+02 -0.42986499226E+03  0.45259493645E+03  0.00000000000E+00 0.  1.
</event>
<event>
12    1  0.1348628E-002  0.2447315E+03  0.7818608E-02  0.1116680E+00
         -1   -1    0    0    0  501 -0.00000000000E+00  0.00000000000E+00  0.10602777186E+04  0.10602777186E+04  0.00000000000E+00 0.  1.
          1   -1    0    0  502    0  0.00000000000E+00 -0.00000000000E+00 -0.59766354527E+02  0.59766354527E+02  0.00000000000E+00 0. -1.
          6    2    1    2  502    0 -0.48296425898E+02 -0.16796904466E+03  0.36893391479E+03  0.44267632960E+03  0.17118397878E+03 0.  0.
         24    2    3    3    0    0 -0.65658897162E+02 -0.95216058947E+02  0.33295049899E+03  0.35954180879E+03  0.70972451207E+02 0.  0.
         -6    2    1    2    0  501  0.48296425898E+02  0.16796904466E+03  0.63157744927E+03  0.67736774351E+03  0.17143757114E+03 0.  0.
        -24    2    5    5    0    0  0.84994266230E+02  0.66862203428E+02  0.40284117183E+03  0.42456011023E+03  0.79219302778E+02 0.  0.
          5    1    3    3  502    0  0.17362471263E+02 -0.72752985714E+02  0.35983415792E+02  0.83134520813E+02  0.47000000000E+01 0. -1.
        -11    1    4    4    0    0 -0.60658764683E+02 -0.87353947698E+02  0.20222301695E+03  0.22848270502E+03  0.00000000000E+00 0.  1.
         12    1    4    4    0    0 -0.50001324790E+01 -0.78621112485E+01  0.13072748205E+03  0.13105910377E+03  0.00000000000E+00 0. -1.
         -5    1    5    5    0  501 -0.36697840332E+02  0.10110684123E+03  0.22873627744E+03  0.25280763328E+03  0.47000000000E+01 0.  1.
         11    1    6    6    0    0  0.54821914741E+01  0.13468445412E+02  0.50376025448E+01  0.15389310724E+02  0.00000000000E+00 0. -1.
        -12    1    6    6    0    0  0.79512074756E+02  0.53393758016E+02  0.39780356929E+03  0.40917079950E+03  0.00000000000E+00 0.  1.
</event>
<event>
12    1  0.1348628E-002  0.2050201E+03  0.7818608E-02  0.1145571E+00
          1   -1    0    0  502    0  0.00000000000E+00  0.00000000000E+00  0.99011835186E+03  0.99011835186E+03  0.00000000000E+00 0.  1.
         -1   -1    0    0    0  501 -0.00000000000E+00 -0.00000000000E+00 -0.52017992763E+02  0.52017992763E+02  0.00000000000E+00 0. -1.
          6    2    1    2  502    0  0.59683058815E+02  0.94347068684E+02  0.24434215153E+03  0.31852455077E+03  0.17114720434E+03 0.  0.
         24    2    3    3    0    0  0.88614155428E+02  0.11231535861E+03  0.22920965862E+03  0.28096193457E+03  0.77041110795E+02 0.  0.
         -6    2    1    2    0  501 -0.59683058815E+02 -0.94347068684E+02  0.69375820757E+03  0.72361179385E+03  0.17277193275E+03 0.  0.
        -24    2    5    5    0    0 -0.76767287491E+02 -0.12731323275E+03  0.54331319621E+03  0.56858137656E+03  0.77418840907E+02 0.  0.
          5    1    3    3  502    0 -0.28931096613E+02 -0.17968289928E+02  0.15132492906E+02  0.37562616199E+02  0.47000000000E+01 0. -1.
        -11    1    4    4    0    0  0.19264872511E+02  0.96267970399E+01  0.98603345307E+02  0.10092784670E+03  0.00000000000E+00 0.  1.
         12    1    4    4    0    0  0.69349282917E+02  0.10268856157E+03  0.13060631331E+03  0.18003408787E+03  0.00000000000E+00 0. -1.
         -5    1    5    5    0  501  0.17084228676E+02  0.32966164069E+02  0.15044501136E+03  0.15503041730E+03  0.47000000000E+01 0.  1.
         11    1    6    6    0    0 -0.54130077314E+02 -0.58511041297E+02  0.16316036381E+03  0.18158995441E+03  0.00000000000E+00 0. -1.
        -12    1    6    6    0    0 -0.22637210177E+02 -0.68802191456E+02  0.38015283240E+03  0.38699142214E+03  0.00000000000E+00 0.  1.
</event>
<event>
12    1  0.1348628E-002  0.2023325E+03  0.7818608E-02  0.1147786E+00
         -1   -1    0    0    0  501 -0.00000000000E+00  0.00000000000E+00  0.23429648365E+03  0.23429648365E+03  0.00000000000E+00 0. -1.
          1   -1    0    0  502    0  0.00000000000E+00 -0.00000000000E+00 -0.23869452847E+03  0.23869452847E+03  0.00000000000E+00 0.  1.
          6    2    1    2  502    0  0.22585825260E+02  0.10451286233E+03 -0.12462231641E+03  0.23738107718E+03  0.17142344111E+03 0.  0.
         24    2    3    3    0    0 -0.34820647983E+02  0.99532252484E+02 -0.11613874031E+03  0.17894846036E+03  0.86111541943E+02 0.  0.
         -6    2    1    2    0  501 -0.22585825260E+02 -0.10451286233E+03  0.12022427160E+03  0.23560993494E+03  0.17211945870E+03 0.  0.
        -24    2    5    5    0    0  0.27836437495E+02 -0.11222148331E+03  0.52712561813E+02  0.15086473816E+03  0.81320516964E+02 0.  0.
          5    1    3    3  502    0  0.57406473243E+02  0.49806098467E+01 -0.84835761033E+01  0.58432616818E+02  0.47000000000E+01 0. -1.
        -13    1    4    4    0    0 -0.14067356049E+02 -0.11637737553E+02 -0.35927598971E+02  0.40300369842E+02  0.00000000000E+00 0.  1.
         14    1    4    4    0    0 -0.20753291934E+02  0.11116999004E+03 -0.80211141338E+02  0.13864809052E+03  0.00000000000E+00 0. -1.
         -5    1    5    5    0  501 -0.50422262755E+02  0.77086209746E+01  0.67511709785E+02  0.84745196777E+02  0.47000000000E+01 0.  1.
         13    1    6    6    0    0 -0.88131574574E+01  0.64416263856E+00  0.28386453130E+02  0.29730075869E+02  0.00000000000E+00 0. -1.
        -14    1    6    6    0    0  0.36649594952E+02 -0.11286564594E+03  0.24326108684E+02  0.12113466229E+03  0.00000000000E+00 0.  1.
</event>
<event>
12    1  0.1348628E-002  0.2561812E+03  0.7818608E-02  0.1109460E+00
          2   -1    0    0  502    0  0.00000000000E+00  0.00000000000E+00  0.85315969014E+03  0.85315969014E+03  0.00000000000E+00 0. -1.
         -2   -1    0    0    0  501 -0.00000000000E+00 -0.00000000000E+00 -0.86845944609E+02  0.86845944609E+02  0.00000000000E+00 0.  1.
          6    2    1    2  502    0 -0.13247053759E+03 -0.13681927999E+03  0.22453770125E+03  0.34079187285E+03  0.17162156803E+03 0.  0.
         24    2    3    3    0    0 -0.10703211604E+03 -0.62433589011E+02  0.21598024564E+03  0.26157278197E+03  0.80118829634E+02 0.  0.
         -6    2    1    2    0  501  0.13247053759E+03  0.13681927999E+03  0.54177604428E+03  0.59921376189E+03  0.17107861228E+03 0.  0.
        -24    2    5    5    0    0  0.12635523386E+03  0.65720204803E+02  0.47107435254E+03  0.49864888409E+03  0.80342227650E+02 0.  0.
          5    1    3    3  502    0 -0.25438421555E+02 -0.74385690979E+02  0.85574556131E+01  0.79219090882E+02  0.47000000000E+01 0. -1.
        -13    1    4    4    0    0 -0.25971473943E+02 -0.67057083753E+01  0.30217754317E+01  0.26992871472E+02  0.00000000000E+00 0.  1.
         14    1    4    4    0    0 -0.81060642096E+02 -0.55727880636E+02  0.21295847021E+03  0.23457991050E+03  0.00000000000E+00 0. -1.
         -5    1    5    5    0  501  0.61153037375E+01  0.71099075187E+02  0.70701691736E+02  0.10056487780E+03  0.47000000000E+01 0.  1.
         13    1    6    6    0    0  0.11961170295E+02 -0.17607815367E+02  0.47361701475E+02  0.51925287900E+02  0.00000000000E+00 0. -1.
        -14    1    6    6    0    0  0.11439406356E+03  0.83328020170E+02  0.42371265107E+03  0.44672359619E+03  0.00000000000E+00 0.  1.
</event>
<event>
12    1  0.1348628E-002  0.2578117E+03  0.7818608E-02  0.1108465E+00
         -2   -1    0    0    0  501 -0.00000000000E+00  0.00000000000E+00  0.20541664297E+03  0.20541664297E+03  0.00000000000E+00 0.  1.
          2   -1    0    0  502    0  0.00000000000E+00 -0.00000000000E+00 -0.38365261425E+03  0.38365261425E+03  0.00000000000E+00 0. -1.
          6    2    1    2  502    0  0.18436274898E+03  0.56751372339E+02  0.27416038910E+02  0.25934353820E+03  0.17116392770E+03 0.  0.
         24    2    3    3    0    0  0.12276697094E+03  0.43775850812E+02  0.78536118948E+02  0.17811696242E+03  0.92572544812E+02 0.  0.
         -6    2    1    2    0  501 -0.18436274898E+03 -0.56751372339E+02 -0.20565201019E+03  0.32972571902E+03  0.17092676506E+03 0.  0.
        -24    2    5    5    0    0 -0.11289260705E+03 -0.94981951126E+02 -0.94978766998E+02  0.19246605597E+03  0.79094277637E+02 0.  0.
          5    1    3    3  502    0  0.61595778037E+02  0.12975521527E+02 -0.51120080038E+02  0.81226575786E+02  0.47000000000E+01 0. -1.
        -11    1    4    4    0    0  0.85518000907E+02 -0.15864091554E+02  0.27463087476E+02  0.91209753062E+02  0.00000000000E+00 0.  1.
         12    1    4    4    0    0  0.37248970031E+02  0.59639942365E+02  0.51073031473E+02  0.86907209353E+02  0.00000000000E+00 0. -1.
         -5    1    5    5    0  501 -0.71470141923E+02  0.38230578787E+02 -0.11067324319E+03  0.13725966304E+03  0.47000000000E+01 0.  1.
         11    1    6    6    0    0 -0.57464225111E+02 -0.26356935438E+02 -0.81628767561E+02  0.10324766780E+03  0.00000000000E+00 0. -1.
        -12    1    6    6    0    0 -0.55428381941E+02 -0.68625015687E+02 -0.13349999437E+02  0.89218388170E+02  0.00000000000E+00 0.  1.
</event>
<event>
12    1  0.1348628E-002  0.1824186E+03  0.7818608E-02  0.1165483E+00
         -1   -1    0    0    0  501 -0.00000000000E+00  0.00000000000E+00  0.70544535759E+02  0.70544535759E+02  0.00000000000E+00 0.  1.
          1   -1    0    0  502    0  0.00000000000E+00 -0.00000000000E+00 -0.49132731931E+03  0.49132731931E+03  0.00000000000E+00 0. -1.
          6    2    1    2  502    0 -0.55616405375E+02 -0.22298851736E+02 -0.15408648418E+03  0.23867046057E+03  0.17213518178E+03 0.  0.
         24    2    3    3    0    0  0.22642016671E+02 -0.12763403513E+02 -0.31535840769E+02  0.92875894163E+02  0.83401781008E+02 0.  0.
         -6    2    1    2    0  501  0.55616405375E+02  0.22298851736E+02 -0.26669629938E+03  0.32320139450E+03  0.17245811657E+03 0.  0.
        -24    2    5    5    0    0  0.64324799492E+02 -0.30235329127E+02 -0.82996405466E+02  0.13188119873E+03  0.73840316230E+02 0.  0.
          5    1    3    3  502    0 -0.78258422047E+02 -0.95354482239E+01 -0.12255064341E+03  0.14579456641E+03  0.47000000000E+01 0. -1.
        -13    1    4    4    0    0  0.85960571065E+01 -0.47683831663E+02 -0.98742314523E+01  0.49448361415E+02  0.00000000000E+00 0.  1.
         14    1    4    4    0    0  0.14045959565E+02  0.34920428151E+02 -0.21661609317E+02  0.43427532747E+02  0.00000000000E+00 0. -1.
         -5    1    5    5    0  501 -0.87083941170E+01  0.52534180863E+02 -0.18369989391E+03  0.19132019577E+03  0.47000000000E+01 0.  1.
         13    1    6    6    0    0  0.45640257645E+02  0.30731491027E+01 -0.81740268067E+02  0.93669358848E+02  0.00000000000E+00 0. -1.
        -14    1    6    6    0    0  0.18684541847E+02 -0.33308478229E+02 -0.12561373994E+01  0.38211839882E+02  0.00000000000E+00 0.  1.
</event>
<event>
12    1  0.1348628E-002  0.2940804E+03  0.7818608E-02  0.1088238E+00
         -2   -1    0    0    0  501 -0.00000000000E+00  0.00000000000E+00  0.58517472032E+03  0.58517472032E+03  0.00000000000E+00 0.  1.
          2   -1    0    0  502    0  0.00000000000E+00 -0.00000000000E+00 -0.24686245465E+03  0.24686245465E+03  0.00000000000E+00 0. -1.
          6    2    1    2  502    0  0.15060384842E+03  0.18520683373E+03  0.43272800215E+03  0.52323685876E+03  0.17187261592E+03 0.  0.
         24    2    3    3    0    0  0.12157981399E+03  0.18988548326E+03  0.28267280362E+03  0.37025667396E+03  0.79673978095E+02 0.  0.
         -6    2    1    2    0  501 -0.15060384842E+03 -0.18520683373E+03 -0.94415736488E+02  0.30880031620E+03  0.17163977853E+03 0.  0.
        -24    2    5    5    0    0 -0.74882000315E+02 -0.17513718188E+03 -0.10406849542E+03  0.23166107896E+03  0.80970718880E+02 0.  0.
          5    1    3    3  502    0  0.29024034429E+02 -0.46786495264E+01  0.15005519853E+03  0.15298018480E+03  0.47000000000E+01 0. -1.
        -11    1    4    4    0    0  0.39593374876E+02  0.97366475519E+02  0.18473474452E+03  0.21254362310E+03  0.00000000000E+00 0.  1.
         12    1    4    4    0    0  0.81986439110E+02  0.92519007737E+02  0.97938059104E+02  0.15771305086E+03  0.00000000000E+00 0. -1.
         -5    1    5    5    0  501 -0.75721848100E+02 -0.10069651847E+02  0.96527589322E+01  0.77139237247E+02  0.47000000000E+01 0.  1.
         13    1    6    6    0    0 -0.57188267836E+02 -0.44562293624E+02 -0.19455706370E+02  0.75065441459E+02  0.00000000000E+00 0. -1.
        -14    1    6    6    0    0 -0.17693732479E+02 -0.13057488826E+03 -0.84612789051E+02  0.15659563750E+03  0.00000000000E+00 0.  1.
</event>
<event>
12    1  0.1348628E-002  0.1704124E+03  0.7818608E-02  0.1177418E+00
         -2   -1    0    0    0  501 -0.00000000000E+00  0.00000000000E+00  0.44854189520E+02  0.44854189520E+02  0.00000000000E+00 0. -1.
          2   -1    0    0  502    0  0.00000000000E+00 -0.00000000000E+00 -0.80100955145E+03  0.80100955145E+03  0.00000000000E+00 0.  1.
          6    2    1    2  502    0 -0.38054164951E+02 -0.30634035573E+01 -0.57290030280E+03  0.59937347739E+03  0.17197762801E+03 0.  0.
         24    2    3    3    0    0 -0.38608479587E+02 -0.66340575342E+02 -0.39493336233E+03  0.41043266752E+03  0.81184525949E+02 0.  0.
         -6    2    1    2    0  501  0.38054164951E+02  0.30634035573E+01 -0.18325505913E+03  0.24649026358E+03  0.16036685890E+03 0.  0.
        -24    2    5    5    0    0  0.71285076831E+01 -0.55905079276E+02 -0.99536031920E+02  0.13941718684E+03  0.79709076184E+02 0.  0.
          5    1    3    3  502    0  0.55431463598E+00  0.63277171784E+02 -0.17796694047E+03  0.18894080987E+03  0.47000000000E+01 0. -1.
        -13    1    4    4    0    0  0.21145496849E+02  0.14451241462E+01 -0.84235366305E+02  0.86860908108E+02  0.00000000000E+00 0.  1.
         14    1    4    4    0    0 -0.59753976436E+02 -0.67785699488E+02 -0.31069799602E+03  0.32357175941E+03  0.00000000000E+00 0. -1.
         -5    1    5    5    0  501  0.30925657268E+02  0.58968482834E+02 -0.83719027211E+02  0.10707307674E+03  0.47000000000E+01 0.  1.
         13    1    6    6    0    0  0.10085640011E+01  0.63428350289E+01  0.10811588401E+02  0.12575341001E+02  0.00000000000E+00 0. -1.
        -14    1    6    6    0    0  0.61199436820E+01 -0.62247914305E+02 -0.11034762032E+03  0.12684184584E+03  0.00000000000E+00 0.  1.
</event>
<event>
12    1  0.1348628E-002  0.2062492E+03  0.7818608E-02  0.1144571E+00
         -2   -1    0    0    0  501 -0.00000000000E+00  0.00000000000E+00  0.11067560617E+03  0.11067560617E+03  0.00000000000E+00 0.  1.
          2   -1    0    0  502    0  0.00000000000E+00 -0.00000000000E+00 -0.52412537470E+03  0.52412537470E+03  0.00000000000E+00 0. -1.
          6    2    1    2  502    0  0.49496525274E+01 -0.12346905913E+03 -0.37434622922E+03  0.43002423786E+03  0.17180406920E+03 0.  0.
         24    2    3    3    0    0  0.63899972291E+02 -0.76655093207E+02 -0.19928953833E+03  0.23941043293E+03  0.87417535620E+02 0.  0.
         -6    2    1    2    0  501 -0.49496525274E+01  0.12346905913E+03 -0.39103539311E+02  0.20477674301E+03  0.15854122514E+03 0.  0.
        -24    2    5    5    0    0 -0.35821973412E+02  0.17907006274E+02 -0.30347267073E+02  0.94344820525E+02  0.79850572248E+02 0.  0.
          5    1    3    3  502    0 -0.58950319763E+02 -0.46813965921E+02 -0.17505669089E+03  0.19061380493E+03  0.47000000000E+01 0. -1.
        -13    1    4    4    0    0  0.19042534486E+02 -0.11943080957E+02  0.26781436195E+01  0.22636867179E+02  0.00000000000E+00 0.  1.
         14    1    4    4    0    0  0.44857437804E+02 -0.64712012251E+02 -0.20196768195E+03  0.21677356575E+03  0.00000000000E+00 0. -1.
         -5    1    5    5    0  501  0.30872320884E+02  0.10556205285E+03 -0.87562722379E+01  0.11043192248E+03  0.47000000000E+01 0.  1.
         11    1    6    6    0    0 -0.63491716592E+01 -0.59705024876E+01  0.25435612610E+02  0.26887344041E+02  0.00000000000E+00 0. -1.
        -12    1    6    6    0    0 -0.29472801752E+02  0.23877508761E+02 -0.55782879684E+02  0.67457476484E+02  0.00000000000E+00 0.  1.
</event>
<event>
12    1  0.1348628E-002  0.1869564E+03  0.7818608E-02  0.1161235E+00
          2   -1    0    0  502    0  0.00000000000E+00  0.00000000000E+00  0.57684225562E+03  0.57684225562E+03  0.00000000000E+00 0. -1.
         -2   -1    0    0    0  501 -0.00000000000E+00 -0.00000000000E+00 -0.63596758852E+02  0.63596758852E+02  0.00000000000E+00 0.  1.
          6    2    1    2  502    0 -0.66296022922E+02  0.21021577294E+02  0.18587450449E+03  0.26299772695E+03  0.17257289356E+03 0.  0.
         24    2    3    3    0    0 -0.79045432715E+02  0.39965580544E+02  0.56780585452E+02  0.13181559157E+03  0.79409616764E+02 0.  0.
         -6    2    1    2    0  501  0.66296022922E+02 -0.21021577294E+02  0.32737099228E+03  0.37744128753E+03  0.17450813614E+03 0.  0.
        -24    2    5    5    0    0  0.11283472983E+03 -0.27233228409E+02  0.23525757701E+03  0.27394535948E+03  0.78908855355E+02 0.  0.
          5    1    3    3  502    0  0.12749409793E+02 -0.18944003250E+02  0.12909391904E+03  0.13118213538E+03  0.47000000000E+01 0. -1.
        -11    1    4    4    0    0 -0.18808607019E+02  0.52977266391E+02  0.36109428866E+02  0.66815008084E+02  0.00000000000E+00 0.  1.
         12    1    4    4    0    0 -0.60236825696E+02 -0.13011685847E+02  0.20671156587E+02  0.65000583483E+02  0.00000000000E+00 0. -1.
         -5    1    5    5    0  501 -0.46538706910E+02  0.62116511152E+01  0.92113415262E+02  0.10349592804E+03  0.47000000000E+01 0.  1.
         11    1    6    6    0    0  0.36195685013E+02 -0.10821717987E+02  0.15867743662E+02  0.40975876838E+02  0.00000000000E+00 0. -1.
        -12    1    6    6    0    0  0.76639044819E+02 -0.16411510423E+02  0.21938983335E+03  0.23296948264E+03  0.00000000000E+00 0.  1.
</event>
<event>
12    1  0.1348628E-002  0.6169773E+03  0.7818608E-02  0.9870796E-01
         -2   -1    0    0    0  501 -0.00000000000E+00  0.00000000000E+00  0.91037901387E+03  0.91037901387E+03  0.00000000000E+00 0.  1.
          2   -1    0    0  502    0  0.00000000000E+00 -0.00000000000E+00 -0.51552055743E+03  0.51552055743E+03  0.00000000000E+00 0. -1.
          6    2    1    2  502    0 -0.23146201400E+03 -0.54529837306E+03 -0.11242650112E+03  0.62720297247E+03  0.17268141454E+03 0.  0.
         24    2    3    3    0    0 -0.41542009707E+02 -0.24219414495E+03 -0.31409059754E+02  0.26042279724E+03  0.80310409485E+02 0.  0.
         -6    2    1    2    0  501  0.23146201400E+03  0.54529837306E+03  0.50728495756E+03  0.79869659884E+03  0.17220118824E+03 0.  0.
        -24    2    5    5    0    0  0.11586102022E+03  0.30469328893E+03  0.19534391730E+03  0.38810714588E+03  0.78779022170E+02 0.  0.
          5    1    3    3  502    0 -0.18992000429E+03 -0.30310422811E+03 -0.81017441361E+02  0.36678017522E+03  0.47000000000E+01 0. -1.
        -11    1    4    4    0    0  0.85029370994E+01 -0.60869388568E+02  0.21344588103E+02  0.65061308358E+02  0.00000000000E+00 0.  1.
         12    1    4    4    0    0 -0.50044946806E+02 -0.18132475638E+03 -0.52753647857E+02  0.19536148889E+03  0.00000000000E+00 0. -1.
         -5    1    5    5    0  501  0.11560099378E+03  0.24060508413E+03  0.31194104027E+03  0.41058945295E+03  0.47000000000E+01 0.  1.
         13    1    6    6    0    0 -0.10369497729E+02  0.46719772190E+02  0.22236342068E+02  0.52770432111E+02  0.00000000000E+00 0. -1.
        -14    1    6    6    0    0  0.12623051795E+03  0.25797351674E+03  0.17310757523E+03  0.33533671377E+03  0.00000000000E+00 0.  1.
</event>
<event>
12    1  0.1348628E-002  0.1898639E+03  0.7818608E-02  0.1158584E+00
          2   -1    0    0  502    0  0.00000000000E+00  0.00000000000E+00  0.33940725694E+04  0.33940725694E+04  0.00000000000E+00 0.  1.
         -2   -1    0    0    0  501 -0.00000000000E+00 -0.00000000000E+00 -0.14468775791E+02  0.14468775791E+02  0.00000000000E+00 0. -1.
          6    2    1    2  502    0  0.42948670630E+02 -0.68191310907E+02  0.25692846661E+04  0.25762971512E+04  0.17201358246E+03 0.  0.
         24    2    3    3    0    0  0.49187147436E+02 -0.10991643321E+03  0.21257693566E+04  0.21307549824E+04  0.81978287986E+02 0.  0.
         -6    2    1    2    0  501 -0.42948670630E+02  0.68191310907E+02  0.81031912747E+03  0.83224419397E+03  0.17180997311E+03 0.  0.
        -24    2    5    5    0    0 -0.55492355445E+02 -0.12385758982E+02  0.57188879717E+03  0.58021022676E+03  0.79713878140E+02 0.  0.
          5    1    3    3  502    0 -0.62384768063E+01  0.41725122308E+02  0.44351530951E+03  0.44554216882E+03  0.47000000000E+01 0. -1.
        -11    1    4    4    0    0  0.40474279768E+02 -0.78766312726E+02  0.19515617812E+04  0.19535699847E+04  0.00000000000E+00 0.  1.
         12    1    4    4    0    0  0.87128676683E+01 -0.31150120489E+02  0.17420757543E+03  0.17718499769E+03  0.00000000000E+00 0. -1.
         -5    1    5    5    0  501  0.12543684815E+02  0.80577069889E+02  0.23843033030E+03  0.25203396721E+03  0.47000000000E+01 0.  1.
         11    1    6    6    0    0 -0.50951692577E+02  0.89656349828E+01  0.16925328961E+03  0.17698342756E+03  0.00000000000E+00 0. -1.
        -12    1    6    6    0    0 -0.45406628681E+01 -0.21351393965E+02  0.40263550756E+03  0.40322679920E+03  0.00000000000E+00 0.  1.
</event>
<event>
12    1  0.1348628E-002  0.1789125E+03  0.7818608E-02  0.1168860E+00
          2   -1    0    0  502    0  0.00000000000E+00  0.00000000000E+00  0.64539000913E+03  0.64539000913E+03  0.00000000000E+00 0.  1.
         -2   -1    0    0    0  501 -0.00000000000E+00 -0.00000000000E+00 -0.51020247170E+02  0.51020247170E+02  0.00000000000E+00 0. -1.
          6    2    1    2  502    0  0.36457646627E+02 -0.24111439993E+02  0.35540542250E+03  0.39791773168E+03  0.17353669730E+03 0.  0.
         24    2    3    3    0    0  0.31321951554E+02  0.14094184291E+02  0.34665169477E+03  0.35810865181E+03  0.83034320252E+02 0.  0.
         -6    2    1    2    0  501 -0.36457646627E+02  0.24111439993E+02  0.23896433947E+03  0.29849252462E+03  0.17344540981E+03 0.  0.
        -24    2    5    5    0    0  0.33903776993E+02 -0.25898899685E+02  0.95539972477E+02  0.13102789237E+03  0.78868264463E+02 0.  0.
          5    1    3    3  502    0  0.51356950731E+01 -0.38205624283E+02  0.87537277341E+01  0.39809079869E+02  0.47000000000E+01 0. -1.
        -13    1    4    4    0    0  0.17930117590E+02 -0.33023558287E+02  0.10446464433E+03  0.11101759516E+03  0.00000000000E+00 0.  1.
         14    1    4    4    0    0  0.13391833964E+02  0.47117742578E+02  0.24218705043E+03  0.24709105666E+03  0.00000000000E+00 0. -1.
         -5    1    5    5    0  501 -0.70361423620E+02  0.50010339678E+02  0.14342436699E+03  0.16746463225E+03  0.47000000000E+01 0.  1.
         11    1    6    6    0    0  0.27754305566E+01  0.22065158129E+02  0.32714744610E+01  0.22478362111E+02  0.00000000000E+00 0. -1.
        -12    1    6    6    0    0  0.31128346436E+02 -0.47964057815E+02  0.92268498016E+02  0.10854953026E+03  0.00000000000E+00 0.  1.
</event>
<event>
12    1  0.1348628E-002  0.1977280E+03  0.7818608E-02  0.1151670E+00
          2   -1    0    0  502    0  0.00000000000E+00  0.00000000000E+00  0.42471042056E+03  0.42471042056E+03  0.00000000000E+00 0. -1.
         -2   -1    0    0    0  501 -0.00000000000E+00 -0.00000000000E+00 -0.10175381621E+03  0.10175381621E+03  0.00000000000E+00 0.  1.
          6    2    1    2  502    0 -0.31002626865E+02 -0.91577885515E+02  0.80645301955E+02  0.21408829004E+03  0.17315443748E+03 0.  0.
         24    2    3    3    0    0 -0.60495619376E+02 -0.70629244363E+02 -0.36367376306E+01  0.12225020225E+03  0.79269640886E+02 0.  0.
         -6    2    1    2    0  501  0.31002626865E+02  0.91577885515E+02  0.24231130240E+03  0.31237594672E+03  0.17180306409E+03 0.  0.
        -24    2    5    5    0    0  0.31939596597E+02  0.35169973687E+02  0.23818273665E+03  0.25561446784E+03  0.79691124050E+02 0.  0.
          5    1    3    3  502    0  0.29492992510E+02 -0.20948641152E+02  0.84282039586E+02  0.91838087796E+02  0.47000000000E+01 0. -1.
        -13    1    4    4    0    0 -0.75784914429E+02 -0.49339919321E+02 -0.18230834305E+02  0.92250442888E+02  0.00000000000E+00 0.  1.
         14    1    4    4    0    0  0.15289295053E+02 -0.21289325043E+02  0.14594096674E+02  0.29999759361E+02  0.00000000000E+00 0. -1.
         -5    1    5    5    0  501 -0.93696973131E+00  0.56407911828E+02  0.41285657458E+01  0.56761478876E+02  0.47000000000E+01 0.  1.
         13    1    6    6    0    0 -0.19771828158E+02  0.22260680355E+02  0.14710519200E+03  0.15008797617E+03  0.00000000000E+00 0. -1.
        -14    1    6    6    0    0  0.51711424755E+02  0.12909293332E+02  0.91077544654E+02  0.10552649167E+03  0.00000000000E+00 0.  1.
</event>
<event>
12    1  0.1348628E-002  0.2581213E+03  0.7818608E-02  0.1108277E+00
         -2   -1    0    0    0  501 -0.00000000000E+00  0.00000000000E+00  0.36521462341E+03  0.36521462341E+03  0.00000000000E+00 0. -1.
          2   -1    0    0  502    0  0.00000000000E+00 -0.00000000000E+00 -0.22894059577E+03  0.22894059577E+03  0.00000000000E+00 0.  1.
          6    2    1    2  502    0 -0.17082948133E+03  0.10491403670E+03  0.20138872746E+03  0.32512892870E+03  0.15799282875E+03 0.  0.
         24    2    3    3    0    0 -0.15440733983E+03  0.91402900789E+02  0.22067640910E+03  0.29603696781E+03  0.82119984857E+02 0.  0.
         -6    2    1    2    0  501  0.17082948133E+03 -0.10491403670E+03 -0.65114699824E+02  0.26902629049E+03  0.16716923775E+03 0.  0.
        -24    2    5    5    0    0  0.17348042157E+03 -0.52662916094E+02 -0.18865449727E+02  0.19903850424E+03  0.79947367545E+02 0.  0.
          5    1    3    3  502    0 -0.16422141497E+02  0.13511135911E+02 -0.19287681637E+02  0.29091960881E+02  0.47000000000E+01 0. -1.
        -11    1    4    4    0    0  0.41880277304E+01 -0.54195169655E+01  0.26119825863E+02  0.27002889540E+02  0.00000000000E+00 0.  1.
         12    1    4    4    0    0 -0.15859536756E+03  0.96822417754E+02  0.19455658324E+03  0.26903407827E+03  0.00000000000E+00 0. -1.
         -5    1    5    5    0  501 -0.26509402421E+01 -0.52251120606E+02 -0.46249250097E+02  0.69987786243E+02  0.47000000000E+01 0.  1.
         13    1    6    6    0    0  0.14558028378E+02  0.16462069589E+02  0.85462933464E+01  0.23579123295E+02  0.00000000000E+00 0. -1.
        -14    1    6    6    0    0  0.15892239319E+03 -0.69124985683E+02 -0.27411743073E+02  0.17545938095E+03  0.00000000000E+00 0.  1.
</event>
<event>
12    1  0.1348628E-002  0.3442736E+03  0.7818608E-02  0.1064990E+00
         -1   -1    0    0    0  501 -0.00000000000E+00  0.00000000000E+00  0.20707027085E+04  0.20707027085E+04  0.00000000000E+00 0. -1.
          1   -1    0    0  502    0  0.00000000000E+00 -0.00000000000E+00 -0.40258306604E+03  0.40258306604E+03  0.00000000000E+00 0.  1.
          6    2    1    2  502    0 -0.28654053717E+03 -0.77495115004E+02 -0.31087502951E+03  0.46477936621E+03  0.17682082173E+03 0.  0.
         24    2    3    3    0    0 -0.27681771814E+03 -0.20959855842E+02 -0.25035129351E+03  0.38125702574E+03  0.74925195243E+02 0.  0.
         -6    2    1    2    0  501  0.28654053717E+03  0.77495115004E+02  0.19789946719E+04  0.20085064083E+04  0.17195088932E+03 0.  0.
        -24    2    5    5    0    0  0.28405602492E+03  0.36009777595E+02  0.16139906549E+04  0.16411139364E+04  0.79401438762E+02 0.  0.
          5    1    3    3  502    0 -0.97228190232E+01 -0.56535259162E+02 -0.60523736003E+02  0.83522340473E+02  0.47000000000E+01 0. -1.
        -11    1    4    4    0    0 -0.25210404146E+03 -0.28091153276E+02 -0.19410842029E+03  0.31941139529E+03  0.00000000000E+00 0.  1.
         12    1    4    4    0    0 -0.24713676682E+02  0.71312974337E+01 -0.56242873221E+02  0.61845630455E+02  0.00000000000E+00 0. -1.
         -5    1    5    5    0  501  0.24845122505E+01  0.41485337409E+02  0.36500401698E+03  0.36739247193E+03  0.47000000000E+01 0.  1.
         13    1    6    6    0    0  0.77270096623E+02  0.46317679525E+02  0.48578188354E+03  0.49406480713E+03  0.00000000000E+00 0. -1.
        -14    1    6    6    0    0  0.20678592829E+03 -0.10307901930E+02  0.11282087714E+04  0.11470491292E+04  0.00000000000E+00 0.  1.
</event>
<event>
12    1  0.1348628E-002  0.1734262E+03  0.7818608E-02  0.1174321E+00
          2   -1    0    0  502    0  0.00000000000E+00  0.00000000000E+00  0.12425848929E+04  0.12425848929E+04  0.00000000000E+00 0. -1.
         -2   -1    0    0    0  501 -0.00000000000E+00 -0.00000000000E+00 -0.57921539445E+02  0.57921539445E+02  0.00000000000E+00 0.  1.
          6    2    1    2  502    0 -0.14696288468E+02 -0.17790398067E+02  0.97386257467E+02  0.19961308309E+03  0.17271022158E+03 0.  0.
         24    2    3    3    0    0  0.92163577857E+01 -0.53948688083E+02  0.29188054202E+01  0.95567775249E+02  0.78289705864E+02 0.  0.
         -6    2    1    2    0  501  0.14696288468E+02  0.17790398067E+02  0.10872770959E+04  0.11008933492E+04  0.17106198821E+03 0.  0.
        -24    2    5    5    0    0 -0.37824964184E+01  0.71987335019E+02  0.52374515448E+03  0.53444025096E+03  0.78236253255E+02 0.  0.
          5    1    3    3  502    0 -0.23912646254E+02  0.36158290015E+02  0.94467452047E+02  0.10404530784E+03  0.47000000000E+01 0. -1.
        -11    1    4    4    0    0 -0.82221068704E+01 -0.70790207664E+02  0.14704465569E+01  0.71281265109E+02  0.00000000000E+00 0.  1.
         12    1    4    4    0    0  0.17438464656E+02  0.16841519581E+02  0.14483588633E+01  0.24286510140E+02  0.00000000000E+00 0. -1.
         -5    1    5    5    0  501  0.18478784887E+02 -0.54196936951E+02  0.56353194146E+03  0.56645309825E+03  0.47000000000E+01 0.  1.
         11    1    6    6    0    0  0.29248425022E+02  0.41415264655E+02  0.39097703690E+03  0.39425085656E+03  0.00000000000E+00 0. -1.
        -12    1    6    6    0    0 -0.33030921440E+02  0.30572070364E+02  0.13276811758E+03  0.14018939440E+03  0.00000000000E+00 0.  1.
</event>
<event>
12    1  0.1348628E-002  0.1783085E+03  0.7818608E-02  0.1169450E+00
          2   -1    0    0  502    0  0.00000000000E+00  0.00000000000E+00  0.45606195390E+03  0.45606195390E+03  0.00000000000E+00 0. -1.
         -2   -1    0    0    0  501 -0.00000000000E+00 -0.00000000000E+00 -0.84068205020E+02  0.84068205020E+02  0.00000000000E+00 0.  1.
          6    2    1    2  502    0  0.40018401019E+02  0.33043314528E+02  0.29517725625E+03  0.34347228055E+03  0.16778039767E+03 0.  0.
         24    2    3    3    0    0  0.64580466627E+02 -0.92818878144E+01  0.10585240375E+03  0.14786883580E+03  0.80022941157E+02 0.  0.
         -6    2    1    2    0  501 -0.40018401019E+02 -0.33043314528E+02  0.76816492631E+02  0.19665787837E+03  0.17343648558E+03 0.  0.
        -24    2    5    5    0    0 -0.18379814964E+02  0.48992997304E+02  0.33248871596E+02  0.10116749944E+03  0.79945256886E+02 0.  0.
          5    1    3    3  502    0 -0.24562065607E+02  0.42325202342E+02  0.18932485250E+03  0.19560344474E+03  0.47000000000E+01 0. -1.
        -13    1    4    4    0    0  0.18289608425E+02 -0.37130834656E+02  0.74984006318E+02  0.85649342449E+02  0.00000000000E+00 0.  1.
         14    1    4    4    0    0  0.46290858202E+02  0.27848946841E+02  0.30868397429E+02  0.62219493353E+02  0.00000000000E+00 0. -1.
         -5    1    5    5    0  501 -0.21638586056E+02 -0.82036311832E+02  0.43567621035E+02  0.95490378930E+02  0.47000000000E+01 0.  1.
         13    1    6    6    0    0  0.29595549176E+02  0.23876270364E+02  0.27041115407E+02  0.46660419415E+02  0.00000000000E+00 0. -1.
        -14    1    6    6    0    0 -0.47975364139E+02  0.25116726940E+02  0.62077561882E+01  0.54507080030E+02  0.00000000000E+00 0.  1.
</event>
<event>
12    1  0.1348628E-002  0.2554909E+03  0.7818608E-02  0.1109883E+00
         -2   -1    0    0    0  501 -0.00000000000E+00  0.00000000000E+00  0.15368377970E+03  0.15368377970E+03  0.00000000000E+00 0.  1.
          2   -1    0    0  502    0  0.00000000000E+00 -0.00000000000E+00 -0.53937757764E+03  0.53937757764E+03  0.00000000000E+00 0. -1.
          6    2    1    2  502    0 -0.18872482147E+03  0.15241236434E+01 -0.33161942028E+02  0.25775387744E+03  0.17238899542E+03 0.  0.
         24    2    3    3    0    0 -0.70558437533E+02 -0.56565892481E+02 -0.36924687975E+02  0.12594343581E+03  0.79499202142E+02 0.  0.
         -6    2    1    2    0  501  0.18872482147E+03 -0.15241236434E+01 -0.35253185592E+03  0.43530747990E+03  0.17203055377E+03 0.  0.
        -24    2    5    5    0    0  0.16533764537E+03 -0.21602378110E+02 -0.17794641746E+03  0.25795962503E+03  0.84113262576E+02 0.  0.
          5    1    3    3  502    0 -0.11816638394E+03  0.58090016124E+02  0.37627459474E+01  0.13181044164E+03  0.47000000000E+01 0. -1.
        -11    1    4    4    0    0 -0.57606294162E+02 -0.20931546965E+02  0.13592702850E+02  0.62780381937E+02  0.00000000000E+00 0.  1.
         12    1    4    4    0    0 -0.12952143371E+02 -0.35634345516E+02 -0.50517390825E+02  0.63163053869E+02  0.00000000000E+00 0. -1.
         -5    1    5    5    0  501  0.23387176109E+02  0.20078254466E+02 -0.17458543845E+03  0.17734785488E+03  0.47000000000E+01 0.  1.
         13    1    6    6    0    0  0.17346759178E+02 -0.12750598989E+02 -0.73549683286E+02  0.76635786288E+02  0.00000000000E+00 0. -1.
        -14    1    6    6    0    0  0.14799088619E+03 -0.88517791209E+01 -0.10439673418E+03  0.18132383874E+03  0.00000000000E+00 0.  1.
</event>
<event>
12    1  0.1348628E-002  0.3019108E+03  0.7818608E-02  0.1084289E+00
         -1   -1    0    0    0  501 -0.00000000000E+00  0.00000000000E+00  0.32602219941E+03  0.32602219941E+03  0.00000000000E+00 0. -1.
          1   -1    0    0  502    0  0.00000000000E+00 -0.00000000000E+00 -0.29574998527E+03  0.29574998527E+03  0.00000000000E+00 0.  1.
          6    2    1    2  502    0 -0.45761014414E+02  0.24397783488E+03  0.87833864254E+02  0.31464692414E+03  0.17224588475E+03 0.  0.
         24    2    3    3    0    0  0.34340865798E+02  0.15839756995E+03  0.83467977336E+02  0.19725252936E+03  0.75316478064E+02 0.  0.
         -6    2    1    2    0  501  0.45761014414E+02 -0.24397783488E+03 -0.57561650115E+02  0.30712526054E+03  0.17144482421E+03 0.  0.
        -24    2    5    5    0    0  0.63736261298E+02 -0.18438734595E+03  0.14612898459E+02  0.21170308632E+03  0.80892864984E+02 0.  0.
          5    1    3    3  502    0 -0.80101880211E+02  0.85580264925E+02  0.43658869176E+01  0.11739439478E+03  0.47000000000E+01 0. -1.
        -13    1    4    4    0    0  0.17486095021E+02  0.27952995665E+02 -0.11611525194E+02  0.34956558799E+02  0.00000000000E+00 0.  1.
         14    1    4    4    0    0  0.16854770776E+02  0.13044457429E+03  0.95079502531E+02  0.16229597056E+03  0.00000000000E+00 0. -1.
         -5    1    5    5    0  501 -0.17975246885E+02 -0.59590488921E+02 -0.72174548574E+02  0.95422174217E+02  0.47000000000E+01 0.  1.
         13    1    6    6    0    0  0.63855890587E+02 -0.15934765278E+03 -0.15703440025E+02  0.17238285076E+03  0.00000000000E+00 0. -1.
        -14    1    6    6    0    0 -0.11962928838E+00 -0.25039693177E+02  0.30316338484E+02  0.39320235562E+02  0.00000000000E+00 0.  1.
</event>
<event>
12    1  0.1348628E-002  0.1748345E+03  0.7818608E-02  0.1172898E+00
         -1   -1    0    0    0  501 -0.00000000000E+00  0.00000000000E+00  0.26511284089E+03  0.26511284089E+03  0.00000000000E+00 0. -1.
          1   -1    0    0  502    0  0.00000000000E+00 -0.00000000000E+00 -0.14676860657E+03  0.14676860657E+03  0.00000000000E+00 0.  1.
          6    2    1    2  502    0 -0.71416313594E+01  0.21836627286E+02  0.15421298567E+03  0.23225376286E+03  0.17214042008E+03 0.  0.
         24    2    3    3    0    0  0.98106316624E+01  0.42804901597E+02  0.16980295809E+02  0.92318245876E+02  0.79409193305E+02 0.  0.
         -6    2    1    2    0  501  0.71416313594E+01 -0.21836627286E+02 -0.35868751351E+02  0.17962768460E+03  0.17450414482E+03 0.  0.
        -24    2    5    5    0    0 -0.17006182777E+02 -0.34454677640E+02  0.42314646328E+02  0.96699608559E+02  0.77999679087E+02 0.  0.
          5    1    3    3  502    0 -0.16952263022E+02 -0.20968274311E+02  0.13723268986E+03  0.13993551699E+03  0.47000000000E+01 0. -1.
        -13    1    4    4    0    0 -0.27214342560E+02  0.44884302143E+02  0.26328740439E+01  0.52556189413E+02  0.00000000000E+00 0.  1.
         14    1    4    4    0    0  0.37024974223E+02 -0.20794005459E+01  0.14347421765E+02  0.39762056463E+02  0.00000000000E+00 0. -1.
         -5    1    5    5    0  501  0.24147814136E+02  0.12618050354E+02 -0.78183397680E+02  0.82928076036E+02  0.47000000000E+01 0.  1.
         11    1    6    6    0    0 -0.91835850140E+01 -0.51655153703E+02  0.53343612769E+02  0.74820680036E+02  0.00000000000E+00 0. -1.
        -12    1    6    6    0    0 -0.78225977629E+01  0.17200476063E+02 -0.11028966441E+02  0.21878928523E+02  0.00000000000E+00 0.  1.
</event>
<event>
12    1  0.1348628E-002  0.3521292E+03  0.7818608E-02  0.1061745E+00
          1   -1    0    0  502    0  0.00000000000E+00  0.00000000000E+00  0.15135370382E+04  0.15135370382E+04  0.00000000000E+00 0. -1.
         -1   -1    0    0    0  501 -0.00000000000E+00 -0.00000000000E+00 -0.82105799878E+02  0.82105799878E+02  0.00000000000E+00 0.  1.
          6    2    1    2  502    0  0.18646883440E+03 -0.24155694543E+03  0.75085048628E+03  0.82883567101E+03  0.17341203163E+03 0.  0.
         24    2    3    3    0    0  0.16414016757E+03 -0.18237411528E+03  0.42449445764E+03  0.49637285478E+03  0.77383162673E+02 0.  0.
         -6    2    1    2    0  501 -0.18646883440E+03  0.24155694543E+03  0.68058075209E+03  0.76680716711E+03  0.17799631267E+03 0.  0.
        -24    2    5    5    0    0 -0.15948647019E+03  0.23952963045E+03  0.67584758112E+03  0.73893871017E+03  0.80312430232E+02 0.  0.
          5    1    3    3  502    0  0.22328666831E+02 -0.59182830149E+02  0.32635602864E+03  0.33246281623E+03  0.47000000000E+01 0. -1.
        -11    1    4    4    0    0  0.11622466460E+03 -0.72038782146E+02  0.23660959817E+03  0.27327982131E+03  0.00000000000E+00 0.  1.
         12    1    4    4    0    0  0.47915502978E+02 -0.11033533314E+03  0.18788485947E+03  0.22309303347E+03  0.00000000000E+00 0. -1.
         -5    1    5    5    0  501 -0.26982364215E+02  0.20273149791E+01  0.47331709741E+01  0.27868456938E+02  0.47000000000E+01 0.  1.
         11    1    6    6    0    0 -0.93983095503E+02  0.12066410626E+03  0.45184287394E+03  0.47702686666E+03  0.00000000000E+00 0. -1.
        -12    1    6    6    0    0 -0.65503374688E+02  0.11886552419E+03  0.22400470717E+03  0.26191184351E+03  0.00000000000E+00 0.  1.
</event>
<event>
12    1  0.1348628E-002  0.1728671E+03  0.7818608E-02  0.1174890E+00
          2   -1    0    0  502    0  0.00000000000E+00  0.00000000000E+00  0.29977279841E+04  0.29977279841E+04  0.00000000000E+00 0. -1.
         -2   -1    0    0    0  501 -0.00000000000E+00 -0.00000000000E+00 -0.10713998454E+02  0.10713998454E+02  0.00000000000E+00 0.  1.
          6    2    1    2  502    0  0.25211846606E+02 -0.42148828465E+01  0.18775712586E+04  0.18853713191E+04  0.16940418331E+03 0.  0.
         24    2    3    3    0    0 -0.46249322041E+02  0.23178439535E+02  0.11433284246E+04  0.11471357727E+04  0.77745447396E+02 0.  0.
         -6    2    1    2    0  501 -0.25211846606E+02  0.42148828465E+01  0.11094427271E+04  0.11230706635E+04  0.17254317740E+03 0.  0.
        -24    2    5    5    0    0 -0.33267538529E+02  0.11037585615E+02  0.11078640362E+04  0.11114076574E+04  0.81459811024E+02 0.  0.
          5    1    3    3  502    0  0.71461168647E+02 -0.27393322381E+02  0.73424283397E+03  0.73823554640E+03  0.47000000000E+01 0. -1.
        -13    1    4    4    0    0 -0.21308762922E+02 -0.75452884774E+01  0.81686776202E+02  0.84756853185E+02  0.00000000000E+00 0.  1.
         14    1    4    4    0    0 -0.24940559119E+02  0.30723728012E+02  0.10616416484E+04  0.10623789195E+04  0.00000000000E+00 0. -1.
         -5    1    5    5    0  501  0.80556919229E+01 -0.68227027682E+01  0.15786908505E+01  0.11663006054E+02  0.47000000000E+01 0.  1.
         13    1    6    6    0    0 -0.32912654223E+02  0.42730344810E+02  0.82794276829E+03  0.82969774782E+03  0.00000000000E+00 0. -1.
        -14    1    6    6    0    0 -0.35488430596E+00 -0.31692759195E+02  0.27992126795E+03  0.28170990962E+03  0.00000000000E+00 0.  1.
</event>
<event>
12    1  0.1348628E-002  0.2181618E+03  0.7818608E-02  0.1135261E+00
          1   -1    0    0  502    0  0.00000000000E+00  0.00000000000E+00  0.48820929032E+03  0.48820929032E+03  0.00000000000E+00 0.  1.
         -1   -1    0    0    0  501 -0.00000000000E+00 -0.00000000000E+00 -0.99706950344E+02  0.99706950344E+02  0.00000000000E+00 0. -1.
          6    2    1    2  502    0 -0.13350436732E+03 -0.51470705148E+01  0.14818906715E+03  0.26150556708E+03  0.16904216505E+03 0.  0.
         24    2    3    3    0    0 -0.31839579312E+02 -0.21333393218E+02  0.12949085590E+03  0.15677047618E+03  0.79625548429E+02 0.  0.
         -6    2    1    2    0  501  0.13350436732E+03  0.51470705148E+01  0.24031327283E+03  0.32641067359E+03  0.17590778921E+03 0.  0.
        -24    2    5    5    0    0  0.89681891367E+02  0.43692047119E+02  0.23573874575E+03  0.26768128641E+03  0.78285874998E+02 0.  0.
          5    1    3    3  502    0 -0.10166478801E+03  0.16186322703E+02  0.18698211250E+02  0.10473509091E+03  0.47000000000E+01 0. -1.
        -11    1    4    4    0    0 -0.63354393305E+01  0.21172108946E+02  0.48378982119E+01  0.22623024728E+02  0.00000000000E+00 0.  1.
         12    1    4    4    0    0 -0.25504139982E+02 -0.42505502164E+02  0.12465295768E+03  0.13414745145E+03  0.00000000000E+00 0. -1.
         -5    1    5    5    0  501  0.43822475952E+02 -0.38544976604E+02  0.45745270787E+01  0.58729387175E+02  0.47000000000E+01 0.  1.
         13    1    6    6    0    0 -0.11738788985E+02  0.58248129667E+01  0.58866919631E+02  0.60307892019E+02  0.00000000000E+00 0. -1.
        -14    1    6    6    0    0  0.10142068035E+03  0.37867234153E+02  0.17687182612E+03  0.20737339439E+03  0.00000000000E+00 0.  1.
</event>
<event>
12    1  0.1348628E-002  0.2093924E+03  0.7818608E-02  0.1142048E+00
          2   -1    0    0  502    0  0.00000000000E+00  0.00000000000E+00  0.89329985065E+02  0.89329985065E+02  0.00000000000E+00 0. -1.
         -2   -1    0    0    0  501 -0.00000000000E+00 -0.00000000000E+00 -0.49325820304E+03  0.49325820304E+03  0.00000000000E+00 0.  1.
          6    2    1    2  502    0  0.81412281538E+02 -0.87122967880E+02 -0.18146702893E+03  0.27706210510E+03  0.17208938485E+03 0.  0.
         24    2    3    3    0    0  0.39935626566E+02 -0.11900587296E+03 -0.16486555379E+03  0.22197552307E+03  0.79594157735E+02 0.  0.
         -6    2    1    2    0  501 -0.81412281538E+02  0.87122967880E+02 -0.22246118905E+03  0.30552608300E+03  0.17215933215E+03 0.  0.
        -24    2    5    5    0    0 -0.10121131344E+03  0.27697518408E+02 -0.90083284961E+02  0.15900173281E+03  0.78458079980E+02 0.  0.
          5    1    3    3  502    0  0.41476654971E+02  0.31882905077E+02 -0.16601475136E+02  0.55086582036E+02  0.47000000000E+01 0. -1.
        -11    1    4    4    0    0 -0.18357568119E+02 -0.45129735694E+02 -0.87505937046E+02  0.10015479204E+03  0.00000000000E+00 0.  1.
         12    1    4    4    0    0  0.58293194685E+02 -0.73876137262E+02 -0.77359616746E+02  0.12182073102E+03  0.00000000000E+00 0. -1.
         -5    1    5    5    0  501  0.19799031899E+02  0.59425449471E+02 -0.13237790409E+03  0.14652435019E+03  0.47000000000E+01 0.  1.
         13    1    6    6    0    0 -0.10783899297E+03  0.21250546105E+02 -0.97672439208E+02  0.14703992483E+03  0.00000000000E+00 0. -1.
        -14    1    6    6    0    0  0.66276795338E+01  0.64469723034E+01  0.75891542468E+01  0.11961807976E+02  0.00000000000E+00 0.  1.
</event>
<event>
12    1  0.1348628E-002  0.1792422E+03  0.7818608E-02  0.1168538E+00
         -1   -1    0    0    0  501 -0.00000000000E+00  0.00000000000E+00  0.30031444003E+02  0.30031444003E+02  0.00000000000E+00 0.  1.
          1   -1    0    0  502    0  0.00000000000E+00 -0.00000000000E+00 -0.10807044582E+04  0.10807044582E+04  0.00000000000E+00 0. -1.
          6    2    1    2  502    0 -0.42519533849E+02  0.12742451514E+02 -0.46732268538E+03  0.50023610957E+03  0.17284499479E+03 0.  0.
         24    2    3    3    0    0  0.50045702523E+02  0.20115678142E+02 -0.21357582392E+03  0.22999131840E+03  0.66122319449E+02 0.  0.
         -6    2    1    2    0  501  0.42519533849E+02 -0.12742451514E+02 -0.58335032887E+03  0.61049979268E+03  0.17447667420E+03 0.  0.
        -24    2    5    5    0    0  0.94454882027E+02 -0.11703505203E+01 -0.40218760478E+03  0.42162624633E+03  0.84206458748E+02 0.  0.
          5    1    3    3  502    0 -0.92565236371E+02 -0.73732266285E+01 -0.25374686146E+03  0.27024479117E+03  0.47000000000E+01 0. -1.
        -13    1    4    4    0    0  0.51948578673E+01  0.73744759589E+01  0.21592266778E+01  0.92753276910E+01  0.00000000000E+00 0.  1.
         14    1    4    4    0    0  0.44850844655E+02  0.12741202183E+02 -0.21573505059E+03  0.22071599071E+03  0.00000000000E+00 0. -1.
         -5    1    5    5    0  501 -0.51935348178E+02 -0.11572100993E+02 -0.18116272409E+03  0.18887354635E+03  0.47000000000E+01 0.  1.
         11    1    6    6    0    0 -0.14477951109E+02  0.64382562972E+01 -0.76374864521E+02  0.78001167575E+02  0.00000000000E+00 0. -1.
        -12    1    6    6    0    0  0.10893283314E+03 -0.76086068175E+01 -0.32581274026E+03  0.34362507875E+03  0.00000000000E+00 0.  1.
</event>
<event>
12    1  0.1348628E-002  0.2083677E+03  0.7818608E-02  0.1142865E+00
         -2   -1    0    0    0  501 -0.00000000000E+00  0.00000000000E+00  0.18355596276E+03  0.18355596276E+03  0.00000000000E+00 0.  1.
          2   -1    0    0  502    0  0.00000000000E+00 -0.00000000000E+00 -0.78727883937E+03  0.78727883937E+03  0.00000000000E+00 0. -1.
          6    2    1    2  502    0 -0.80537385880E+02 -0.80876475589E+02  0.10313121750E+03  0.23454535946E+03  0.17705423687E+03 0.  0.
         24    2    3    3    0    0 -0.58724701709E+02 -0.17317069367E+02  0.12775495100E+03  0.16282360849E+03  0.80260379364E+02 0.  0.
         -6    2    1    2    0  501  0.80537385880E+02  0.80876475589E+02 -0.70685409411E+03  0.73628944267E+03  0.17161631101E+03 0.  0.
        -24    2    5    5    0    0  0.23066592251E+02  0.92600033728E+02 -0.60662709727E+03  0.62006605935E+03  0.85899062213E+02 0.  0.
          5    1    3    3  502    0 -0.21812684171E+02 -0.63559406223E+02 -0.24623733501E+02  0.71721750966E+02  0.47000000000E+01 0. -1.
        -11    1    4    4    0    0 -0.35990817953E+01  0.26511623354E+02  0.17412708870E+02  0.31922123877E+02  0.00000000000E+00 0.  1.
         12    1    4    4    0    0 -0.55125619914E+02 -0.43828692721E+02  0.11034224213E+03  0.13090148462E+03  0.00000000000E+00 0. -1.
         -5    1    5    5    0  501  0.57470793629E+02 -0.11723558139E+02 -0.10022699684E+03  0.11622338332E+03  0.47000000000E+01 0.  1.
         13    1    6    6    0    0 -0.94512791091E+01  0.94501798222E+02 -0.41863722595E+03  0.42927502081E+03  0.00000000000E+00 0. -1.
        -14    1    6    6    0    0  0.32517871360E+02 -0.19017644935E+01 -0.18798987133E+03  0.19079103854E+03  0.00000000000E+00 0.  1.
</event>
<event>
12    1  0.1954522E-002  0.1684020E+03  0.7818608E-02  0.1179525E+00
          2   -1    0    0  502    0  0.00000000000E+00  0.00000000000E+00  0.22974638895E+04  0.22974638895E+04  0.00000000000E+00 0. -1.
         -2   -1    0    0    0  501 -0.00000000000E+00 -0.00000000000E+00 -0.12535723985E+02  0.12535723985E+02  0.00000000000E+00 0.  1.
          6    2    1    2  502    0 -0.15617548694E+02 -0.71553567378E+01  0.13117912186E+04  0.13231364760E+04  0.17204309355E+03 0.  0.
         24    2    3    3    0    0 -0.16636679489E+02  0.18755956903E+00  0.13119647620E+04  0.13143571158E+04  0.77500173644E+02 0.  0.
         -6    2    1    2    0  501  0.15617548694E+02  0.71553567378E+01  0.97313694695E+03  0.98686313750E+03  0.16312028589E+03 0.  0.
        -24    2    5    5    0    0  0.30926907805E+01 -0.74361213778E+01  0.95934964925E+03  0.96273923074E+03  0.80313238314E+02 0.  0.
          5    1    3    3  502    0  0.10191307947E+01 -0.73429163068E+01 -0.17354344060E+00  0.87793601584E+01  0.47000000000E+01 0. -1.
        -11    1    4    4    0    0 -0.23129769016E+02  0.19977892134E+02  0.21165904458E+03  0.21385428109E+03  0.00000000000E+00 0.  1.
         12    1    4    4    0    0  0.64930895277E+01 -0.19790332565E+02  0.11003057174E+04  0.11005028348E+04  0.00000000000E+00 0. -1.
         -5    1    5    5    0  501  0.12524857914E+02  0.14591478116E+02  0.13787297703E+02  0.24123906759E+02  0.47000000000E+01 0.  1.
         13    1    6    6    0    0  0.45363969858E+01  0.29539270103E+02  0.71299222555E+03  0.71361828807E+03  0.00000000000E+00 0. -1.
        -14    1    6    6    0    0 -0.14437062053E+01 -0.36975391481E+02  0.24635742370E+03  0.24912094267E+03  0.00000000000E+00 0.  1.
</event>
<event>
12    1  0.1348628E-002  0.2649356E+03  0.7818608E-02  0.1104214E+00
          1   -1    0    0  502    0  0.00000000000E+00  0.00000000000E+00  0.68773234068E+03  0.68773234068E+03  0.00000000000E+00 0.  1.
         -1   -1    0    0    0  501 -0.00000000000E+00 -0.00000000000E+00 -0.10207087841E+03  0.10207087841E+03  0.00000000000E+00 0. -1.
          6    2    1    2  502    0 -0.70928911967E+02  0.18901452629E+03  0.29724701206E+03  0.39860911280E+03  0.17255734388E+03 0.  0.
         24    2    3    3    0    0 -0.59110750393E+02  0.91838162596E+02  0.26109182782E+03  0.29414762731E+03  0.80159560724E+02 0.  0.
         -6    2    1    2    0  501  0.70928911967E+02 -0.18901452629E+03  0.28841445021E+03  0.39119410629E+03  0.17056533061E+03 0.  0.
        -24    2    5    5    0    0 -0.48897345270E+01 -0.14873487335E+03  0.13947014714E+03  0.21921325557E+03  0.80352706371E+02 0.  0.
          5    1    3    3  502    0 -0.11818161574E+02  0.97176363691E+02  0.36155184237E+02  0.10446148549E+03  0.47000000000E+01 0. -1.
        -11    1    4    4    0    0 -0.33393365040E+02  0.15483894548E+02  0.24508104097E+02  0.44221205157E+02  0.00000000000E+00 0.  1.
         12    1    4    4    0    0 -0.25717385353E+02  0.76354268048E+02  0.23658372373E+03  0.24992642216E+03  0.00000000000E+00 0. -1.
         -5    1    5    5    0  501  0.75818646494E+02 -0.40279652939E+02  0.14894430307E+03  0.17198085072E+03  0.47000000000E+01 0.  1.
         11    1    6    6    0    0 -0.17620194885E+02 -0.26636816853E+02 -0.18856253762E+01  0.31992918950E+02  0.00000000000E+00 0. -1.
        -12    1    6    6    0    0  0.12730460358E+02 -0.12209805649E+03  0.14135577252E+03  0.18722033662E+03  0.00000000000E+00 0.  1.
</event>
<event>
12    1  0.1348628E-002  0.1865882E+03  0.7818608E-02  0.1161575E+00
          3   -1    0    0  502    0  0.00000000000E+00  0.00000000000E+00  0.41013604793E+02  0.41013604793E+02  0.00000000000E+00 0. -1.
         -3   -1    0    0    0  501 -0.00000000000E+00 -0.00000000000E+00 -0.10079895171E+04  0.10079895171E+04  0.00000000000E+00 0.  1.
          6    2    1    2  502    0 -0.58825491389E+02 -0.38956905440E+02 -0.27471629922E+03  0.33199305060E+03  0.17254640439E+03 0.  0.
         24    2    3    3    0    0 -0.33859352479E+02 -0.15404290354E+01 -0.27341198261E+03  0.28674824934E+03  0.79508600749E+02 0.  0.
         -6    2    1    2    0  501  0.58825491389E+02  0.38956905440E+02 -0.69225961306E+03  0.71701007127E+03  0.17292192317E+03 0.  0.
        -24    2    5    5    0    0  0.98419648279E+02  0.51942162612E+02 -0.60522567410E+03  0.62040101013E+03  0.78834518816E+02 0.  0.
          5    1    3    3  502    0 -0.24966138910E+02 -0.37416476404E+02 -0.13043166081E+01  0.45244801253E+02  0.47000000000E+01 0. -1.
        -13    1    4    4    0    0 -0.54039513502E+02 -0.17889621433E+02 -0.14575938704E+03  0.15648037092E+03  0.00000000000E+00 0.  1.
         14    1    4    4    0    0  0.20180161023E+02  0.16349192398E+02 -0.12765259557E+03  0.13026787842E+03  0.00000000000E+00 0. -1.
         -5    1    5    5    0  501 -0.39594156890E+02 -0.12985257172E+02 -0.87033938959E+02  0.96609061140E+02  0.47000000000E+01 0.  1.
         11    1    6    6    0    0  0.28534383160E+01  0.36289327088E+02 -0.11228051665E+03  0.11803377393E+03  0.00000000000E+00 0. -1.
        -12    1    6    6    0    0  0.95566209963E+02  0.15652835524E+02 -0.49294515745E+03  0.50236723619E+03  0.00000000000E+00 0.  1.
</event>
<event>
12    1  0.1348628E-002  0.1740936E+03  0.7818608E-02  0.1173645E+00
         -2   -1    0    0    0  501 -0.00000000000E+00  0.00000000000E+00  0.20746816100E+02  0.20746816100E+02  0.00000000000E+00 0. -1.
          2   -1    0    0  502    0  0.00000000000E+00 -0.00000000000E+00 -0.14849308921E+04  0.14849308921E+04  0.00000000000E+00 0.  1.
          6    2    1    2  502    0  0.20898486125E+02  0.18479816369E+02 -0.82956496745E+03  0.84771922001E+03  0.17225443513E+03 0.  0.
         24    2    3    3    0    0  0.14309316047E+02  0.19076116503E+02 -0.19206866099E+03  0.21017125830E+03  0.81932487655E+02 0.  0.
         -6    2    1    2    0  501 -0.20898486125E+02 -0.18479816369E+02 -0.63461910855E+03  0.65795848819E+03  0.17143426993E+03 0.  0.
        -24    2    5    5    0    0 -0.85356662669E+01  0.45033829840E+02 -0.22109423525E+03  0.23937548159E+03  0.79479915071E+02 0.  0.
          5    1    3    3  502    0  0.65891700773E+01 -0.59630013385E+00 -0.63749630645E+03  0.63754796171E+03  0.47000000000E+01 0. -1.
        -13    1    4    4    0    0  0.13368624903E+01  0.15771485630E+02 -0.19566953289E+03  0.19630866782E+03  0.00000000000E+00 0.  1.
         14    1    4    4    0    0  0.12972453557E+02  0.33046308737E+01  0.36008718935E+01  0.13862590483E+02  0.00000000000E+00 0. -1.
         -5    1    5    5    0  501 -0.12362819858E+02 -0.63513646209E+02 -0.41352487330E+03  0.41858300659E+03  0.47000000000E+01 0.  1.
         11    1    6    6    0    0 -0.81353704662E+01 -0.28891341499E+01  0.37993768478E+01  0.94322114687E+01  0.00000000000E+00 0. -1.
        -12    1    6    6    0    0 -0.40029580064E+00  0.47922963990E+02 -0.22489361210E+03  0.22994327013E+03  0.00000000000E+00 0.  1.
</event>
<event>
12    1  0.1348628E-002  0.1747976E+03  0.7818608E-02  0.1172935E+00
          2   -1    0    0  502    0  0.00000000000E+00  0.00000000000E+00  0.43002452224E+02  0.43002452224E+02  0.00000000000E+00 0. -1.
         -2   -1    0    0    0  501 -0.00000000000E+00 -0.00000000000E+00 -0.10387433152E+04  0.10387433152E+04  0.00000000000E+00 0.  1.
          6    2    1    2  502    0  0.21688258381E+02 -0.33617430897E+01 -0.80443846166E+03  0.82349116460E+03  0.17474203192E+03 0.  0.
         24    2    3    3    0    0 -0.55465683743E+02  0.77168679752E+01 -0.40984775606E+03  0.42124822638E+03  0.79617164954E+02 0.  0.
         -6    2    1    2    0  501 -0.21688258381E+02  0.33617430897E+01 -0.19130240131E+03  0.25825460281E+03  0.17209633714E+03 0.  0.
        -24    2    5    5    0    0  0.62720050154E+01  0.40374539227E+02 -0.19224484624E+03  0.21162090673E+03  0.78459453199E+02 0.  0.
          5    1    3    3  502    0  0.77153942124E+02 -0.11078611065E+02 -0.39459070559E+03  0.40224293822E+03  0.47000000000E+01 0. -1.
        -13    1    4    4    0    0 -0.22546682300E+02  0.12377686095E+02 -0.36239898642E+03  0.36331059075E+03  0.00000000000E+00 0.  1.
         14    1    4    4    0    0 -0.32919001443E+02 -0.46608181194E+01 -0.47448769646E+02  0.57937635631E+02  0.00000000000E+00 0. -1.
         -5    1    5    5    0  501 -0.27960263397E+02 -0.37012796137E+02  0.94244493399E+00  0.46633696074E+02  0.47000000000E+01 0.  1.
         11    1    6    6    0    0 -0.24727528490E+02  0.20447538060E+01 -0.18313462833E+02  0.30838524678E+02  0.00000000000E+00 0. -1.
        -12    1    6    6    0    0  0.30999533506E+02  0.38329785421E+02 -0.17393138341E+03  0.18078238206E+03  0.00000000000E+00 0.  1.
</event>
<event>
12    1  0.1348628E-002  0.1877952E+03  0.7818608E-02  0.1160465E+00
         -2   -1    0    0    0  501 -0.00000000000E+00  0.00000000000E+00  0.28303080378E+02  0.28303080378E+02  0.00000000000E+00 0. -1.
          2   -1    0    0  502    0  0.00000000000E+00 -0.00000000000E+00 -0.15285063714E+04  0.15285063714E+04  0.00000000000E+00 0.  1.
          6    2    1    2  502    0  0.63862446912E+02 -0.46059665088E+02 -0.40789164194E+03  0.44806464130E+03  0.16788813640E+03 0.  0.
         24    2    3    3    0    0 -0.11723088234E+02 -0.59554825594E+02 -0.29110051251E+03  0.30821632921E+03  0.81077673621E+02 0.  0.
         -6    2    1    2    0  501 -0.63862446912E+02  0.46059665088E+02 -0.10923116491E+04  0.11087448105E+04  0.17311964408E+03 0.  0.
        -24    2    5    5    0    0 -0.66318604008E+02  0.70022429818E+02 -0.48887716913E+03  0.50481144628E+03  0.80823337466E+02 0.  0.
          5    1    3    3  502    0  0.75585535146E+02  0.13495160506E+02 -0.11679112943E+03  0.13984831209E+03  0.47000000000E+01 0. -1.
        -11    1    4    4    0    0 -0.10887683840E+02 -0.64381799852E+02 -0.29488395289E+03  0.30202666022E+03  0.00000000000E+00 0.  1.
         12    1    4    4    0    0 -0.83540439348E+00  0.48269742579E+01  0.37834403867E+01  0.61896689852E+01  0.00000000000E+00 0. -1.
         -5    1    5    5    0  501  0.24561570961E+01 -0.23962764731E+02 -0.60343447992E+03  0.60393336417E+03  0.47000000000E+01 0.  1.
         13    1    6    6    0    0 -0.53705114131E+01  0.21012298106E+01  0.15454981829E+01  0.59704375207E+01  0.00000000000E+00 0. -1.
        -14    1    6    6    0    0 -0.60948092595E+02  0.67921200008E+02 -0.49042266731E+03  0.49884100876E+03  0.00000000000E+00 0.  1.
</event>
<event>
12    1  0.1348628E-002  0.2611996E+03  0.7818608E-02  0.1106425E+00
         -2   -1    0    0    0  501 -0.00000000000E+00  0.00000000000E+00  0.29352615913E+03  0.29352615913E+03  0.00000000000E+00 0. -1.
          2   -1    0    0  502    0  0.00000000000E+00 -0.00000000000E+00 -0.24195512734E+03  0.24195512734E+03  0.00000000000E+00 0.  1.
          6    2    1    2  502    0 -0.24295656125E+02  0.19615121273E+03 -0.27111901691E+02  0.26450377911E+03  0.17367100156E+03 0.  0.
         24    2    3    3    0    0 -0.36706094844E+02  0.40665242624E+02  0.25587259013E+02  0.99794345772E+02  0.79392721756E+02 0.  0.
         -6    2    1    2    0  501  0.24295656125E+02 -0.19615121273E+03  0.78682933477E+02  0.27097750736E+03  0.16784584687E+03 0.  0.
        -24    2    5    5    0    0  0.67526774484E+02 -0.83776440853E+02  0.20386122782E+02  0.13712076645E+03  0.82511534196E+02 0.  0.
          5    1    3    3  502    0  0.12410438719E+02  0.15548597011E+03 -0.52699160704E+02  0.16470943333E+03  0.47000000000E+01 0. -1.
        -11    1    4    4    0    0 -0.11753400712E+01  0.57120674326E+02  0.12271045546E+02  0.58435703286E+02  0.00000000000E+00 0.  1.
         12    1    4    4    0    0 -0.35530754772E+02 -0.16455431702E+02  0.13316213467E+02  0.41358642486E+02  0.00000000000E+00 0. -1.
         -5    1    5    5    0  501 -0.43231118359E+02 -0.11237477188E+03  0.58296810695E+02  0.13385674091E+03  0.47000000000E+01 0.  1.
         13    1    6    6    0    0  0.28514782375E+02 -0.54504275917E+02  0.50683739338E+02  0.79703515233E+02  0.00000000000E+00 0. -1.
        -14    1    6    6    0    0  0.39011992109E+02 -0.29272164936E+02 -0.30297616556E+02  0.57417251217E+02  0.00000000000E+00 0.  1.
</event>
<event>
12    1  0.1348628E-002  0.2327529E+03  0.7818608E-02  0.1124717E+00
          1   -1    0    0  502    0  0.00000000000E+00  0.00000000000E+00  0.21054006567E+03  0.21054006567E+03  0.00000000000E+00 0. -1.
         -1   -1    0    0    0  501 -0.00000000000E+00 -0.00000000000E+00 -0.37315380670E+03  0.37315380670E+03  0.00000000000E+00 0.  1.
          6    2    1    2  502    0 -0.12065027611E+03  0.10161412419E+03  0.81253889246E+02  0.24672299665E+03  0.17142964504E+03 0.  0.
         24    2    3    3    0    0 -0.11562092276E+03  0.13714081640E+02  0.70560200199E+02  0.15790770032E+03  0.79998913454E+02 0.  0.
         -6    2    1    2    0  501  0.12065027611E+03 -0.10161412419E+03 -0.24386763028E+03  0.33697087572E+03  0.17086846001E+03 0.  0.
        -24    2    5    5    0    0  0.14812361720E+03 -0.11193327706E+03 -0.21418924744E+03  0.29496890202E+03  0.81608547058E+02 0.  0.
          5    1    3    3  502    0 -0.50293533429E+01  0.87900042551E+02  0.10693689047E+02  0.88815296323E+02  0.47000000000E+01 0. -1.
        -11    1    4    4    0    0  0.11997118443E+01  0.13264894258E+02 -0.94348279493E+01  0.16322153859E+02  0.00000000000E+00 0.  1.
         12    1    4    4    0    0 -0.11682063461E+03  0.44918738272E+00  0.79995028148E+02  0.14158554647E+03  0.00000000000E+00 0. -1.
         -5    1    5    5    0  501 -0.27473341093E+02  0.10319152869E+02 -0.29678382834E+02  0.42001973697E+02  0.47000000000E+01 0.  1.
         11    1    6    6    0    0  0.48719181231E+02 -0.41487626504E+02 -0.22486808627E+02  0.67826531203E+02  0.00000000000E+00 0. -1.
        -12    1    6    6    0    0  0.99404435968E+02 -0.70445650557E+02 -0.19170243882E+03  0.22714237082E+03  0.00000000000E+00 0.  1.
</event>
<event>
12    1  0.1348628E-002  0.2787322E+03  0.7818608E-02  0.1096383E+00
          1   -1    0    0  502    0  0.00000000000E+00  0.00000000000E+00  0.37887576906E+03  0.37887576906E+03  0.00000000000E+00 0. -1.
         -1   -1    0    0    0  501 -0.00000000000E+00 -0.00000000000E+00 -0.21929382636E+03  0.21929382636E+03  0.00000000000E+00 0.  1.
          6    2    1    2  502    0 -0.16129742061E+03 -0.14874675097E+03  0.15611400024E+03  0.31987292817E+03  0.17264024816E+03 0.  0.
         24    2    3    3    0    0 -0.18913720962E+03 -0.13958809829E+03  0.12936343930E+03  0.27991523452E+03  0.79749093057E+02 0.  0.
         -6    2    1    2    0  501  0.16129742061E+03  0.14874675097E+03  0.34679424639E+01  0.27829666725E+03  0.17115652064E+03 0.  0.
        -24    2    5    5    0    0  0.44948343266E+02  0.10189540229E+03 -0.45778167024E+02  0.14346556560E+03  0.77998085659E+02 0.  0.
          5    1    3    3  502    0  0.27839789005E+02 -0.91586526771E+01  0.26750560946E+02  0.39957693648E+02  0.47000000000E+01 0. -1.
        -11    1    4    4    0    0 -0.10724170794E+03 -0.72691678779E+02  0.26191353793E+02  0.13217734714E+03  0.00000000000E+00 0.  1.
         12    1    4    4    0    0 -0.81895501683E+02 -0.66896419515E+02  0.10317208550E+03  0.14773788738E+03  0.00000000000E+00 0. -1.
         -5    1    5    5    0  501  0.11634907735E+03  0.46851348678E+02  0.49246109488E+02  0.13483110165E+03  0.47000000000E+01 0.  1.
         13    1    6    6    0    0  0.25260437727E+02  0.22932701137E+02  0.19359320593E+02  0.39227309230E+02  0.00000000000E+00 0. -1.
        -14    1    6    6    0    0  0.19687905539E+02  0.78962701155E+02 -0.65137487617E+02  0.10423825637E+03  0.00000000000E+00 0.  1.
</event>
<event>
12    1  0.1348628E-002  0.1832046E+03  0.7818608E-02  0.1164737E+00
         -1   -1    0    0    0  501 -0.00000000000E+00  0.00000000000E+00  0.32584257920E+02  0.32584257920E+02  0.00000000000E+00 0.  1.
          1   -1    0    0  502    0  0.00000000000E+00 -0.00000000000E+00 -0.11065402960E+04  0.11065402960E+04  0.00000000000E+00 0. -1.
          6    2    1    2  502    0  0.46060393396E+02 -0.43957209859E+02 -0.68795156321E+03  0.71204578562E+03  0.17227318814E+03 0.  0.
         24    2    3    3    0    0  0.25996413730E+02  0.40295191378E+02 -0.42222560106E+03  0.43252224930E+03  0.80632015813E+02 0.  0.
         -6    2    1    2    0  501 -0.46060393396E+02  0.43957209859E+02 -0.38600447485E+03  0.42707876828E+03  0.17129805479E+03 0.  0.
        -24    2    5    5    0    0  0.39909214014E+02  0.29179435776E+02 -0.20842012920E+03  0.22917109834E+03  0.81463226183E+02 0.  0.
          5    1    3    3  502    0  0.20063979666E+02 -0.84252401238E+02 -0.26572596215E+03  0.27952353632E+03  0.47000000000E+01 0. -1.
        -11    1    4    4    0    0  0.29666703151E+02  0.48336187393E+02 -0.15335074847E+03  0.16350214782E+03  0.00000000000E+00 0.  1.
         12    1    4    4    0    0 -0.36702894214E+01 -0.80409960148E+01 -0.26887485260E+03  0.26902010148E+03  0.00000000000E+00 0. -1.
         -5    1    5    5    0  501 -0.85969607409E+02  0.14777774083E+02 -0.17758434565E+03  0.19790766995E+03  0.47000000000E+01 0.  1.
         11    1    6    6    0    0  0.63631221270E+02  0.13807445709E+02 -0.12263152134E+03  0.13884548212E+03  0.00000000000E+00 0. -1.
        -12    1    6    6    0    0 -0.23722007256E+02  0.15371990067E+02 -0.85788607860E+02  0.90325616219E+02  0.00000000000E+00 0.  1.
</event>
<event>
12    1  0.1348628E-002  0.2024394E+03  0.7818608E-02  0.1147697E+00
          2   -1    0    0  502    0  0.00000000000E+00  0.00000000000E+00  0.84749499261E+03  0.84749499261E+03  0.00000000000E+00 0.  1.
         -2   -1    0    0    0  501 -0.00000000000E+00 -0.00000000000E+00 -0.59922871256E+02  0.59922871256E+02  0.00000000000E+00 0. -1.
          6    2    1    2  502    0 -0.10430322135E+03  0.13253140217E+02  0.19677002737E+03  0.28336530986E+03  0.17470731941E+03 0.  0.
         24    2    3    3    0    0 -0.10371940498E+03 -0.30564530730E+02  0.19840422113E+03  0.23926213857E+03  0.78678017784E+02 0.  0.
         -6    2    1    2    0  501  0.10430322135E+03 -0.13253140217E+02  0.59080209399E+03  0.62405255401E+03  0.17128826051E+03 0.  0.
        -24    2    5    5    0    0  0.10580548170E+03 -0.43227924163E+02  0.28963268018E+03  0.32135493215E+03  0.79488675962E+02 0.  0.
          5    1    3    3  502    0 -0.58381636922E+00  0.43817670947E+02 -0.16341937654E+01  0.44103171292E+02  0.47000000000E+01 0. -1.
        -13    1    4    4    0    0  0.38535216750E+01  0.15656581152E+02  0.31492939944E+02  0.35380551564E+02  0.00000000000E+00 0.  1.
         14    1    4    4    0    0 -0.10757292665E+03 -0.46221111882E+02  0.16691128119E+03  0.20388158701E+03  0.00000000000E+00 0. -1.
         -5    1    5    5    0  501 -0.15022603534E+01  0.29974783946E+02  0.30116941381E+03  0.30269762185E+03  0.47000000000E+01 0.  1.
         11    1    6    6    0    0  0.80608459528E+02  0.56805196584E+01  0.20563759650E+03  0.22094527183E+03  0.00000000000E+00 0. -1.
        -12    1    6    6    0    0  0.25197022174E+02 -0.48908443821E+02  0.83995083676E+02  0.10040966032E+03  0.00000000000E+00 0.  1.
</event>
<event>
12    1  0.1348628E-002  0.2869993E+03  0.7818608E-02  0.1091926E+00
          2   -1    0    0  502    0  0.00000000000E+00  0.00000000000E+00  0.29028626938E+04  0.29028626938E+04  0.00000000000E+00 0. -1.
         -2   -1    0    0    0  501 -0.00000000000E+00 -0.00000000000E+00 -0.28377384622E+02  0.28377384622E+02  0.00000000000E+00 0.  1.
          6    2    1    2  502    0  0.13152180836E+03  0.19184432639E+03  0.14562414650E+04  0.14845996556E+04  0.17115695017E+03 0.  0.
         24    2    3    3    0    0  0.32648311324E+02  0.19275419404E+02  0.45278458708E+03  0.46161197641E+03  0.81451092338E+02 0.  0.
         -6    2    1    2    0  501 -0.13152180836E+03 -0.19184432639E+03  0.14182438442E+04  0.14466404228E+04  0.16507779846E+03 0.  0.
        -24    2    5    5    0    0 -0.13543804037E+03 -0.18231252561E+03  0.14144062806E+04  0.14346817860E+04  0.78647191326E+02 0.  0.
          5    1    3    3  502    0  0.98873497034E+02  0.17256890698E+03  0.10034568779E+04  0.10229876792E+04  0.47000000000E+01 0. -1.
        -13    1    4    4    0    0 -0.12963803409E+02 -0.65633026186E+01  0.15689514666E+02  0.21384527364E+02  0.00000000000E+00 0.  1.
         14    1    4    4    0    0  0.45612114733E+02  0.25838722023E+02  0.43709507241E+03  0.44022744905E+03  0.00000000000E+00 0. -1.
         -5    1    5    5    0  501  0.39162320174E+01 -0.95318007826E+01  0.38375636191E+01  0.11958636791E+02  0.47000000000E+01 0.  1.
         13    1    6    6    0    0 -0.44171135925E+02 -0.35638748115E+02  0.56784856317E+03  0.57067784284E+03  0.00000000000E+00 0. -1.
        -14    1    6    6    0    0 -0.91266904449E+02 -0.14667377749E+03  0.84655771741E+03  0.86400394313E+03  0.00000000000E+00 0.  1.
</event>
<event>
12    1  0.1348628E-002  0.1749925E+03  0.7818608E-02  0.1172739E+00
          1   -1    0    0  502    0  0.00000000000E+00  0.00000000000E+00  0.87505553544E+03  0.87505553544E+03  0.00000000000E+00 0.  1.
         -1   -1    0    0    0  501 -0.00000000000E+00 -0.00000000000E+00 -0.44805837147E+02  0.44805837147E+02  0.00000000000E+00 0. -1.
          6    2    1    2  502    0  0.24498839276E+02  0.23317857392E+01  0.20180549041E+03  0.26777972219E+03  0.17428394448E+03 0.  0.
         24    2    3    3    0    0  0.53865488668E+02 -0.15714104193E+02  0.57365140674E+02  0.11920933862E+03  0.88157150082E+02 0.  0.
         -6    2    1    2    0  501 -0.24498839276E+02 -0.23317857392E+01  0.62844420788E+03  0.65208165040E+03  0.17222870265E+03 0.  0.
        -24    2    5    5    0    0 -0.81059464876E+02  0.12858310408E+02  0.44446605693E+03  0.45894984717E+03  0.79680069447E+02 0.  0.
          5    1    3    3  502    0 -0.29366649392E+02  0.18045889932E+02  0.14444034974E+03  0.14857038356E+03  0.47000000000E+01 0. -1.
        -13    1    4    4    0    0  0.28444096559E+02  0.32545168538E+02  0.46696545440E+02  0.63630354237E+02  0.00000000000E+00 0.  1.
         14    1    4    4    0    0  0.25421392109E+02 -0.48259272731E+02  0.10668595234E+02  0.55578984387E+02  0.00000000000E+00 0. -1.
         -5    1    5    5    0  501  0.56560625599E+02 -0.15190096148E+02  0.18397815095E+03  0.19313180323E+03  0.47000000000E+01 0.  1.
         11    1    6    6    0    0 -0.71893932404E+02  0.41190557663E+02  0.28831805698E+03  0.29998783565E+03  0.00000000000E+00 0. -1.
        -12    1    6    6    0    0 -0.91655324716E+01 -0.28332247255E+02  0.15614799994E+03  0.15896201152E+03  0.00000000000E+00 0.  1.
</event>
<event>
12    1  0.1348628E-002  0.1867391E+03  0.7818608E-02  0.1161436E+00
          3   -1    0    0  502    0  0.00000000000E+00  0.00000000000E+00  0.51537909124E+02  0.51537909124E+02  0.00000000000E+00 0.  1.
         -3   -1    0    0    0  501 -0.00000000000E+00 -0.00000000000E+00 -0.70529981783E+03  0.70529981783E+03  0.00000000000E+00 0. -1.
          6    2    1    2  502    0 -0.42297987087E+01  0.63820236165E+02 -0.24418973731E+03  0.30498395692E+03  0.17115978625E+03 0.  0.
         24    2    3    3    0    0  0.38268818908E+02  0.10231457594E+03 -0.15989868898E+03  0.20292996375E+03  0.60664689060E+02 0.  0.
         -6    2    1    2    0  501  0.42297987087E+01 -0.63820236165E+02 -0.40957217140E+03  0.45185377004E+03  0.17980976662E+03 0.  0.
        -24    2    5    5    0    0 -0.71373618207E+01 -0.31264933926E+02 -0.40764271576E+03  0.41699874398E+03  0.81773655552E+02 0.  0.
          5    1    3    3  502    0 -0.42498617617E+02 -0.38494339773E+02 -0.84291048328E+02  0.10205399317E+03  0.47000000000E+01 0. -1.
        -11    1    4    4    0    0  0.51141762965E+02  0.67133064196E+02 -0.88432845545E+02  0.12224032231E+03  0.00000000000E+00 0.  1.
         12    1    4    4    0    0 -0.12872944057E+02  0.35181511742E+02 -0.71465843437E+02  0.80689641437E+02  0.00000000000E+00 0. -1.
         -5    1    5    5    0  501  0.11367160529E+02 -0.32555302239E+02 -0.19294556393E+01  0.34855026057E+02  0.47000000000E+01 0.  1.
         13    1    6    6    0    0  0.23049139531E+02  0.13697145768E+01 -0.29498363280E+03  0.29588592830E+03  0.00000000000E+00 0. -1.
        -14    1    6    6    0    0 -0.30186501352E+02 -0.32634648503E+02 -0.11265908296E+03  0.12111281567E+03  0.00000000000E+00 0.  1.
</event>
<event>
12    1  0.1348628E-002  0.2351831E+03  0.7818608E-02  0.1123044E+00
         -2   -1    0    0    0  501 -0.00000000000E+00  0.00000000000E+00  0.77489821687E+03  0.77489821687E+03  0.00000000000E+00 0. -1.
          2   -1    0    0  502    0  0.00000000000E+00 -0.00000000000E+00 -0.74521338754E+02  0.74521338754E+02  0.00000000000E+00 0.  1.
          6    2    1    2  502    0 -0.29529807864E+01 -0.15793512414E+03  0.43487533625E+03  0.49357587134E+03  0.17189636169E+03 0.  0.
         24    2    3    3    0    0  0.46534880673E+02 -0.59108674909E+02  0.29824277639E+03  0.31777410255E+03  0.79826662275E+02 0.  0.
         -6    2    1    2    0  501  0.29529807864E+01  0.15793512414E+03  0.26550154186E+03  0.35584368428E+03  0.17658265877E+03 0.  0.
        -24    2    5    5    0    0  0.68640983743E+02  0.11116222441E+03  0.16099296767E+03  0.22375753830E+03  0.84143184630E+02 0.  0.
          5    1    3    3  502    0 -0.49487861460E+02 -0.98826449227E+02  0.13663255986E+03  0.17580176880E+03  0.47000000000E+01 0. -1.
        -11    1    4    4    0    0 -0.16086768168E+02 -0.26659631963E+02  0.43817784586E+02  0.53754240135E+02  0.00000000000E+00 0.  1.
         12    1    4    4    0    0  0.62621648841E+02 -0.32449042946E+02  0.25442499181E+03  0.26401986241E+03  0.00000000000E+00 0. -1.
         -5    1    5    5    0  501 -0.65688002956E+02  0.46772899724E+02  0.10450857419E+03  0.13208614598E+03  0.47000000000E+01 0.  1.
         13    1    6    6    0    0  0.23253802920E+02  0.18302827255E+01 -0.73162923528E+00  0.23337192771E+02  0.00000000000E+00 0. -1.
        -14    1    6    6    0    0  0.45387180823E+02  0.10933194169E+03  0.16172459691E+03  0.20042034553E+03  0.00000000000E+00 0.  1.
</event>
<event>
12    1  0.1348628E-002  0.1802010E+03  0.7818608E-02  0.1167609E+00
          1   -1    0    0  502    0  0.00000000000E+00  0.00000000000E+00  0.62105649466E+03  0.62105649466E+03  0.00000000000E+00 0. -1.
         -1   -1    0    0    0  501 -0.00000000000E+00 -0.00000000000E+00 -0.52584180003E+02  0.52584180003E+02  0.00000000000E+00 0.  1.
          6    2    1    2  502    0  0.52076243364E+02  0.48497868371E+01  0.30998241458E+03  0.35867565740E+03  0.17269532219E+03 0.  0.
         24    2    3    3    0    0 -0.34492855360E+02  0.29810311720E+02  0.14460373118E+03  0.17028925773E+03  0.77522773893E+02 0.  0.
         -6    2    1    2    0  501 -0.52076243364E+02 -0.48497868371E+01  0.25848990008E+03  0.31496501727E+03  0.17219314186E+03 0.  0.
        -24    2    5    5    0    0 -0.16852452708E+02  0.41625920401E+02  0.63761325097E+02  0.11163765879E+03  0.79879520967E+02 0.  0.
          5    1    3    3  502    0  0.86569098724E+02 -0.24960524882E+02  0.16537868340E+03  0.18838639966E+03  0.47000000000E+01 0. -1.
        -11    1    4    4    0    0 -0.13026609650E+01 -0.20817934885E+02  0.75925952537E+02  0.78739022137E+02  0.00000000000E+00 0.  1.
         12    1    4    4    0    0 -0.33190194395E+02  0.50628246605E+02  0.68677778646E+02  0.91550235598E+02  0.00000000000E+00 0. -1.
         -5    1    5    5    0  501 -0.35223790655E+02 -0.46475707238E+02  0.19472857498E+03  0.20332735848E+03  0.47000000000E+01 0.  1.
         13    1    6    6    0    0  0.12069522397E+02 -0.11548888871E+02  0.45410896667E+02  0.48385945699E+02  0.00000000000E+00 0. -1.
        -14    1    6    6    0    0 -0.28921975105E+02  0.53174809272E+02  0.18350428430E+02  0.63251713089E+02  0.00000000000E+00 0.  1.
</event>
<event>
12    1  0.1348628E-002  0.1940864E+03  0.7818608E-02  0.1154826E+00
          1   -1    0    0  502    0  0.00000000000E+00  0.00000000000E+00  0.19892631672E+03  0.19892631672E+03  0.00000000000E+00 0.  1.
         -1   -1    0    0    0  501 -0.00000000000E+00 -0.00000000000E+00 -0.19349401125E+03  0.19349401125E+03  0.00000000000E+00 0. -1.
          6    2    1    2  502    0 -0.62411805459E+02  0.62217909713E+02  0.31383576368E+02  0.19685259753E+03  0.17320425670E+03 0.  0.
         24    2    3    3    0    0 -0.41484284766E+02  0.40282997999E+02  0.86111124121E+02  0.13411269031E+03  0.85014247014E+02 0.  0.
         -6    2    1    2    0  501  0.62411805459E+02 -0.62217909713E+02 -0.25951270897E+02  0.19556773043E+03  0.17264694314E+03 0.  0.
        -24    2    5    5    0    0  0.33458465091E+02 -0.52534109398E+01  0.46732292918E+02  0.98674797318E+02  0.80035874529E+02 0.  0.
          5    1    3    3  502    0 -0.20927520692E+02  0.21934911714E+02 -0.54727547754E+02  0.62739907215E+02  0.47000000000E+01 0. -1.
        -11    1    4    4    0    0 -0.45948694871E+02  0.56995130087E+02  0.36968784148E+02  0.82014745110E+02  0.00000000000E+00 0.  1.
         12    1    4    4    0    0  0.44644101042E+01 -0.16712132088E+02  0.49142339973E+02  0.52097945204E+02  0.00000000000E+00 0. -1.
         -5    1    5    5    0  501  0.28953340368E+02 -0.56964498774E+02 -0.72683563815E+02  0.96892933116E+02  0.47000000000E+01 0.  1.
         11    1    6    6    0    0  0.20148009756E+02 -0.33835630371E+02 -0.33197292959E+01  0.39519777103E+02  0.00000000000E+00 0. -1.
        -12    1    6    6    0    0  0.13310455335E+02  0.28582219431E+02  0.50052022214E+02  0.59155020214E+02  0.00000000000E+00 0.  1.
</event>
<event>
12    1  0.1348628E-002  0.1736251E+03  0.7818608E-02  0.1174119E+00
         -2   -1    0    0    0  501 -0.00000000000E+00  0.00000000000E+00  0.56568693497E+03  0.56568693497E+03  0.00000000000E+00 0.  1.
          2   -1    0    0  502    0  0.00000000000E+00 -0.00000000000E+00 -0.65018613397E+02  0.65018613397E+02  0.00000000000E+00 0. -1.
          6    2    1    2  502    0  0.19846657002E+02  0.20463901286E+01  0.11653612463E+03  0.20920462217E+03  0.17259150642E+03 0.  0.
         24    2    3    3    0    0  0.16805925384E+02 -0.49450025646E+01  0.15176952095E+03  0.17285069753E+03  0.80848524838E+02 0.  0.
         -6    2    1    2    0  501 -0.19846657002E+02 -0.20463901286E+01  0.38413219695E+03  0.42150092620E+03  0.17235837242E+03 0.  0.
        -24    2    5    5    0    0  0.53557055953E+02  0.15834292901E+02  0.16831434333E+03  0.19279312169E+03  0.75633236915E+02 0.  0.
          5    1    3    3  502    0  0.30407316187E+01  0.69913926931E+01 -0.35233396324E+02  0.36353924645E+02  0.47000000000E+01 0. -1.
        -11    1    4    4    0    0  0.40138691194E+02 -0.28633319524E+02  0.96012112673E+02  0.10793195679E+03  0.00000000000E+00 0.  1.
         12    1    4    4    0    0 -0.23332765810E+02  0.23688316959E+02  0.55757408277E+02  0.64918740734E+02  0.00000000000E+00 0. -1.
         -5    1    5    5    0  501 -0.73403712955E+02 -0.17880683030E+02  0.21581785362E+03  0.22870780451E+03  0.47000000000E+01 0.  1.
         13    1    6    6    0    0 -0.12182775521E+02 -0.11623198532E+02  0.11039027248E+02  0.20134023097E+02  0.00000000000E+00 0. -1.
        -14    1    6    6    0    0  0.65739831474E+02  0.27457491433E+02  0.15727531608E+03  0.17265909859E+03  0.00000000000E+00 0.  1.
</event>
<event>
12    1  0.1348628E-002  0.2267142E+03  0.7818608E-02  0.1128974E+00
         -2   -1    0    0    0  501 -0.00000000000E+00  0.00000000000E+00  0.30055478353E+02  0.30055478353E+02  0.00000000000E+00 0. -1.
          2   -1    0    0  502    0  0.00000000000E+00 -0.00000000000E+00 -0.17714372788E+04  0.17714372788E+04  0.00000000000E+00 0.  1.
          6    2    1    2  502    0  0.13726018278E+03 -0.54072224549E+02 -0.10376812633E+04  0.10621271547E+04  0.17195210131E+03 0.  0.
         24    2    3    3    0    0  0.13111137066E+03 -0.27489886138E+02 -0.10132719766E+04  0.10252173743E+04  0.80029249160E+02 0.  0.
         -6    2    1    2    0  501 -0.13726018278E+03  0.54072224549E+02 -0.70370053714E+03  0.73936560252E+03  0.17234524935E+03 0.  0.
        -24    2    5    5    0    0 -0.10629749928E+03  0.27810438051E+01 -0.63218490061E+03  0.64595227767E+03  0.79307653518E+02 0.  0.
          5    1    3    3  502    0  0.61488121267E+01 -0.26582338411E+02 -0.24409286786E+02  0.36909780375E+02  0.47000000000E+01 0. -1.
        -13    1    4    4    0    0  0.75299670752E+02 -0.43711751729E+02 -0.40946799779E+03  0.41862250162E+03  0.00000000000E+00 0.  1.
         14    1    4    4    0    0  0.55811699906E+02  0.16221865590E+02 -0.60380397877E+03  0.60659487266E+03  0.00000000000E+00 0. -1.
         -5    1    5    5    0  501 -0.30962683503E+02  0.51291180744E+02 -0.71515636527E+02  0.93413324851E+02  0.47000000000E+01 0.  1.
         11    1    6    6    0    0 -0.97901808471E+02  0.22828609057E+02 -0.38834159731E+03  0.40114225120E+03  0.00000000000E+00 0. -1.
        -12    1    6    6    0    0 -0.83956908104E+01 -0.20047565252E+02 -0.24384330330E+03  0.24481002647E+03  0.00000000000E+00 0.  1.
</event>
<event>
12    1  0.1348628E-002  0.2003798E+03  0.7818608E-02  0.1149419E+00
         -1   -1    0    0    0  501 -0.00000000000E+00  0.00000000000E+00  0.23776479337E+02  0.23776479337E+02  0.00000000000E+00 0.  1.
          1   -1    0    0  502    0  0.00000000000E+00 -0.00000000000E+00 -0.20508441596E+04  0.20508441596E+04  0.00000000000E+00 0. -1.
          6    2    1    2  502    0  0.95769988008E+02  0.20988318399E+02 -0.14427699962E+04  0.14564032230E+04  0.17295284347E+03 0.  0.
         24    2    3    3    0    0 -0.98710856721E+01  0.16536393793E+02 -0.38267396817E+03  0.39103683784E+03  0.78099628585E+02 0.  0.
         -6    2    1    2    0  501 -0.95769988008E+02 -0.20988318399E+02 -0.58429768404E+03  0.61821741586E+03  0.17656893722E+03 0.  0.
        -24    2    5    5    0    0 -0.10516662378E+02  0.45196533048E+02 -0.22805308699E+03  0.24595290370E+03  0.79569426060E+02 0.  0.
          5    1    3    3  502    0  0.10564107368E+03  0.44519246057E+01 -0.10600960280E+04  0.10653663852E+04  0.47000000000E+01 0. -1.
        -13    1    4    4    0    0 -0.18908803578E+02 -0.19376112580E+02 -0.55264837523E+02  0.61540058969E+02  0.00000000000E+00 0.  1.
         14    1    4    4    0    0  0.90377179058E+01  0.35912506373E+02 -0.32740913064E+03  0.32949677887E+03  0.00000000000E+00 0. -1.
         -5    1    5    5    0  501 -0.85253325630E+02 -0.66184851447E+02 -0.35624459704E+03  0.37226451216E+03  0.47000000000E+01 0.  1.
         13    1    6    6    0    0 -0.34035016692E+02 -0.67351898580E+01 -0.97744438913E+02  0.10371943155E+03  0.00000000000E+00 0. -1.
        -14    1    6    6    0    0  0.23518354314E+02  0.51931722906E+02 -0.13030864808E+03  0.14223347214E+03  0.00000000000E+00 0.  1.
</event>
<event>
12    1  0.1348628E-002  0.1923840E+03  0.7818608E-02  0.1156329E+00
         -2   -1    0    0    0  501 -0.00000000000E+00  0.00000000000E+00  0.23290550808E+03  0.23290550808E+03  0.00000000000E+00 0. -1.
          2   -1    0    0  502    0  0.00000000000E+00 -0.00000000000E+00 -0.17427543509E+03  0.17427543509E+03  0.00000000000E+00 0.  1.
          6    2    1    2  502    0  0.36072618302E+02 -0.78930934678E+02  0.89895930605E+02  0.21328890562E+03  0.17285702959E+03 0.  0.
         24    2    3    3    0    0  0.64239412856E+01 -0.69989577112E+02  0.12631185496E+03  0.16525556854E+03  0.80093135173E+02 0.  0.
         -6    2    1    2    0  501 -0.36072618302E+02  0.78930934678E+02 -0.31265857615E+02  0.19389203756E+03  0.17054395954E+03 0.  0.
        -24    2    5    5    0    0  0.18994847885E+02 -0.99587464234E+01  0.71256486907E+01  0.82403029156E+02  0.79243318131E+02 0.  0.
          5    1    3    3  502    0  0.29648677016E+02 -0.89413575655E+01 -0.36415924360E+02  0.48033337079E+02  0.47000000000E+01 0.  1.
        -13    1    4    4    0    0  0.13083197646E+02  0.39665661280E+01 -0.48723496576E+01  0.14513562577E+02  0.00000000000E+00 0.  1.
         14    1    4    4    0    0 -0.66592563608E+01 -0.73956143240E+02  0.13118420462E+03  0.15074200596E+03  0.00000000000E+00 0. -1.
         -5    1    5    5    0  501 -0.55067466187E+02  0.88889681101E+02 -0.38391506306E+02  0.11148900840E+03  0.47000000000E+01 0.  1.
         13    1    6    6    0    0  0.67141588569E+01 -0.84365412740E+01 -0.35977640686E+02  0.37558564764E+02  0.00000000000E+00 0. -1.
        -14    1    6    6    0    0  0.12280689028E+02 -0.15222051494E+01  0.43103289377E+02  0.44844464392E+02  0.00000000000E+00 0.  1.
</event>
<event>
12    1  0.1348628E-002  0.1635777E+03  0.7818608E-02  0.1184716E+00
         -2   -1    0    0    0  501 -0.00000000000E+00  0.00000000000E+00  0.20477123057E+02  0.20477123057E+02  0.00000000000E+00 0. -1.
          2   -1    0    0  502    0  0.00000000000E+00 -0.00000000000E+00 -0.13604281996E+04  0.13604281996E+04  0.00000000000E+00 0.  1.
          6    2    1    2  502    0  0.28567683148E+02  0.90163078344E+01 -0.50775217830E+03  0.53132769261E+03  0.15362107941E+03 0.  0.
         24    2    3    3    0    0  0.33705104123E+02  0.34434128159E+02 -0.18014548790E+03  0.20266267731E+03  0.79360070185E+02 0.  0.
         -6    2    1    2    0  501 -0.28567683148E+02 -0.90163078344E+01 -0.83219889821E+03  0.84957763001E+03  0.16831439899E+03 0.  0.
        -24    2    5    5    0    0  0.40085572742E+02 -0.81652594227E+01 -0.61060215055E+03  0.61754055884E+03  0.82751622007E+02 0.  0.
          5    1    3    3  502    0 -0.51374209742E+01 -0.25417820325E+02 -0.32760669040E+03  0.32866501529E+03  0.47000000000E+01 0. -1.
        -11    1    4    4    0    0 -0.14326867767E+02  0.22505104570E+02 -0.12807702389E+03  0.13082607890E+03  0.00000000000E+00 0.  1.
         12    1    4    4    0    0  0.48031971889E+02  0.11929023589E+02 -0.52068464005E+02  0.71836598411E+02  0.00000000000E+00 0. -1.
         -5    1    5    5    0  501 -0.68653255890E+02 -0.85104841175E+00 -0.22159674766E+03  0.23203707118E+03  0.47000000000E+01 0.  1.
         11    1    6    6    0    0  0.17088534040E+02 -0.12359376323E+02 -0.31153921556E+02  0.37620991574E+02  0.00000000000E+00 0. -1.
        -12    1    6    6    0    0  0.22997038702E+02  0.41941169008E+01 -0.57944822900E+03  0.57991956726E+03  0.00000000000E+00 0.  1.
</event>
<event>
12    1  0.1348628E-002  0.2004339E+03  0.7818608E-02  0.1149373E+00
         -2   -1    0    0    0  501 -0.00000000000E+00  0.00000000000E+00  0.24776166617E+03  0.24776166617E+03  0.00000000000E+00 0. -1.
          2   -1    0    0  502    0  0.00000000000E+00 -0.00000000000E+00 -0.35833959162E+03  0.35833959162E+03  0.00000000000E+00 0.  1.
          6    2    1    2  502    0 -0.75401778802E+01  0.10300074923E+03 -0.27952728469E+03  0.34396213455E+03  0.17178020403E+03 0.  0.
         24    2    3    3    0    0  0.51758825701E+02  0.27668214717E+02 -0.12382305086E+03  0.16104887365E+03  0.84617289226E+02 0.  0.
         -6    2    1    2    0  501  0.75401778802E+01 -0.10300074923E+03  0.16894935924E+03  0.26213912324E+03  0.17177609066E+03 0.  0.
        -24    2    5    5    0    0  0.53040906663E+02 -0.85444398436E+02  0.17083698772E+03  0.21310653291E+03  0.78198689192E+02 0.  0.
          5    1    3    3  502    0 -0.59299003581E+02  0.75332534512E+02 -0.15570423382E+03  0.18291326090E+03  0.47000000000E+01 0. -1.
        -13    1    4    4    0    0 -0.59156615092E+01  0.39672117502E+02 -0.72780439782E+02  0.83101530510E+02  0.00000000000E+00 0.  1.
         14    1    4    4    0    0  0.57674487210E+02 -0.12003902785E+02 -0.51042611081E+02  0.77947343143E+02  0.00000000000E+00 0. -1.
         -5    1    5    5    0  501 -0.45500728783E+02 -0.17556350792E+02 -0.18876284842E+01  0.49032590327E+02  0.47000000000E+01 0.  1.
         13    1    6    6    0    0  0.62406135464E+02 -0.95181065307E+02  0.15479140923E+03  0.19213105243E+03  0.00000000000E+00 0. -1.
        -14    1    6    6    0    0 -0.93652288008E+01  0.97366668703E+01  0.16045578494E+02  0.20975480482E+02  0.00000000000E+00 0.  1.
</event>
<event>
12    1  0.1348628E-002  0.2368100E+03  0.7818608E-02  0.1121936E+00
          2   -1    0    0  502    0  0.00000000000E+00  0.00000000000E+00  0.11480242608E+03  0.11480242608E+03  0.00000000000E+00 0.  1.
         -2   -1    0    0    0  501 -0.00000000000E+00 -0.00000000000E+00 -0.57768406241E+03  0.57768406241E+03  0.00000000000E+00 0. -1.
          6    2    1    2  502    0 -0.11861022031E+03 -0.11137946084E+03 -0.36719010071E+03  0.43672848917E+03  0.17155009336E+03 0.  0.
         24    2    3    3    0    0  0.72273816337E+00 -0.67594858291E+02 -0.20608610144E+03  0.23146272247E+03  0.80832688112E+02 0.  0.
         -6    2    1    2    0  501  0.11861022031E+03  0.11137946084E+03 -0.95691535613E+02  0.25575799932E+03  0.17257321800E+03 0.  0.
        -24    2    5    5    0    0  0.42236057324E+02 -0.12318623957E+02 -0.21337850405E+02  0.92403203069E+02  0.78405452891E+02 0.  0.
          5    1    3    3  502    0 -0.11933295847E+03 -0.43784602553E+02 -0.16110399927E+03  0.20526576670E+03  0.47000000000E+01 0. -1.
        -13    1    4    4    0    0 -0.80979933359E+01 -0.80195298985E+01  0.46356857291E+01  0.12303655475E+02  0.00000000000E+00 0.  1.
         14    1    4    4    0    0  0.88207314993E+01 -0.59575328392E+02 -0.21072178717E+03  0.21915906699E+03  0.00000000000E+00 0. -1.
         -5    1    5    5    0  501  0.76374162983E+02  0.12369808480E+03 -0.74353685208E+02  0.16335479625E+03  0.47000000000E+01 0.  1.
         13    1    6    6    0    0  0.38871043482E+02  0.10828924702E+02 -0.44093179118E+02  0.59769825801E+02  0.00000000000E+00 0. -1.
        -14    1    6    6    0    0  0.33650138418E+01 -0.23147548660E+02  0.22755328713E+02  0.32633377268E+02  0.00000000000E+00 0.  1.
</event>
<event>
12    1  0.1348628E-002  0.2241846E+03  0.7818608E-02  0.1130801E+00
          2   -1    0    0  502    0  0.00000000000E+00  0.00000000000E+00  0.40658719758E+03  0.40658719758E+03  0.00000000000E+00 0. -1.
         -2   -1    0    0    0  501 -0.00000000000E+00 -0.00000000000E+00 -0.12373676162E+03  0.12373676162E+03  0.00000000000E+00 0.  1.
          6    2    1    2  502    0  0.73140423605E+02  0.12372726628E+03  0.13281779840E+03  0.26034689173E+03  0.17170316968E+03 0.  0.
         24    2    3    3    0    0  0.95386648762E+02  0.13520360430E+03  0.74793251137E+02  0.19697861140E+03  0.76340785661E+02 0.  0.
         -6    2    1    2    0  501 -0.73140423605E+02 -0.12372726628E+03  0.15003263756E+03  0.26997706748E+03  0.17239450873E+03 0.  0.
        -24    2    5    5    0    0 -0.11171413665E+03 -0.11175288721E+03  0.14262365349E+03  0.22864547983E+03  0.83477498663E+02 0.  0.
          5    1    3    3  502    0 -0.22246225157E+02 -0.11476338018E+02  0.58024547259E+02  0.63368280335E+02  0.47000000000E+01 0. -1.
        -13    1    4    4    0    0  0.40716069027E+02  0.96018050787E+02  0.12038612303E+02  0.10498663029E+03  0.00000000000E+00 0.  1.
         14    1    4    4    0    0  0.54670579735E+02  0.39185553512E+02  0.62754638834E+02  0.91991981106E+02  0.00000000000E+00 0. -1.
         -5    1    5    5    0  501  0.38573713047E+02 -0.11974379070E+02  0.74089840711E+01  0.41331587646E+02  0.47000000000E+01 0.  1.
         13    1    6    6    0    0 -0.93523752145E+01 -0.38196649320E+02  0.77176901858E+02  0.86618272447E+02  0.00000000000E+00 0. -1.
        -14    1    6    6    0    0 -0.10236176144E+03 -0.73556237891E+02  0.65446751636E+02  0.14202720738E+03  0.00000000000E+00 0.  1.
</event>
<event>
12    1  0.1348628E-002  0.2244771E+03  0.7818608E-02  0.1130589E+00
         -1   -1    0    0    0  501 -0.00000000000E+00  0.00000000000E+00  0.15783824063E+03  0.15783824063E+03  0.00000000000E+00 0.  1.
          1   -1    0    0  502    0  0.00000000000E+00 -0.00000000000E+00 -0.32016076154E+03  0.32016076154E+03  0.00000000000E+00 0. -1.
          6    2    1    2  502    0  0.14190172279E+03  0.11806501313E+02 -0.68060329632E+02  0.23345908013E+03  0.17203325614E+03 0.  0.
         24    2    3    3    0    0  0.38605357574E+02 -0.50270719386E+02 -0.38774690228E+02  0.10934840745E+03  0.80225175277E+02 0.  0.
         -6    2    1    2    0  501 -0.14190172279E+03 -0.11806501313E+02 -0.94262191280E+02  0.24453992204E+03  0.17503976795E+03 0.  0.
        -24    2    5    5    0    0 -0.11277265978E+03 -0.67984855111E+02 -0.95503682155E+02  0.18107228425E+03  0.79539961655E+02 0.  0.
          5    1    3    3  502    0  0.10329636522E+03  0.62077220699E+02 -0.29285639404E+02  0.12411067268E+03  0.47000000000E+01 0. -1.
        -11    1    4    4    0    0  0.41554850659E+02  0.85882802688E+00  0.51448859603E+01  0.41880938987E+02  0.00000000000E+00 0.  1.
         12    1    4    4    0    0 -0.29494930847E+01 -0.51129547413E+02 -0.43919576188E+02  0.67467468462E+02  0.00000000000E+00 0. -1.
         -5    1    5    5    0  501 -0.29129063020E+02  0.56178353798E+02  0.12414908754E+01  0.63467637797E+02  0.47000000000E+01 0.  1.
         11    1    6    6    0    0 -0.79263581429E+02 -0.80192200271E+02 -0.50223001606E+02  0.12343360246E+03  0.00000000000E+00 0. -1.
        -12    1    6    6    0    0 -0.33509078346E+02  0.12207345160E+02 -0.45280680549E+02  0.57638681790E+02  0.00000000000E+00 0.  1.
</event>
<event>
12    1  0.1348628E-002  0.2132295E+03  0.7818608E-02  0.1139034E+00
         -2   -1    0    0    0  501 -0.00000000000E+00  0.00000000000E+00  0.35104660581E+02  0.35104660581E+02  0.00000000000E+00 0. -1.
          2   -1    0    0  502    0  0.00000000000E+00 -0.00000000000E+00 -0.14521660506E+04  0.14521660506E+04  0.00000000000E+00 0.  1.
          6    2    1    2  502    0 -0.80387638353E+02 -0.93247723325E+02 -0.95149431444E+03  0.97498114852E+03  0.17346325047E+03 0.  0.
         24    2    3    3    0    0 -0.74220225574E+02 -0.42480482609E+02 -0.87598493540E+03  0.88366244270E+03  0.78717674688E+02 0.  0.
         -6    2    1    2    0  501  0.80387638353E+02  0.93247723325E+02 -0.46556707563E+03  0.51228956271E+03  0.17473003131E+03 0.  0.
        -24    2    5    5    0    0  0.29491105061E+02  0.10004383845E+03 -0.43031254928E+03  0.44982664643E+03  0.79351287815E+02 0.  0.
          5    1    3    3  502    0 -0.61674127782E+01 -0.50767240716E+02 -0.75509379038E+02  0.91318705823E+02  0.47000000000E+01 0. -1.
        -11    1    4    4    0    0 -0.76231620173E+02 -0.57291337697E+02 -0.62501577045E+03  0.63224858292E+03  0.00000000000E+00 0.  1.
         12    1    4    4    0    0  0.20113945981E+01  0.14810855088E+02 -0.25096916495E+03  0.25141385978E+03  0.00000000000E+00 0. -1.
         -5    1    5    5    0  501  0.50896533291E+02 -0.67961151251E+01 -0.35254526350E+02  0.62462916279E+02  0.47000000000E+01 0.  1.
         11    1    6    6    0    0  0.80607987516E+00  0.22948551794E+02 -0.17427458414E+02  0.28827107052E+02  0.00000000000E+00 0. -1.
        -12    1    6    6    0    0  0.28685025186E+02  0.77095286657E+02 -0.41288509087E+03  0.42099953938E+03  0.00000000000E+00 0.  1.
</event>
<event>
12    1  0.1348628E-002  0.1779496E+03  0.7818608E-02  0.1169802E+00
          2   -1    0    0  502    0  0.00000000000E+00  0.00000000000E+00  0.57430662666E+03  0.57430662666E+03  0.00000000000E+00 0. -1.
         -2   -1    0    0    0  501 -0.00000000000E+00 -0.00000000000E+00 -0.13622159636E+03  0.13622159636E+03  0.00000000000E+00 0.  1.
          6    2    1    2  502    0  0.16751559326E+02 -0.34499321229E+02 -0.54861608560E+02  0.18657255656E+03  0.17415138490E+03 0.  0.
         24    2    3    3    0    0 -0.46735776246E+02 -0.29728434248E+02 -0.74287460312E+02  0.11984282663E+03  0.75997787796E+02 0.  0.
         -6    2    1    2    0  501 -0.16751559326E+02  0.34499321229E+02  0.49294663886E+03  0.52395566646E+03  0.17338492941E+03 0.  0.
        -24    2    5    5    0    0 -0.68666755110E+02 -0.13500299817E+02  0.26678653110E+03  0.28695432571E+03  0.79185544866E+02 0.  0.
          5    1    3    3  502    0  0.63487335572E+02 -0.47708869815E+01  0.19425851753E+02  0.66729729933E+02  0.47000000000E+01 0. -1.
        -13    1    4    4    0    0 -0.62285442089E+02 -0.41783501960E+01 -0.39093958786E+02  0.73656449278E+02  0.00000000000E+00 0.  1.
         14    1    4    4    0    0  0.15549665843E+02 -0.25550084052E+02 -0.35193501526E+02  0.46186377348E+02  0.00000000000E+00 0. -1.
         -5    1    5    5    0  501  0.51915195785E+02  0.47999621047E+02  0.22616010776E+03  0.23700134075E+03  0.47000000000E+01 0.  1.
         11    1    6    6    0    0 -0.73983616788E+02  0.12357338842E+02  0.22812206640E+03  0.24013737018E+03  0.00000000000E+00 0. -1.
        -12    1    6    6    0    0  0.53168616773E+01 -0.25857638659E+02  0.38664464699E+02  0.46816955535E+02  0.00000000000E+00 0.  1.
</event>
<event>
12    1  0.1348628E-002  0.1937745E+03  0.7818608E-02  0.1155100E+00
         -4   -1    0    0    0  501 -0.00000000000E+00  0.00000000000E+00  0.76029294835E+03  0.76029294835E+03  0.00000000000E+00 0. -1.
          4   -1    0    0  502    0  0.00000000000E+00 -0.00000000000E+00 -0.81118665612E+02  0.81118665612E+02  0.00000000000E+00 0.  1.
          6    2    1    2  502    0  0.53121369613E+02  0.64685644684E+02  0.79598950320E+02  0.21217508341E+03  0.17797797783E+03 0.  0.
         24    2    3    3    0    0  0.53029769069E+02 -0.30713273542E+02  0.37158404624E+02  0.10765593728E+03  0.80334253081E+02 0.  0.
         -6    2    1    2    0  501 -0.53121369613E+02 -0.64685644684E+02  0.59957533241E+03  0.62923653054E+03  0.17158647848E+03 0.  0.
        -24    2    5    5    0    0 -0.35080782528E+02 -0.66432952248E+02  0.19179946851E+03  0.22103099280E+03  0.80147771078E+02 0.  0.
          5    1    3    3  502    0  0.91600543261E-01  0.95398918226E+02  0.42440545696E+02  0.10451914613E+03  0.47000000000E+01 0. -1.
        -11    1    4    4    0    0 -0.42086036772E+01  0.17070761450E+02  0.27261858206E+02  0.32439669453E+02  0.00000000000E+00 0.  1.
         12    1    4    4    0    0  0.57238372746E+02 -0.47784034991E+02  0.98965464180E+01  0.75216267826E+02  0.00000000000E+00 0. -1.
         -5    1    5    5    0  501 -0.18040587084E+02  0.17473075635E+01  0.40777586390E+03  0.40820553775E+03  0.47000000000E+01 0.  1.
         11    1    6    6    0    0  0.14306487756E+02  0.10728304866E+02  0.25138168262E+02  0.30849629184E+02  0.00000000000E+00 0. -1.
        -12    1    6    6    0    0 -0.49387270284E+02 -0.77161257114E+02  0.16666130025E+03  0.19018136361E+03  0.00000000000E+00 0.  1.
</event>
<event>
12    1  0.1348628E-002  0.1820177E+03  0.7818608E-02  0.1165864E+00
         -2   -1    0    0    0  501 -0.00000000000E+00  0.00000000000E+00  0.69631197726E+02  0.69631197726E+02  0.00000000000E+00 0.  1.
          2   -1    0    0  502    0  0.00000000000E+00 -0.00000000000E+00 -0.48068637607E+03  0.48068637607E+03  0.00000000000E+00 0. -1.
          6    2    1    2  502    0 -0.96132053311E+01  0.56295626508E+02 -0.17684626371E+03  0.25316357230E+03  0.17191736989E+03 0.  0.
         24    2    3    3    0    0 -0.59722905593E+02  0.75282492493E+02 -0.14036506051E+03  0.18816779299E+03  0.80439349703E+02 0.  0.
         -6    2    1    2    0  501  0.96132053311E+01 -0.56295626508E+02 -0.23420891463E+03  0.29715400149E+03  0.17373852086E+03 0.  0.
        -24    2    5    5    0    0  0.61940040972E+02 -0.73448911453E+02 -0.18455047469E+03  0.22285471771E+03  0.79837561524E+02 0.  0.
          5    1    3    3  502    0  0.50109700262E+02 -0.18986865986E+02 -0.36481203202E+02  0.64995779305E+02  0.47000000000E+01 0. -1.
        -13    1    4    4    0    0  0.14826898691E+02  0.39384227700E+02 -0.55389209753E+02  0.69562338038E+02  0.00000000000E+00 0.  1.
         14    1    4    4    0    0 -0.74549804284E+02  0.35898264794E+02 -0.84975850753E+02  0.11860545496E+03  0.00000000000E+00 0. -1.
         -5    1    5    5    0  501 -0.52326835641E+02  0.17153284945E+02 -0.49658439948E+02  0.74299283783E+02  0.47000000000E+01 0.  1.
         13    1    6    6    0    0  0.56977915580E+02 -0.16496870477E+02 -0.53510363644E+02  0.79887349540E+02  0.00000000000E+00 0. -1.
        -14    1    6    6    0    0  0.49621253929E+01 -0.56952040976E+02 -0.13104011104E+03  0.14296736817E+03  0.00000000000E+00 0.  1.
</event>
<event>
12    1  0.1348628E-002  0.2238035E+03  0.7818608E-02  0.1131079E+00
          2   -1    0    0  502    0  0.00000000000E+00  0.00000000000E+00  0.21641318343E+04  0.21641318343E+04  0.00000000000E+00 0. -1.
         -2   -1    0    0    0  501 -0.00000000000E+00 -0.00000000000E+00 -0.24016916286E+02  0.24016916286E+02  0.00000000000E+00 0.  1.
          6    2    1    2  502    0 -0.12759027381E+03  0.59488829944E+02  0.12692391887E+04  0.12884796078E+04  0.17144498468E+03 0.  0.
         24    2    3    3    0    0 -0.21311115347E+01  0.11352344534E+02  0.66614612550E+03  0.67057957099E+03  0.76110992334E+02 0.  0.
         -6    2    1    2    0  501  0.12759027381E+03 -0.59488829944E+02  0.87087572934E+03  0.89966914279E+03  0.17652714149E+03 0.  0.
        -24    2    5    5    0    0 -0.66206688414E+01 -0.37541329463E+02  0.37784605740E+03  0.38820593071E+03  0.80517183688E+02 0.  0.
          5    1    3    3  502    0 -0.12545916228E+03  0.48136485409E+02  0.60309306319E+03  0.61790003682E+03  0.47000000000E+01 0. -1.
        -13    1    4    4    0    0 -0.12846574685E+02  0.11328074743E+02  0.31602559093E+02  0.35945535185E+02  0.00000000000E+00 0.  1.
         14    1    4    4    0    0  0.10715463150E+02  0.24269791245E-01  0.63454356640E+03  0.63463403581E+03  0.00000000000E+00 0. -1.
         -5    1    5    5    0  501  0.13421094265E+03 -0.21947500481E+02  0.49302967193E+03  0.51146321208E+03  0.47000000000E+01 0.  1.
         11    1    6    6    0    0 -0.40668686816E+02 -0.24774137974E+02  0.14720353381E+03  0.15471451246E+03  0.00000000000E+00 0. -1.
        -12    1    6    6    0    0  0.34048017975E+02 -0.12767191489E+02  0.23064252359E+03  0.23349141824E+03  0.00000000000E+00 0.  1.
</event>
<event>
12    1  0.1348628E-002  0.2302435E+03  0.7818608E-02  0.1126468E+00
          2   -1    0    0  502    0  0.00000000000E+00  0.00000000000E+00  0.12603340967E+04  0.12603340967E+04  0.00000000000E+00 0.  1.
         -2   -1    0    0    0  501 -0.00000000000E+00 -0.00000000000E+00 -0.42588018687E+02  0.42588018687E+02  0.00000000000E+00 0. -1.
          6    2    1    2  502    0  0.52727633714E+02  0.14514068330E+03  0.53681505823E+03  0.58416068251E+03  0.17095986356E+03 0.  0.
         24    2    3    3    0    0  0.44927047587E+01  0.16655516094E+02  0.13284905122E+03  0.15749257803E+03  0.82809728371E+02 0.  0.
         -6    2    1    2    0  501 -0.52727633714E+02 -0.14514068330E+03  0.68093101974E+03  0.71876143283E+03  0.17060164821E+03 0.  0.
        -24    2    5    5    0    0 -0.52448141474E+02 -0.47567825071E+02  0.22238594468E+03  0.24992647611E+03  0.89410455450E+02 0.  0.
          5    1    3    3  502    0  0.48234928955E+02  0.12848516721E+03  0.40396600701E+03  0.42666810448E+03  0.47000000000E+01 0. -1.
        -13    1    4    4    0    0  0.19227086640E+02 -0.18317649629E+02  0.11007560269E+03  0.11323363218E+03  0.00000000000E+00 0.  1.
         14    1    4    4    0    0 -0.14734381881E+02  0.34973165723E+02  0.22773448526E+02  0.44258945851E+02  0.00000000000E+00 0. -1.
         -5    1    5    5    0  501 -0.27949224029E+00 -0.97572858229E+02  0.45854507506E+03  0.46883495672E+03  0.47000000000E+01 0.  1.
         11    1    6    6    0    0  0.61343664309E+01 -0.51383948942E+02  0.13569719306E+03  0.14522971068E+03  0.00000000000E+00 0. -1.
        -12    1    6    6    0    0 -0.58582507905E+02  0.38161238703E+01  0.86688751617E+02  0.10469676543E+03  0.00000000000E+00 0.  1.
</event>
<event>
12    1  0.1348628E-002  0.1753525E+03  0.7818608E-02  0.1172378E+00
         -1   -1    0    0    0  501 -0.00000000000E+00  0.00000000000E+00  0.31552673246E+02  0.31552673246E+02  0.00000000000E+00 0.  1.
          1   -1    0    0  502    0  0.00000000000E+00 -0.00000000000E+00 -0.12347080885E+04  0.12347080885E+04  0.00000000000E+00 0. -1.
          6    2    1    2  502    0 -0.13158689750E+02  0.31737015028E+01 -0.31498585654E+03  0.36123070791E+03  0.17631877671E+03 0.  0.
         24    2    3    3    0    0  0.79454014665E+01  0.78307334573E+01 -0.44398482694E+02  0.89740952125E+02  0.77186549553E+02 0.  0.
         -6    2    1    2    0  501  0.13158689750E+02 -0.31737015028E+01 -0.88816955876E+03  0.90503005388E+03  0.17335227088E+03 0.  0.
        -24    2    5    5    0    0 -0.34023820404E+02 -0.62848959268E+02 -0.44267688278E+03  0.45306419233E+03  0.64782156407E+02 0.  0.
          5    1    3    3  502    0 -0.21104091216E+02 -0.46570319545E+01 -0.27058737384E+03  0.27148975578E+03  0.47000000000E+01 0. -1.
        -11    1    4    4    0    0  0.36658426951E+02 -0.94750839708E+01 -0.41367294221E+02  0.56079145090E+02  0.00000000000E+00 0.  1.
         12    1    4    4    0    0 -0.28713025485E+02  0.17305817428E+02 -0.30311884725E+01  0.33661807036E+02  0.00000000000E+00 0. -1.
         -5    1    5    5    0  501  0.47182510154E+02  0.59675257765E+02 -0.44549267598E+03  0.45196586155E+03  0.47000000000E+01 0.  1.
         13    1    6    6    0    0 -0.20693272284E+02 -0.17154252245E+01 -0.24127276854E+03  0.24216461971E+03  0.00000000000E+00 0. -1.
        -14    1    6    6    0    0 -0.13330548121E+02 -0.61133534044E+02 -0.20140411424E+03  0.21089957262E+03  0.00000000000E+00 0.  1.
</event>
<event>
12    1  0.1348628E-002  0.1743807E+03  0.7818608E-02  0.1173355E+00
          2   -1    0    0  502    0  0.00000000000E+00  0.00000000000E+00  0.12066400434E+04  0.12066400434E+04  0.00000000000E+00 0.  1.
         -2   -1    0    0    0  501 -0.00000000000E+00 -0.00000000000E+00 -0.26064514889E+02  0.26064514889E+02  0.00000000000E+00 0. -1.
          6    2    1    2  502    0  0.24385459169E+01  0.96677789437E+01  0.71082454019E+03  0.73254852203E+03  0.17679478989E+03 0.  0.
         24    2    3    3    0    0 -0.36050597284E+02  0.41307767188E+02  0.63083596648E+03  0.63819405778E+03  0.79571738568E+02 0.  0.
         -6    2    1    2    0  501 -0.24385459169E+01 -0.96677789437E+01  0.46975098832E+03  0.50015603626E+03  0.17143703545E+03 0.  0.
        -24    2    5    5    0    0  0.56771783724E+02  0.23396288045E+02  0.24905462362E+03  0.26922732204E+03  0.81760159381E+02 0.  0.
          5    1    3    3  502    0  0.38489143201E+02 -0.31639988244E+02  0.79988573706E+02  0.94354464250E+02  0.47000000000E+01 0. -1.
        -11    1    4    4    0    0  0.12928403964E+02  0.72850003396E+01  0.38287334732E+03  0.38316082126E+03  0.00000000000E+00 0.  1.
         12    1    4    4    0    0 -0.48979001248E+02  0.34022766848E+02  0.24796261916E+03  0.25503323652E+03  0.00000000000E+00 0. -1.
         -5    1    5    5    0  501 -0.59210329641E+02 -0.33064066989E+02  0.22069636470E+03  0.23092871423E+03  0.47000000000E+01 0.  1.
         11    1    6    6    0    0  0.63117841858E+02 -0.90380182300E+01  0.20126138254E+03  0.21112008866E+03  0.00000000000E+00 0. -1.
        -12    1    6    6    0    0 -0.63460581343E+01  0.32434306275E+02  0.47793241081E+02  0.58107233374E+02  0.00000000000E+00 0.  1.
</event>
<event>
12    1  0.1348628E-002  0.3828927E+03  0.7818608E-02  0.1049870E+00
         -2   -1    0    0    0  501 -0.00000000000E+00  0.00000000000E+00  0.16696693896E+03  0.16696693896E+03  0.00000000000E+00 0.  1.
          2   -1    0    0  502    0  0.00000000000E+00 -0.00000000000E+00 -0.87838790358E+03  0.87838790358E+03  0.00000000000E+00 0. -1.
          6    2    1    2  502    0  0.14011251496E+03  0.31179684131E+03 -0.36584566447E+03  0.52959410876E+03  0.17256327164E+03 0.  0.
         24    2    3    3    0    0  0.16417592620E+03  0.22174037816E+03 -0.30150583885E+03  0.41623222152E+03  0.78873070998E+02 0.  0.
         -6    2    1    2    0  501 -0.14011251496E+03 -0.31179684131E+03 -0.34557530015E+03  0.51576073378E+03  0.17244726537E+03 0.  0.
        -24    2    5    5    0    0 -0.13355604705E+03 -0.32688588249E+03 -0.31300438902E+03  0.47896914932E+03  0.82146823298E+02 0.  0.
          5    1    3    3  502    0 -0.24063411237E+02  0.90056463151E+02 -0.64339825627E+02  0.11336188723E+03  0.47000000000E+01 0. -1.
        -13    1    4    4    0    0  0.15566992551E+03  0.16029921862E+03 -0.21766222886E+03  0.31193879379E+03  0.00000000000E+00 0.  1.
         14    1    4    4    0    0  0.85060006862E+01  0.61441159544E+02 -0.83843609987E+02  0.10429342774E+03  0.00000000000E+00 0. -1.
         -5    1    5    5    0  501 -0.65564679066E+01  0.15089041178E+02 -0.32570911135E+02  0.36791584462E+02  0.47000000000E+01 0.  1.
         13    1    6    6    0    0 -0.76169563712E+02 -0.23610612194E+03 -0.25939921537E+03  0.35893712010E+03  0.00000000000E+00 0. -1.
        -14    1    6    6    0    0 -0.57386483341E+02 -0.90779760548E+02 -0.53605173652E+02  0.12003202922E+03  0.00000000000E+00 0.  1.
</event>
<event>
12    1  0.1348628E-002  0.1743468E+03  0.7818608E-02  0.1173389E+00
         -2   -1    0    0    0  501 -0.00000000000E+00  0.00000000000E+00  0.44412783813E+03  0.44412783813E+03  0.00000000000E+00 0.  1.
          2   -1    0    0  502    0  0.00000000000E+00 -0.00000000000E+00 -0.93169874015E+02  0.93169874015E+02  0.00000000000E+00 0. -1.
          6    2    1    2  502    0  0.89521188551E+01  0.25992003164E+02  0.37089404255E+02  0.17826554082E+03  0.17218378110E+03 0.  0.
         24    2    3    3    0    0  0.11434894351E+02 -0.14510899079E+02  0.86373880320E+02  0.11425226997E+03  0.72469379671E+02 0.  0.
         -6    2    1    2    0  501 -0.89521188551E+01 -0.25992003164E+02  0.31386855986E+03  0.35903217133E+03  0.17214790884E+03 0.  0.
        -24    2    5    5    0    0  0.56956043824E+02 -0.40706840624E+02  0.16429039995E+03  0.19484895576E+03  0.77934217427E+02 0.  0.
          5    1    3    3  502    0 -0.24827754962E+01  0.40502902244E+02 -0.49284476065E+02  0.64013270853E+02  0.47000000000E+01 0. -1.
        -11    1    4    4    0    0  0.35782701494E+02  0.78574208865E+01  0.24420270199E+02  0.44028290744E+02  0.00000000000E+00 0.  1.
         12    1    4    4    0    0 -0.24347807143E+02 -0.22368319966E+02  0.61953610121E+02  0.70223979222E+02  0.00000000000E+00 0. -1.
         -5    1    5    5    0  501 -0.65908162680E+02  0.14714837460E+02  0.14957815992E+03  0.16418321557E+03  0.47000000000E+01 0.  1.
         11    1    6    6    0    0 -0.18719655113E+02 -0.15623001165E+02  0.48246371972E+02  0.54057525484E+02  0.00000000000E+00 0. -1.
        -12    1    6    6    0    0  0.75675698938E+02 -0.25083839459E+02  0.11604402797E+03  0.14079143028E+03  0.00000000000E+00 0.  1.
</event>
<event>
12    1  0.1348628E-002  0.2499167E+03  0.7818608E-02  0.1113357E+00
         -2   -1    0    0    0  501 -0.00000000000E+00  0.00000000000E+00  0.64659122301E+02  0.64659122301E+02  0.00000000000E+00 0. -1.
          2   -1    0    0  502    0  0.00000000000E+00 -0.00000000000E+00 -0.15165749553E+04  0.15165749553E+04  0.00000000000E+00 0.  1.
          6    2    1    2  502    0  0.16930494890E+03 -0.57732898503E+02 -0.25341127380E+03  0.35736572853E+03  0.17747038330E+03 0.  0.
         24    2    3    3    0    0  0.28614133665E+02 -0.64985660114E+02 -0.82506418007E+02  0.13583228235E+03  0.81247739970E+02 0.  0.
         -6    2    1    2    0  501 -0.16930494890E+03  0.57732898503E+02 -0.11985045592E+04  0.12238683491E+04  0.17159051298E+03 0.  0.
        -24    2    5    5    0    0 -0.89777957625E+02  0.43730953471E+02 -0.35597403751E+03  0.37746397362E+03  0.76085859606E+02 0.  0.
          5    1    3    3  502    0  0.14069081524E+03  0.72527616111E+01 -0.17090485579E+03  0.22153344618E+03  0.47000000000E+01 0. -1.
        -11    1    4    4    0    0  0.49003968667E+02 -0.69857752669E+02 -0.74869785241E+02  0.11352083199E+03  0.00000000000E+00 0.  1.
         12    1    4    4    0    0 -0.20389835002E+02  0.48720925551E+01 -0.76366327656E+01  0.22311450363E+02  0.00000000000E+00 0. -1.
         -5    1    5    5    0  501 -0.79526991277E+02  0.14001945032E+02 -0.84253052174E+03  0.84640437550E+03  0.47000000000E+01 0.  1.
         11    1    6    6    0    0  0.11699876593E+02  0.56452272061E+01 -0.15886166607E+02  0.20521354536E+02  0.00000000000E+00 0. -1.
        -12    1    6    6    0    0 -0.10147783422E+03  0.38085726265E+02 -0.34008787090E+03  0.35694261908E+03  0.00000000000E+00 0.  1.
</event>
<event>
12    1  0.1348628E-002  0.2326023E+03  0.7818608E-02  0.1124821E+00
          2   -1    0    0  502    0  0.00000000000E+00  0.00000000000E+00  0.13568086511E+04  0.13568086511E+04  0.00000000000E+00 0.  1.
         -2   -1    0    0    0  501 -0.00000000000E+00 -0.00000000000E+00 -0.41591208185E+02  0.41591208185E+02  0.00000000000E+00 0. -1.
          6    2    1    2  502    0 -0.67430253624E+02 -0.14116350400E+03  0.51624780249E+03  0.56632573275E+03  0.17245019000E+03 0.  0.
         24    2    3    3    0    0 -0.36042708669E+02 -0.16841205032E+03  0.44327165199E+03  0.48221110978E+03  0.79850494003E+02 0.  0.
         -6    2    1    2    0  501  0.67430253624E+02  0.14116350400E+03  0.79896964039E+03  0.83207412650E+03  0.17181644790E+03 0.  0.
        -24    2    5    5    0    0 -0.53094829871E+01  0.13014575095E+03  0.44180234102E+03  0.46737832189E+03  0.79291110108E+02 0.  0.
          5    1    3    3  502    0 -0.31387544954E+02  0.27248546328E+02  0.72976150501E+02  0.84114622969E+02  0.47000000000E+01 0. -1.
        -11    1    4    4    0    0  0.81850328713E+01 -0.37742774387E+01  0.84697143116E+02  0.85175383681E+02  0.00000000000E+00 0.  1.
         12    1    4    4    0    0 -0.44227741540E+02 -0.16463777289E+03  0.35857450887E+03  0.39703572610E+03  0.00000000000E+00 0. -1.
         -5    1    5    5    0  501  0.72739736611E+02  0.11017753049E+02  0.35716729936E+03  0.36469580461E+03  0.47000000000E+01 0.  1.
         11    1    6    6    0    0  0.14027450780E+02  0.10438467598E+03  0.22785245848E+03  0.25101727588E+03  0.00000000000E+00 0. -1.
        -12    1    6    6    0    0 -0.19336933767E+02  0.25761074965E+02  0.21394988254E+03  0.21636104601E+03  0.00000000000E+00 0.  1.
</event>
<event>
12    1  0.1348628E-002  0.1881266E+03  0.7818608E-02  0.1160162E+00
          4   -1    0    0  502    0  0.00000000000E+00  0.00000000000E+00  0.45568798960E+02  0.45568798960E+02  0.00000000000E+00 0. -1.
         -4   -1    0    0    0  501 -0.00000000000E+00 -0.00000000000E+00 -0.90621656204E+03  0.90621656204E+03  0.00000000000E+00 0.  1.
          6    2    1    2  502    0  0.32521198674E+02  0.70191835646E+02 -0.25243201050E+03  0.31544304053E+03  0.17262059478E+03 0.  0.
         24    2    3    3    0    0  0.54535905150E+02  0.35913319502E+02 -0.65513144786E+02  0.12407842435E+03  0.82701582695E+02 0.  0.
         -6    2    1    2    0  501 -0.32521198674E+02 -0.70191835646E+02 -0.60821575258E+03  0.63634232047E+03  0.17035440990E+03 0.  0.
        -24    2    5    5    0    0 -0.87302632077E+02 -0.46873836609E+02 -0.41516269847E+03  0.43426237038E+03  0.80030206800E+02 0.  0.
          5    1    3    3  502    0 -0.22014706476E+02  0.34278516143E+02 -0.18691886571E+03  0.19136461619E+03  0.47000000000E+01 0. -1.
        -13    1    4    4    0    0  0.25944888461E+02 -0.25492877836E+02 -0.32269003978E+02  0.48624198455E+02  0.00000000000E+00 0.  1.
         14    1    4    4    0    0  0.28591016688E+02  0.61406197338E+02 -0.33244140808E+02  0.75454225891E+02  0.00000000000E+00 0. -1.
         -5    1    5    5    0  501  0.54781433403E+02 -0.23317999037E+02 -0.19305305412E+03  0.20207995009E+03  0.47000000000E+01 0.  1.
         11    1    6    6    0    0  0.10067495460E+02 -0.49057468031E+01 -0.86535095884E+01  0.14152881146E+02  0.00000000000E+00 0. -1.
        -12    1    6    6    0    0 -0.97370127537E+02 -0.41968089806E+02 -0.40650918888E+03  0.42010948923E+03  0.00000000000E+00 0.  1.
</event>
<event>
12    1  0.1348628E-002  0.2633376E+03  0.7818608E-02  0.1105154E+00
          1   -1    0    0  502    0  0.00000000000E+00  0.00000000000E+00  0.10903455806E+03  0.10903455806E+03  0.00000000000E+00 0.  1.
         -1   -1    0    0    0  501 -0.00000000000E+00 -0.00000000000E+00 -0.65116466721E+03  0.65116466721E+03  0.00000000000E+00 0. -1.
          6    2    1    2  502    0  0.62399379553E+02 -0.18968587060E+03 -0.32899687226E+03  0.42137149752E+03  0.17158258915E+03 0.  0.
         24    2    3    3    0    0 -0.15611198678E+01 -0.10714571583E+03 -0.89006563528E+02  0.15960583721E+03  0.77905156469E+02 0.  0.
         -6    2    1    2    0  501 -0.62399379553E+02  0.18968587060E+03 -0.21313323689E+03  0.33882772774E+03  0.17176740188E+03 0.  0.
        -24    2    5    5    0    0  0.11876579752E+01  0.70380517661E+02 -0.26856742437E+02  0.10861456355E+03  0.78236890298E+02 0.  0.
          5    1    3    3  502    0  0.63960499421E+02 -0.82540154761E+02 -0.23999030873E+03  0.26176566031E+03  0.47000000000E+01 0. -1.
        -11    1    4    4    0    0  0.10908327428E+02 -0.85968048321E+01  0.11694082218E+02  0.18156217103E+02  0.00000000000E+00 0.  1.
         12    1    4    4    0    0 -0.12469447295E+02 -0.98548911003E+02 -0.10070064575E+03  0.14144962011E+03  0.00000000000E+00 0. -1.
         -5    1    5    5    0  501 -0.63587037528E+02  0.11930535293E+03 -0.18627649446E+03  0.23021316419E+03  0.47000000000E+01 0.  1.
         11    1    6    6    0    0 -0.10339433862E+02 -0.14206875010E+02 -0.13606208393E+02  0.22223143274E+02  0.00000000000E+00 0. -1.
        -12    1    6    6    0    0  0.11527091837E+02  0.84587392671E+02 -0.13250534045E+02  0.86391420278E+02  0.00000000000E+00 0.  1.
</event>
<event>
12    1  0.1348628E-002  0.2156118E+03  0.7818608E-02  0.1137198E+00
         -2   -1    0    0    0  501 -0.00000000000E+00  0.00000000000E+00  0.22900756848E+03  0.22900756848E+03  0.00000000000E+00 0.  1.
          2   -1    0    0  502    0  0.00000000000E+00 -0.00000000000E+00 -0.26303295530E+03  0.26303295530E+03  0.00000000000E+00 0. -1.
          6    2    1    2  502    0  0.11117087871E+03 -0.32754001342E+02 -0.13356146751E+03  0.24612483508E+03  0.17119281516E+03 0.  0.
         24    2    3    3    0    0  0.57885024711E+02 -0.63392159299E+02 -0.25653179790E+02  0.12184946536E+03  0.82583077138E+02 0.  0.
         -6    2    1    2    0  501 -0.11117087871E+03  0.32754001342E+02  0.99536080698E+02  0.24591568870E+03  0.19270523010E+03 0.  0.
        -24    2    5    5    0    0 -0.61986608980E+02  0.29085090006E+02  0.14502314372E+03  0.17865711154E+03  0.78729722061E+02 0.  0.
          5    1    3    3  502    0  0.53285854003E+02  0.30638157957E+02 -0.10790828772E+03  0.12427536972E+03  0.47000000000E+01 0. -1.
        -13    1    4    4    0    0  0.13669154716E+02  0.15139543730E+02 -0.24286176421E+02  0.31715452703E+02  0.00000000000E+00 0.  1.
         14    1    4    4    0    0  0.44215869994E+02 -0.78531703029E+02 -0.13670033695E+01  0.90134012660E+02  0.00000000000E+00 0. -1.
         -5    1    5    5    0  501 -0.49184269734E+02  0.36689113353E+01 -0.45487063017E+02  0.67258577160E+02  0.47000000000E+01 0.  1.
         13    1    6    6    0    0  0.15920499774E+02 -0.20767515761E+01  0.46779727802E+02  0.49458246465E+02  0.00000000000E+00 0. -1.
        -14    1    6    6    0    0 -0.77907108754E+02  0.31161841583E+02  0.98243415913E+02  0.12919886507E+03  0.00000000000E+00 0.  1.
</event>
<event>
12    1  0.1348628E-002  0.1782169E+03  0.7818608E-02  0.1169540E+00
         -1   -1    0    0    0  501 -0.00000000000E+00  0.00000000000E+00  0.51571758584E+03  0.51571758584E+03  0.00000000000E+00 0.  1.
          1   -1    0    0  502    0  0.00000000000E+00 -0.00000000000E+00 -0.63174179385E+02  0.63174179385E+02  0.00000000000E+00 0. -1.
          6    2    1    2  502    0  0.18933303063E+02  0.44352648893E+02  0.27216836857E+03  0.32533110940E+03  0.17157821094E+03 0.  0.
         24    2    3    3    0    0  0.29297806431E+02 -0.21639918467E+02  0.61951524673E+02  0.10470551403E+03  0.76148576652E+02 0.  0.
         -6    2    1    2    0  501 -0.18933303063E+02 -0.44352648893E+02  0.18037503788E+03  0.25356065582E+03  0.17155822469E+03 0.  0.
        -24    2    5    5    0    0  0.32664258590E+02  0.27407621868E+02  0.10238517163E+03  0.13559305829E+03  0.78003990673E+02 0.  0.
          5    1    3    3  502    0 -0.10364503368E+02  0.65992567360E+02  0.21021684390E+03  0.22062559537E+03  0.47000000000E+01 0. -1.
        -13    1    4    4    0    0 -0.24701365142E+02  0.19804380823E+01  0.24658318219E+02  0.34958721834E+02  0.00000000000E+00 0.  1.
         14    1    4    4    0    0  0.53999171573E+02 -0.23620356549E+02  0.37293206454E+02  0.69746792197E+02  0.00000000000E+00 0. -1.
         -5    1    5    5    0  501 -0.51597561653E+02 -0.71760270760E+02  0.77989866257E+02  0.11796759753E+03  0.47000000000E+01 0.  1.
         13    1    6    6    0    0 -0.13960713130E+02  0.84484946836E+01 -0.49420081797E+01  0.17049985876E+02  0.00000000000E+00 0. -1.
        -14    1    6    6    0    0  0.46624971720E+02  0.18959127184E+02  0.10732717981E+03  0.11854307241E+03  0.00000000000E+00 0.  1.
</event>
<event>
12    1  0.1348628E-002  0.2783695E+03  0.7818608E-02  0.1096583E+00
         -2   -1    0    0    0  501 -0.00000000000E+00  0.00000000000E+00  0.50627589870E+03  0.50627589870E+03  0.00000000000E+00 0. -1.
          2   -1    0    0  502    0  0.00000000000E+00 -0.00000000000E+00 -0.20881410384E+03  0.20881410384E+03  0.00000000000E+00 0.  1.
          6    2    1    2  502    0 -0.71120735294E+02  0.20710668587E+03  0.33345846466E+03  0.43433242362E+03  0.17175205452E+03 0.  0.
         24    2    3    3    0    0 -0.61261246046E+02  0.40842233352E+02  0.16240009743E+03  0.19553516086E+03  0.80244496364E+02 0.  0.
         -6    2    1    2    0  501  0.71120735294E+02 -0.20710668587E+03 -0.35996669796E+02  0.28075757892E+03  0.17198174195E+03 0.  0.
        -24    2    5    5    0    0  0.64722103714E+02 -0.72203751827E+02  0.21224625078E+02  0.13400571117E+03  0.90026181918E+02 0.  0.
          5    1    3    3  502    0 -0.98594892482E+01  0.16626445252E+03  0.17105836723E+03  0.23879726276E+03  0.47000000000E+01 0. -1.
        -13    1    4    4    0    0 -0.61740742842E+02  0.59616665473E+02  0.15064778049E+03  0.17338056378E+03  0.00000000000E+00 0.  1.
         14    1    4    4    0    0  0.47949679642E+00 -0.18774432121E+02  0.11752316936E+02  0.22154597085E+02  0.00000000000E+00 0. -1.
         -5    1    5    5    0  501  0.63986315798E+01 -0.13490293405E+03 -0.57221294874E+02  0.14675186775E+03  0.47000000000E+01 0.  1.
         11    1    6    6    0    0  0.89885304101E+01 -0.60928198616E+02  0.40790571744E+02  0.73870899606E+02  0.00000000000E+00 0. -1.
        -12    1    6    6    0    0  0.55733573304E+02 -0.11275553211E+02 -0.19565946666E+02  0.60134811568E+02  0.00000000000E+00 0.  1.
</event>
<event>
12    1  0.1348628E-002  0.2259833E+03  0.7818608E-02  0.1129499E+00
          2   -1    0    0  502    0  0.00000000000E+00  0.00000000000E+00  0.17131943869E+03  0.17131943869E+03  0.00000000000E+00 0. -1.
         -2   -1    0    0    0  501 -0.00000000000E+00 -0.00000000000E+00 -0.43618568146E+03  0.43618568146E+03  0.00000000000E+00 0.  1.
          6    2    1    2  502    0  0.11497886913E+03 -0.90341038825E+02 -0.30319465359E+03  0.37792239757E+03  0.17180424029E+03 0.  0.
         24    2    3    3    0    0 -0.84954588421E+01 -0.51130858954E+02 -0.11498695435E+03  0.14938886409E+03  0.80053079174E+02 0.  0.
         -6    2    1    2    0  501 -0.11497886913E+03  0.90341038825E+02  0.38328410819E+02  0.22958272258E+03  0.17279327472E+03 0.  0.
        -24    2    5    5    0    0 -0.11743866259E+03  0.10598118780E+03  0.78399971724E+02  0.18624123163E+03  0.59290717294E+02 0.  0.
          5    1    3    3  502    0  0.12347432797E+03 -0.39210179871E+02 -0.18820769923E+03  0.22853353348E+03  0.47000000000E+01 0. -1.
        -11    1    4    4    0    0 -0.13075094904E+02 -0.72325987230E+02 -0.84762295326E+02  0.11219025468E+03  0.00000000000E+00 0.  1.
         12    1    4    4    0    0  0.45796360621E+01  0.21195128277E+02 -0.30224659028E+02  0.37198609416E+02  0.00000000000E+00 0. -1.
         -5    1    5    5    0  501  0.24597934566E+01 -0.15640148973E+02 -0.40071560905E+02  0.43341490943E+02  0.47000000000E+01 0.  1.
         13    1    6    6    0    0 -0.61712642699E+02  0.62018513603E+02  0.74904412399E+02  0.11517559331E+03  0.00000000000E+00 0. -1.
        -14    1    6    6    0    0 -0.55726019888E+02  0.43962674196E+02  0.34955593250E+01  0.71065638321E+02  0.00000000000E+00 0.  1.
</event>
<event>
12    1  0.1348628E-002  0.1785061E+03  0.7818608E-02  0.1169257E+00
         -2   -1    0    0    0  501 -0.00000000000E+00  0.00000000000E+00  0.58588784190E+02  0.58588784190E+02  0.00000000000E+00 0. -1.
          2   -1    0    0  502    0  0.00000000000E+00 -0.00000000000E+00 -0.57026825556E+03  0.57026825556E+03  0.00000000000E+00 0.  1.
          6    2    1    2  502    0  0.49756761647E+02  0.87532606909E+01 -0.32304839336E+03  0.36892920359E+03  0.17086877393E+03 0.  0.
         24    2    3    3    0    0 -0.31591139426E+02 -0.21132556927E+02 -0.12739958554E+03  0.15489371797E+03  0.79478452532E+02 0.  0.
         -6    2    1    2    0  501 -0.49756761647E+02 -0.87532606909E+01 -0.18863107800E+03  0.25992783616E+03  0.17154719910E+03 0.  0.
        -24    2    5    5    0    0 -0.42287842836E+02 -0.44934582867E+02 -0.54992276818E+02  0.12119683023E+03  0.88640525493E+02 0.  0.
          5    1    3    3  502    0  0.81347901073E+02  0.29885817618E+02 -0.19564880782E+03  0.21403548562E+03  0.47000000000E+01 0. -1.
        -11    1    4    4    0    0  0.19388012357E+02  0.12030274126E+02 -0.59579439006E+02  0.63799154155E+02  0.00000000000E+00 0.  1.
         12    1    4    4    0    0 -0.50979151783E+02 -0.33162831052E+02 -0.67820146535E+02  0.91094563811E+02  0.00000000000E+00 0. -1.
         -5    1    5    5    0  501 -0.74689188112E+01  0.36181322176E+02 -0.13363880119E+03  0.13873100593E+03  0.47000000000E+01 0.  1.
         11    1    6    6    0    0 -0.66083308030E+02 -0.43981397977E+02 -0.25683634168E+02  0.83432703614E+02  0.00000000000E+00 0. -1.
        -12    1    6    6    0    0  0.23795465195E+02 -0.95318488962E+00 -0.29308642650E+02  0.37764126618E+02  0.00000000000E+00 0.  1.
</event>
<event>
12    1  0.1348628E-002  0.3325864E+03  0.7818608E-02  0.1069998E+00
          1   -1    0    0  502    0  0.00000000000E+00  0.00000000000E+00  0.25884179325E+03  0.25884179325E+03  0.00000000000E+00 0. -1.
         -1   -1    0    0    0  501 -0.00000000000E+00 -0.00000000000E+00 -0.43165020338E+03  0.43165020338E+03  0.00000000000E+00 0.  1.
          6    2    1    2  502    0  0.28141158201E+03  0.42249267661E+02 -0.12087562153E+03  0.35378456430E+03  0.17197419267E+03 0.  0.
         24    2    3    3    0    0  0.24537614976E+03 -0.20682836458E+02 -0.81362352913E+02  0.27106582093E+03  0.78864518077E+02 0.  0.
         -6    2    1    2    0  501 -0.28141158201E+03 -0.42249267661E+02 -0.51932788595E+02  0.33670743233E+03  0.17232933977E+03 0.  0.
        -24    2    5    5    0    0 -0.11372701695E+03 -0.47542900071E+02  0.28821644389E+02  0.15045624616E+03  0.81315638661E+02 0.  0.
          5    1    3    3  502    0  0.36035432254E+02  0.62932104119E+02 -0.39513268622E+02  0.82718743364E+02  0.47000000000E+01 0. -1.
        -13    1    4    4    0    0  0.80009351712E+02 -0.26700804078E+01 -0.66475925567E+02  0.10405611165E+03  0.00000000000E+00 0.  1.
         14    1    4    4    0    0  0.16536679805E+03 -0.18012756050E+02 -0.14886427346E+02  0.16700970929E+03  0.00000000000E+00 0. -1.
         -5    1    5    5    0  501 -0.16768456506E+03  0.52936324103E+01 -0.80754432984E+02  0.18625118617E+03  0.47000000000E+01 0.  1.
         13    1    6    6    0    0 -0.33835320377E+02 -0.53563164417E+02 -0.48708668995E+01  0.63541851025E+02  0.00000000000E+00 0. -1.
        -14    1    6    6    0    0 -0.79891696576E+02  0.60202643458E+01  0.33692511288E+02  0.86914395134E+02  0.00000000000E+00 0.  1.
</event>
<event>
12    1  0.1348628E-002  0.2340579E+03  0.7818608E-02  0.1123816E+00
         -2   -1    0    0    0  501 -0.00000000000E+00  0.00000000000E+00  0.38112883808E+03  0.38112883808E+03  0.00000000000E+00 0. -1.
          2   -1    0    0  502    0  0.00000000000E+00 -0.00000000000E+00 -0.15107944074E+03  0.15107944074E+03  0.00000000000E+00 0.  1.
          6    2    1    2  502    0 -0.13366630275E+03  0.87233604338E+02  0.56623774538E+02  0.24133259550E+03  0.17192669249E+03 0.  0.
         24    2    3    3    0    0 -0.93311930161E+02 -0.10548270535E+02  0.46621788950E+01  0.12338401407E+03  0.79896787754E+02 0.  0.
         -6    2    1    2    0  501  0.13366630275E+03 -0.87233604338E+02  0.17342562280E+03  0.29087568332E+03  0.17045771994E+03 0.  0.
        -24    2    5    5    0    0 -0.14215100828E+01 -0.26231860202E+02  0.51705751932E+02  0.99022231625E+02  0.80260740045E+02 0.  0.
          5    1    3    3  502    0 -0.40354372589E+02  0.97781874873E+02  0.51961595643E+02  0.11794858143E+03  0.47000000000E+01 0. -1.
        -13    1    4    4    0    0 -0.39938028775E+02 -0.33207960750E+02 -0.25678082401E+02  0.57941165982E+02  0.00000000000E+00 0.  1.
         14    1    4    4    0    0 -0.53373901386E+02  0.22659690215E+02  0.30340261296E+02  0.65442848084E+02  0.00000000000E+00 0. -1.
         -5    1    5    5    0  501  0.13508781283E+03 -0.61001744136E+02  0.12171987087E+03  0.19185345169E+03  0.47000000000E+01 0.  1.
         13    1    6    6    0    0  0.31252738146E+02 -0.98677296188E+01  0.53159539690E+02  0.62450319371E+02  0.00000000000E+00 0. -1.
        -14    1    6    6    0    0 -0.32674248229E+02 -0.16364130583E+02 -0.14537877576E+01  0.36571912254E+02  0.00000000000E+00 0.  1.
</event>
<event>
12    1  0.1348628E-002  0.1931730E+03  0.7818608E-02  0.1155630E+00
          1   -1    0    0  502    0  0.00000000000E+00  0.00000000000E+00  0.45749277092E+02  0.45749277092E+02  0.00000000000E+00 0. -1.
         -1   -1    0    0    0  501 -0.00000000000E+00 -0.00000000000E+00 -0.82677864427E+03  0.82677864427E+03  0.00000000000E+00 0.  1.
          6    2    1    2  502    0 -0.55925666466E+02 -0.66138888854E+02 -0.43591693193E+03  0.47581974885E+03  0.16993772114E+03 0.  0.
         24    2    3    3    0    0 -0.50481780471E+02 -0.72188131892E+02 -0.44634274327E+03  0.46178348231E+03  0.79136613050E+02 0.  0.
         -6    2    1    2    0  501  0.55925666466E+02  0.66138888854E+02 -0.34511243525E+03  0.39670817251E+03  0.17542163032E+03 0.  0.
        -24    2    5    5    0    0 -0.29629790189E+02  0.58465471830E+02 -0.24542391379E+03  0.26503240100E+03  0.75585317733E+02 0.  0.
          5    1    3    3  502    0 -0.54438859950E+01  0.60492430386E+01  0.10425811343E+02  0.14036266535E+02  0.47000000000E+01 0. -1.
        -13    1    4    4    0    0  0.19117245193E+01  0.55220152345E+01 -0.16768405863E+03  0.16778584821E+03  0.00000000000E+00 0.  1.
         14    1    4    4    0    0 -0.52393504990E+02 -0.77710147127E+02 -0.27865868464E+03  0.29399763410E+03  0.00000000000E+00 0. -1.
         -5    1    5    5    0  501  0.85555456654E+02  0.76734170238E+01 -0.99688521462E+02  0.13167577151E+03  0.47000000000E+01 0.  1.
         11    1    6    6    0    0 -0.82457375945E+01  0.61303153336E+02 -0.96963558504E+02  0.11501304480E+03  0.00000000000E+00 0. -1.
        -12    1    6    6    0    0 -0.21384052594E+02 -0.28376815066E+01 -0.14846035528E+03  0.15001935619E+03  0.00000000000E+00 0.  1.
</event>
<event>
12    1  0.1348628E-002  0.2541727E+03  0.7818608E-02  0.1110696E+00
         -4   -1    0    0    0  501 -0.00000000000E+00  0.00000000000E+00  0.23676000525E+03  0.23676000525E+03  0.00000000000E+00 0.  1.
          4   -1    0    0  502    0  0.00000000000E+00 -0.00000000000E+00 -0.34622518678E+03  0.34622518678E+03  0.00000000000E+00 0. -1.
          6    2    1    2  502    0 -0.16435540754E+03  0.86254802871E+02  0.79518772688E+02  0.26589323496E+03  0.17298377434E+03 0.  0.
         24    2    3    3    0    0 -0.12176756204E+03  0.64919694662E+02 -0.15313370010E+02  0.15966641765E+03  0.78847699434E+02 0.  0.
         -6    2    1    2    0  501  0.16435540754E+03 -0.86254802871E+02 -0.18898395422E+03  0.31709195706E+03  0.17429797267E+03 0.  0.
        -24    2    5    5    0    0  0.43186808586E+02  0.19277895043E+02 -0.66758970175E+02  0.11515133107E+03  0.81032902424E+02 0.  0.
          5    1    3    3  502    0 -0.42587845503E+02  0.21335108209E+02  0.94832142698E+02  0.10622681731E+03  0.47000000000E+01 0. -1.
        -11    1    4    4    0    0 -0.11156650895E+02 -0.13454429758E+02 -0.16589204380E+02  0.24097598247E+02  0.00000000000E+00 0.  1.
         12    1    4    4    0    0 -0.11061091114E+03  0.78374124420E+02  0.12758343699E+01  0.13556881941E+03  0.00000000000E+00 0. -1.
         -5    1    5    5    0  501  0.12116859895E+03 -0.10553269791E+03 -0.12222498404E+03  0.20194062599E+03  0.47000000000E+01 0.  1.
         13    1    6    6    0    0  0.32915837380E+02 -0.17063486488E+02 -0.67906871160E+02  0.77368973577E+02  0.00000000000E+00 0. -1.
        -14    1    6    6    0    0  0.10270971205E+02  0.36341381531E+02  0.11479009847E+01  0.37782357493E+02  0.00000000000E+00 0.  1.
</event>
<event>
12    1  0.1348628E-002  0.1740131E+03  0.7818608E-02  0.1173726E+00
          1   -1    0    0  502    0  0.00000000000E+00  0.00000000000E+00  0.12139844655E+04  0.12139844655E+04  0.00000000000E+00 0. -1.
         -1   -1    0    0    0  501 -0.00000000000E+00 -0.00000000000E+00 -0.29325836307E+02  0.29325836307E+02  0.00000000000E+00 0.  1.
          6    2    1    2  502    0 -0.10769459010E+02 -0.14287317161E+02  0.35128897688E+03  0.39191612766E+03  0.17284153774E+03 0.  0.
         24    2    3    3    0    0  0.34564922559E+02 -0.51673375839E+02  0.28499052785E+03  0.30320030112E+03  0.82740256180E+02 0.  0.
         -6    2    1    2    0  501  0.10769459010E+02  0.14287317161E+02  0.83336965231E+03  0.85139417414E+03  0.17334057139E+03 0.  0.
        -24    2    5    5    0    0 -0.14911095880E+02 -0.13906801327E+02  0.78738976820E+03  0.79147223359E+03  0.77652492371E+02 0.  0.
          5    1    3    3  502    0 -0.45334381569E+02  0.37386058678E+02  0.66298449033E+02  0.88715826547E+02  0.47000000000E+01 0. -1.
        -11    1    4    4    0    0  0.46895943765E+02 -0.13572228319E+02  0.75450472734E+02  0.89867729241E+02  0.00000000000E+00 0.  1.
         12    1    4    4    0    0 -0.12331021207E+02 -0.38101147520E+02  0.20954005511E+03  0.21333257188E+03  0.00000000000E+00 0. -1.
         -5    1    5    5    0  501  0.25680554890E+02  0.28194118488E+02  0.45979884109E+02  0.59921940552E+02  0.47000000000E+01 0.  1.
         13    1    6    6    0    0 -0.44687015794E+02 -0.79405088521E+01  0.33445240700E+03  0.33751799005E+03  0.00000000000E+00 0. -1.
        -14    1    6    6    0    0  0.29775919914E+02 -0.59662924751E+01  0.45293736121E+03  0.45395424354E+03  0.00000000000E+00 0.  1.
</event>
<event>
12    1  0.1348628E-002  0.2199227E+03  0.7818608E-02  0.1133941E+00
          1   -1    0    0  502    0  0.00000000000E+00  0.00000000000E+00  0.27645110147E+04  0.27645110147E+04  0.00000000000E+00 0. -1.
         -1   -1    0    0    0  501 -0.00000000000E+00 -0.00000000000E+00 -0.23730765196E+02  0.23730765196E+02  0.00000000000E+00 0.  1.
          6    2    1    2  502    0 -0.10120891722E+03  0.90438883503E+02  0.65721500811E+03  0.69313515629E+03  0.17344261713E+03 0.  0.
         24    2    3    3    0    0 -0.82397200710E+02  0.54590719023E+02  0.21591068309E+03  0.24995283619E+03  0.78035581363E+02 0.  0.
         -6    2    1    2    0  501  0.10120891722E+03 -0.90438883503E+02  0.20835652414E+04  0.20951066236E+04  0.17264186204E+03 0.  0.
        -24    2    5    5    0    0  0.10560969201E+03 -0.50148995078E+02  0.92072968017E+03  0.93155547544E+03  0.79900757994E+02 0.  0.
          5    1    3    3  502    0 -0.18811716511E+02  0.35848164480E+02  0.44130432501E+03  0.44318232010E+03  0.47000000000E+01 0. -1.
        -11    1    4    4    0    0  0.10413350772E+02  0.83654585832E+01  0.68127531277E+02  0.69424630280E+02  0.00000000000E+00 0.  1.
         12    1    4    4    0    0 -0.92810551483E+02  0.46225260440E+02  0.14778315182E+03  0.18052820591E+03  0.00000000000E+00 0. -1.
         -5    1    5    5    0  501 -0.44007747875E+01 -0.40289888425E+02  0.11628355612E+04  0.11635511481E+04  0.47000000000E+01 0.  1.
         11    1    6    6    0    0  0.14095072670E+02  0.21264798684E+02  0.17088644235E+03  0.17278031982E+03  0.00000000000E+00 0. -1.
        -12    1    6    6    0    0  0.91514619339E+02 -0.71413793762E+02  0.74984323781E+03  0.75877515562E+03  0.00000000000E+00 0.  1.
</event>
<event>
12    1  0.1348628E-002  0.1812915E+03  0.7818608E-02  0.1166559E+00
         -1   -1    0    0    0  501 -0.00000000000E+00  0.00000000000E+00  0.24657547888E+02  0.24657547888E+02  0.00000000000E+00 0.  1.
          1   -1    0    0  502    0  0.00000000000E+00 -0.00000000000E+00 -0.14888456018E+04  0.14888456018E+04  0.00000000000E+00 0. -1.
          6    2    1    2  502    0 -0.19675674086E+02 -0.54904210870E+02 -0.48767551568E+03  0.52032872206E+03  0.17179338137E+03 0.  0.
         24    2    3    3    0    0 -0.14427387973E+02 -0.72405561126E+00 -0.98911690630E+02  0.12774441850E+03  0.79538922136E+02 0.  0.
         -6    2    1    2    0  501  0.19675674086E+02  0.54904210870E+02 -0.97651253826E+03  0.99317442766E+03  0.17151414477E+03 0.  0.
        -24    2    5    5    0    0  0.29935705556E+02 -0.26367109701E+02 -0.71436962703E+03  0.71849044250E+03  0.65674812566E+02 0.  0.
          5    1    3    3  502    0 -0.52482861133E+01 -0.54180155259E+02 -0.38876382505E+03  0.39258430356E+03  0.47000000000E+01 0. -1.
        -13    1    4    4    0    0 -0.20838686883E+02 -0.37187146956E+02 -0.63726154371E+02  0.76669143211E+02  0.00000000000E+00 0.  1.
         14    1    4    4    0    0  0.64112989104E+01  0.36463091344E+02 -0.35185536258E+02  0.51075275289E+02  0.00000000000E+00 0. -1.
         -5    1    5    5    0  501 -0.10260031470E+02  0.81271320571E+02 -0.26214291124E+03  0.27468398516E+03  0.47000000000E+01 0.  1.
         13    1    6    6    0    0 -0.37766533780E+01 -0.93381997201E+01 -0.53925394344E+03  0.53934801437E+03  0.00000000000E+00 0. -1.
        -14    1    6    6    0    0  0.33712358934E+02 -0.17028909981E+02 -0.17511568358E+03  0.17914242813E+03  0.00000000000E+00 0.  1.
</event>
<event>
12    1  0.1348628E-002  0.1910386E+03  0.7818608E-02  0.1157528E+00
         -2   -1    0    0    0  501 -0.00000000000E+00  0.00000000000E+00  0.46531995597E+02  0.46531995597E+02  0.00000000000E+00 0. -1.
          2   -1    0    0  502    0  0.00000000000E+00 -0.00000000000E+00 -0.96982183045E+03  0.96982183045E+03  0.00000000000E+00 0.  1.
          6    2    1    2  502    0 -0.12098610816E+02 -0.84205821897E+02 -0.68363035309E+03  0.70978435305E+03  0.17089871662E+03 0.  0.
         24    2    3    3    0    0  0.18366812156E+02 -0.11994569880E+03 -0.52050876433E+03  0.53997203454E+03  0.76916278463E+02 0.  0.
         -6    2    1    2    0  501  0.12098610816E+02  0.84205821897E+02 -0.23965948176E+03  0.30656947299E+03  0.17120507513E+03 0.  0.
        -24    2    5    5    0    0  0.44410795480E+02  0.81706413250E+02 -0.24465974773E+03  0.27344218845E+03  0.79145319150E+02 0.  0.
          5    1    3    3  502    0 -0.30465422973E+02  0.35739876903E+02 -0.16312158876E+03  0.16981231851E+03  0.47000000000E+01 0. -1.
        -13    1    4    4    0    0  0.43856018089E+02 -0.76610099580E+02 -0.39550773265E+03  0.40523921857E+03  0.00000000000E+00 0.  1.
         14    1    4    4    0    0 -0.25489205932E+02 -0.43335599220E+02 -0.12500103168E+03  0.13473281598E+03  0.00000000000E+00 0. -1.
         -5    1    5    5    0  501 -0.32312184664E+02  0.24994086476E+01  0.50002659728E+01  0.33127284542E+02  0.47000000000E+01 0.  1.
         13    1    6    6    0    0  0.96732556303E+01 -0.12422140289E+02 -0.11159609761E+02  0.19298143275E+02  0.00000000000E+00 0. -1.
        -14    1    6    6    0    0  0.34737539850E+02  0.94128553538E+02 -0.23350013797E+03  0.25414404518E+03  0.00000000000E+00 0.  1.
</event>
<event>
12    1  0.1348628E-002  0.2258614E+03  0.7818608E-02  0.1129587E+00
         -4   -1    0    0    0  501 -0.00000000000E+00  0.00000000000E+00  0.27984606014E+03  0.27984606014E+03  0.00000000000E+00 0.  1.
          4   -1    0    0  502    0  0.00000000000E+00 -0.00000000000E+00 -0.30517934520E+03  0.30517934520E+03  0.00000000000E+00 0. -1.
          6    2    1    2  502    0 -0.12996921129E+03  0.79791000549E+02  0.17272717218E+03  0.28793654023E+03  0.17266781848E+03 0.  0.
         24    2    3    3    0    0 -0.42425325303E+02 -0.22980386317E+02  0.87358511864E+02  0.12813732842E+03  0.80372003563E+02 0.  0.
         -6    2    1    2    0  501  0.12996921129E+03 -0.79791000549E+02 -0.19806045724E+03  0.29708886511E+03  0.16054672030E+03 0.  0.
        -24    2    5    5    0    0  0.29774394631E+02 -0.46576241822E+02 -0.15473764491E+03  0.18289088986E+03  0.80308641900E+02 0.  0.
          5    1    3    3  502    0 -0.87543885987E+02  0.10277138687E+03  0.85368660311E+02  0.15979921181E+03  0.47000000000E+01 0. -1.
        -13    1    4    4    0    0 -0.53404705423E+02  0.12352699220E+02  0.64501592578E+02  0.84646956143E+02  0.00000000000E+00 0.  1.
         14    1    4    4    0    0  0.10979380120E+02 -0.35333085537E+02  0.22856919286E+02  0.43490372275E+02  0.00000000000E+00 0. -1.
         -5    1    5    5    0  501  0.10019481666E+03 -0.33214758727E+02 -0.43322812324E+02  0.11419797525E+03  0.47000000000E+01 0.  1.
         13    1    6    6    0    0 -0.27776577656E+02 -0.17099306328E+02 -0.57753540947E+02  0.66327943094E+02  0.00000000000E+00 0. -1.
        -14    1    6    6    0    0  0.57550972287E+02 -0.29476935494E+02 -0.96984103965E+02  0.11656294677E+03  0.00000000000E+00 0.  1.
</event>
<event>
12    1  0.1348628E-002  0.2515534E+03  0.7818608E-02  0.1112327E+00
          1   -1    0    0  502    0  0.00000000000E+00  0.00000000000E+00  0.17219900985E+04  0.17219900985E+04  0.00000000000E+00 0.  1.
         -1   -1    0    0    0  501 -0.00000000000E+00 -0.00000000000E+00 -0.36905826382E+02  0.36905826382E+02  0.00000000000E+00 0. -1.
          6    2    1    2  502    0 -0.17824029858E+03  0.37526321637E+02  0.78247043901E+03  0.82167750918E+03  0.17238361962E+03 0.  0.
         24    2    3    3    0    0 -0.17685729647E+03  0.76087220907E+02  0.70230552109E+03  0.73258564809E+03  0.79880650567E+02 0.  0.
         -6    2    1    2    0  501  0.17824029858E+03 -0.37526321637E+02  0.90261383310E+03  0.93721841570E+03  0.17461041823E+03 0.  0.
        -24    2    5    5    0    0  0.15151329964E+03 -0.47190148142E+02  0.88679365476E+03  0.90435369209E+03  0.79179695775E+02 0.  0.
          5    1    3    3  502    0 -0.13830021101E+01 -0.38560899269E+02  0.80164917920E+02  0.89091861090E+02  0.47000000000E+01 0. -1.
        -13    1    4    4    0    0 -0.46861607617E+02  0.60736001973E+02  0.29179591666E+03  0.30171133420E+03  0.00000000000E+00 0.  1.
         14    1    4    4    0    0 -0.12999568886E+03  0.15351218934E+02  0.41050960443E+03  0.43087431389E+03  0.00000000000E+00 0. -1.
         -5    1    5    5    0  501  0.26726998941E+02  0.96638265046E+01  0.15820178349E+02  0.32864723612E+02  0.47000000000E+01 0.  1.
         11    1    6    6    0    0  0.18350711612E+02 -0.72737944197E+01  0.27293098020E+02  0.33683377228E+02  0.00000000000E+00 0. -1.
        -12    1    6    6    0    0  0.13316258803E+03 -0.39916353722E+02  0.85950055674E+03  0.87067031486E+03  0.00000000000E+00 0.  1.
</event>
<event>
12    1  0.1348628E-002  0.1840956E+03  0.7818608E-02  0.1163897E+00
         -2   -1    0    0    0  501 -0.00000000000E+00  0.00000000000E+00  0.48048593627E+03  0.48048593627E+03  0.00000000000E+00 0.  1.
          2   -1    0    0  502    0  0.00000000000E+00 -0.00000000000E+00 -0.74922688401E+02  0.74922688401E+02  0.00000000000E+00 0. -1.
          6    2    1    2  502    0 -0.60736558011E+02  0.10432975965E+02  0.13490749423E+03  0.22770802171E+03  0.17278059696E+03 0.  0.
         24    2    3    3    0    0  0.26820340522E+02 -0.69250510946E+01  0.11362116803E+03  0.13582380507E+03  0.69072781911E+02 0.  0.
         -6    2    1    2    0  501  0.60736558011E+02 -0.10432975965E+02  0.27065575363E+03  0.32770060296E+03  0.17417052488E+03 0.  0.
        -24    2    5    5    0    0  0.95433803545E+02 -0.37223653456E+02  0.24056598944E+03  0.27432342472E+03  0.82994787997E+02 0.  0.
          5    1    3    3  502    0 -0.87556898534E+02  0.17358027059E+02  0.21286326202E+02  0.91884216639E+02  0.47000000000E+01 0. -1.
        -11    1    4    4    0    0  0.27650800762E+02  0.22917312939E+02  0.29221542813E+02  0.46299768677E+02  0.00000000000E+00 0.  1.
         12    1    4    4    0    0 -0.83046024005E+00 -0.29842364034E+02  0.84399625219E+02  0.89524036395E+02  0.00000000000E+00 0. -1.
         -5    1    5    5    0  501 -0.34697245534E+02  0.26790677491E+02  0.30089764186E+02  0.53377178240E+02  0.47000000000E+01 0.  1.
         13    1    6    6    0    0  0.26084359052E+01 -0.17579813678E+02  0.23748152800E+01  0.17930240780E+02  0.00000000000E+00 0. -1.
        -14    1    6    6    0    0  0.92825367640E+02 -0.19643839778E+02  0.23819117416E+03  0.25639318393E+03  0.00000000000E+00 0.  1.
</event>
<event>
12    1  0.1348628E-002  0.2189821E+03  0.7818608E-02  0.1134644E+00
         -2   -1    0    0    0  501 -0.00000000000E+00  0.00000000000E+00  0.21461520602E+02  0.21461520602E+02  0.00000000000E+00 0.  1.
          2   -1    0    0  502    0  0.00000000000E+00 -0.00000000000E+00 -0.22906275667E+04  0.22906275667E+04  0.00000000000E+00 0. -1.
          6    2    1    2  502    0  0.99225953224E+02 -0.91856536110E+02 -0.95365985399E+03  0.97848889092E+03  0.17230780461E+03 0.  0.
         24    2    3    3    0    0 -0.31266351913E+01 -0.56135717436E+02 -0.24934648808E+03  0.26586596354E+03  0.73144000631E+02 0.  0.
         -6    2    1    2    0  501 -0.99225953224E+02  0.91856536110E+02 -0.13155061921E+04  0.13336001963E+04  0.17219038674E+03 0.  0.
        -24    2    5    5    0    0 -0.28010854484E+02 -0.10209927030E+02 -0.73972875277E+03  0.74450690764E+03  0.78759490026E+02 0.  0.
          5    1    3    3  502    0  0.10235258842E+03 -0.35720818675E+02 -0.70431336590E+03  0.71262292738E+03  0.47000000000E+01 0. -1.
        -11    1    4    4    0    0  0.16287277875E+02 -0.90061917285E+01 -0.99519146528E+01  0.21105153761E+02  0.00000000000E+00 0.  1.
         12    1    4    4    0    0 -0.19413913067E+02 -0.47129525707E+02 -0.23939457343E+03  0.24476080978E+03  0.00000000000E+00 0. -1.
         -5    1    5    5    0  501 -0.71215098740E+02  0.10206646314E+03 -0.57577743930E+03  0.58909328870E+03  0.47000000000E+01 0.  1.
         11    1    6    6    0    0 -0.55336444514E+02 -0.79552039032E+01 -0.44287118387E+03  0.44638581168E+03  0.00000000000E+00 0. -1.
        -12    1    6    6    0    0  0.27325590031E+02 -0.22547231264E+01 -0.29685756890E+03  0.29812109596E+03  0.00000000000E+00 0.  1.
</event>
<event>
12    1  0.1348628E-002  0.2249194E+03  0.7818608E-02  0.1130268E+00
          1   -1    0    0  502    0  0.00000000000E+00  0.00000000000E+00  0.11380742691E+04  0.11380742691E+04  0.00000000000E+00 0. -1.
         -1   -1    0    0    0  501 -0.00000000000E+00 -0.00000000000E+00 -0.46732614519E+02  0.46732614519E+02  0.00000000000E+00 0.  1.
          6    2    1    2  502    0  0.95361883148E+02  0.11128493793E+03  0.41203170016E+03  0.46884819495E+03  0.16902745873E+03 0.  0.
         24    2    3    3    0    0  0.10668881906E+03  0.63835141662E+02  0.18693695566E+03  0.23847997526E+03  0.80435339148E+02 0.  0.
         -6    2    1    2    0  501 -0.95361883148E+02 -0.11128493793E+03  0.67930995439E+03  0.71595868864E+03  0.17221092745E+03 0.  0.
        -24    2    5    5    0    0 -0.99268122428E+02 -0.14423555357E+03  0.55697958027E+03  0.58912094895E+03  0.78607789743E+02 0.  0.
          5    1    3    3  502    0 -0.11326935916E+02  0.47449796266E+02  0.22509474449E+03  0.23036821968E+03  0.47000000000E+01 0. -1.
        -13    1    4    4    0    0  0.37606203753E+02 -0.72699641990E+01  0.17366226745E+02  0.42055496330E+02  0.00000000000E+00 0.  1.
         14    1    4    4    0    0  0.69082615311E+02  0.71105105861E+02  0.16957072892E+03  0.19642447893E+03  0.00000000000E+00 0. -1.
         -5    1    5    5    0  501  0.39062392800E+01  0.32950615644E+02  0.12233037412E+03  0.12683773968E+03  0.47000000000E+01 0.  1.
         11    1    6    6    0    0 -0.46518171760E+02 -0.59531042440E+02  0.36521171050E+03  0.37294433741E+03  0.00000000000E+00 0. -1.
        -12    1    6    6    0    0 -0.52749950668E+02 -0.84704511132E+02  0.19176786977E+03  0.21617661154E+03  0.00000000000E+00 0.  1.
</event>
<event>
12    1  0.1348628E-002  0.1814258E+03  0.7818608E-02  0.1166430E+00
         -1   -1    0    0    0  501 -0.00000000000E+00  0.00000000000E+00  0.61032173492E+02  0.61032173492E+02  0.00000000000E+00 0.  1.
          1   -1    0    0  502    0  0.00000000000E+00 -0.00000000000E+00 -0.56665869832E+03  0.56665869832E+03  0.00000000000E+00 0. -1.
          6    2    1    2  502    0  0.37010363126E+02 -0.42989641618E+02 -0.32203781748E+03  0.36972948718E+03  0.17255046083E+03 0.  0.
         24    2    3    3    0    0  0.38177192025E+02 -0.38867121358E+02 -0.75186051375E+02  0.12279580965E+03  0.80359924302E+02 0.  0.
         -6    2    1    2    0  501 -0.37010363126E+02  0.42989641618E+02 -0.18358870735E+03  0.25796138464E+03  0.17210864660E+03 0.  0.
        -24    2    5    5    0    0  0.29748519111E+02 -0.63409128369E+01 -0.14072984131E+03  0.16442409604E+03  0.79405374875E+02 0.  0.
          5    1    3    3  502    0 -0.11668288989E+01 -0.41225202599E+01 -0.24685176611E+03  0.24693367752E+03  0.47000000000E+01 0. -1.
        -13    1    4    4    0    0 -0.21928499024E+02 -0.22926009837E+02 -0.40980031423E+02  0.51824935812E+02  0.00000000000E+00 0.  1.
         14    1    4    4    0    0  0.60105691049E+02 -0.15941111522E+02 -0.34206019952E+02  0.70970873843E+02  0.00000000000E+00 0. -1.
         -5    1    5    5    0  501 -0.66758882238E+02  0.49330554455E+02 -0.42858866039E+02  0.93537288600E+02  0.47000000000E+01 0.  1.
         13    1    6    6    0    0  0.25459841579E+02  0.31814383772E+02 -0.10222677718E+03  0.11004850077E+03  0.00000000000E+00 0. -1.
        -14    1    6    6    0    0  0.42886775317E+01 -0.38155296608E+02 -0.38503064129E+02  0.54375595276E+02  0.00000000000E+00 0.  1.
</event>
<event>
12    1  0.1348628E-002  0.1839256E+03  0.7818608E-02  0.1164057E+00
         -1   -1    0    0    0  501 -0.00000000000E+00  0.00000000000E+00  0.75933256443E+03  0.75933256443E+03  0.00000000000E+00 0.  1.
          1   -1    0    0  502    0  0.00000000000E+00 -0.00000000000E+00 -0.59565855269E+02  0.59565855269E+02  0.00000000000E+00 0. -1.
          6    2    1    2  502    0 -0.67959483213E+02  0.32705574158E+02  0.13912491348E+03  0.22766455624E+03  0.16366814802E+03 0.  0.
         24    2    3    3    0    0  0.85158053616E+01 -0.90427510321E+00  0.10896310409E+03  0.13872684503E+03  0.85433265317E+02 0.  0.
         -6    2    1    2    0  501  0.67959483213E+02 -0.32705574158E+02  0.56064179568E+03  0.59123386346E+03  0.17190146102E+03 0.  0.
        -24    2    5    5    0    0 -0.13638340705E+02  0.23926786128E+02  0.28959106894E+03  0.30251944476E+03  0.83045359989E+02 0.  0.
          5    1    3    3  502    0 -0.76475288575E+02  0.33609849261E+02  0.30161809385E+02  0.88937711211E+02  0.47000000000E+01 0. -1.
        -13    1    4    4    0    0  0.35089262036E+01 -0.23772179665E+02  0.11251225836E+03  0.11504971695E+03  0.00000000000E+00 0.  1.
         14    1    4    4    0    0  0.50068791580E+01  0.22867904562E+02 -0.35491542651E+01  0.23677128077E+02  0.00000000000E+00 0. -1.
         -5    1    5    5    0  501  0.81597823918E+02 -0.56632360286E+02  0.27105072674E+03  0.28871441870E+03  0.47000000000E+01 0.  1.
         13    1    6    6    0    0 -0.97938957512E+01  0.95116065336E+01  0.11588076869E+01  0.13701601661E+02  0.00000000000E+00 0. -1.
        -14    1    6    6    0    0 -0.38444449538E+01  0.14415179595E+02  0.28843226126E+03  0.28881784310E+03  0.00000000000E+00 0.  1.
</event>
<event>
12    1  0.1348628E-002  0.2004291E+03  0.7818608E-02  0.1149378E+00
          1   -1    0    0  502    0  0.00000000000E+00  0.00000000000E+00  0.64635297986E+02  0.64635297986E+02  0.00000000000E+00 0.  1.
         -1   -1    0    0    0  501 -0.00000000000E+00 -0.00000000000E+00 -0.68055531248E+03  0.68055531248E+03  0.00000000000E+00 0. -1.
          6    2    1    2  502    0  0.29002229117E+02 -0.94763255995E+02 -0.20100704373E+03  0.28524296629E+03  0.17646108412E+03 0.  0.
         24    2    3    3    0    0  0.14907254595E+02  0.92709110221E+01 -0.37168943404E+02  0.90597675227E+02  0.80735570674E+02 0.  0.
         -6    2    1    2    0  501 -0.29002229117E+02  0.94763255995E+02 -0.41491297076E+03  0.45994764417E+03  0.17198214470E+03 0.  0.
        -24    2    5    5    0    0 -0.54548255710E+02  0.49811541277E+01 -0.15641225594E+03  0.18506924406E+03  0.82374190064E+02 0.  0.
          5    1    3    3  502    0  0.14094974522E+02 -0.10403416702E+03 -0.16383810033E+03  0.19464529106E+03  0.47000000000E+01 0. -1.
        -13    1    4    4    0    0 -0.16994018493E+02 -0.24375722134E+02 -0.32438432647E+02  0.43991185557E+02  0.00000000000E+00 0.  1.
         14    1    4    4    0    0  0.31901273088E+02  0.33646633156E+02 -0.47305107570E+01  0.46606489670E+02  0.00000000000E+00 0. -1.
         -5    1    5    5    0  501  0.25546026593E+02  0.89782101867E+02 -0.25850071482E+03  0.27487840012E+03  0.47000000000E+01 0.  1.
         13    1    6    6    0    0 -0.49756573323E+02  0.24844990281E+02 -0.15489823434E+03  0.16457962551E+03  0.00000000000E+00 0. -1.
        -14    1    6    6    0    0 -0.47916823877E+01 -0.19863836154E+02 -0.15140216048E+01  0.20489618549E+02  0.00000000000E+00 0.  1.
</event>
<event>
12    1  0.1348628E-002  0.1812278E+03  0.7818608E-02  0.1166620E+00
          2   -1    0    0  502    0  0.00000000000E+00  0.00000000000E+00  0.10908381296E+04  0.10908381296E+04  0.00000000000E+00 0. -1.
         -2   -1    0    0    0  501 -0.00000000000E+00 -0.00000000000E+00 -0.94606714610E+02  0.94606714610E+02  0.00000000000E+00 0.  1.
          6    2    1    2  502    0 -0.18831664215E+02  0.52964696699E+02  0.92144895418E+01  0.18203038598E+03  0.17288800979E+03 0.  0.
         24    2    3    3    0    0 -0.16669250865E+02 -0.41227944910E+02 -0.11304431537E+01  0.87130241631E+02  0.74918580732E+02 0.  0.
         -6    2    1    2    0  501  0.18831664215E+02 -0.52964696699E+02  0.98701692547E+03  0.10034144583E+04  0.17169237954E+03 0.  0.
        -24    2    5    5    0    0 -0.13630301473E+02 -0.34652318814E+02  0.93398125790E+03  0.93842219383E+03  0.83238545456E+02 0.  0.
          5    1    3    3  502    0 -0.21624133504E+01  0.94192641609E+02  0.10344932696E+02  0.94900144348E+02  0.47000000000E+01 0. -1.
        -13    1    4    4    0    0 -0.62214979872E+00 -0.43416785437E+02 -0.30863409582E+02  0.53272454224E+02  0.00000000000E+00 0.  1.
         14    1    4    4    0    0 -0.16047101066E+02  0.21888405265E+01  0.29732966428E+02  0.33857787407E+02  0.00000000000E+00 0. -1.
         -5    1    5    5    0  501  0.32461965688E+02 -0.18312377885E+02  0.53035667578E+02  0.64992264429E+02  0.47000000000E+01 0.  1.
         11    1    6    6    0    0  0.34564941603E+02 -0.23192520637E+02  0.43720424633E+03  0.43918126237E+03  0.00000000000E+00 0. -1.
        -12    1    6    6    0    0 -0.48195243076E+02 -0.11459798177E+02  0.49677701156E+03  0.49924093146E+03  0.00000000000E+00 0.  1.
</event>
<event>
12    1  0.1348628E-002  0.2185202E+03  0.7818608E-02  0.1134991E+00
          1   -1    0    0  502    0  0.00000000000E+00  0.00000000000E+00  0.10201859531E+04  0.10201859531E+04  0.00000000000E+00 0. -1.
         -1   -1    0    0    0  501 -0.00000000000E+00 -0.00000000000E+00 -0.47608058627E+02  0.47608058627E+02  0.00000000000E+00 0.  1.
          6    2    1    2  502    0 -0.36910948534E+02  0.12999135063E+03  0.55791545886E+03  0.59958360066E+03  0.17312037888E+03 0.  0.
         24    2    3    3    0    0 -0.28372418721E+02  0.74366390129E+02  0.15047579557E+03  0.18824892920E+03  0.80370020331E+02 0.  0.
         -6    2    1    2    0  501  0.36910948534E+02 -0.12999135063E+03  0.41466243557E+03  0.46821041103E+03  0.17034049478E+03 0.  0.
        -24    2    5    5    0    0 -0.20373262193E+02 -0.13349371677E+02  0.12743038138E+03  0.15291503363E+03  0.80939668118E+02 0.  0.
          5    1    3    3  502    0 -0.85385298134E+01  0.55624960497E+02  0.40743966329E+03  0.41133467145E+03  0.47000000000E+01 0. -1.
        -13    1    4    4    0    0  0.19041760443E+02  0.38695587464E+02  0.26007982003E+02  0.50362210613E+02  0.00000000000E+00 0.  1.
         14    1    4    4    0    0 -0.47414179164E+02  0.35670802664E+02  0.12446781357E+03  0.13788671859E+03  0.00000000000E+00 0. -1.
         -5    1    5    5    0  501  0.57284210728E+02 -0.11664197895E+03  0.28723205420E+03  0.31529537740E+03  0.47000000000E+01 0.  1.
         13    1    6    6    0    0 -0.23001970697E+02 -0.75955264555E+01  0.13826390443E+03  0.14036983275E+03  0.00000000000E+00 0. -1.
        -14    1    6    6    0    0  0.26287085038E+01 -0.57538452212E+01 -0.10833523055E+02  0.12545200876E+02  0.00000000000E+00 0.  1.
</event>
<event>
12    1  0.1348628E-002  0.1980738E+03  0.7818608E-02  0.1151374E+00
         -2   -1    0    0    0  501 -0.00000000000E+00  0.00000000000E+00  0.95573296313E+02  0.95573296313E+02  0.00000000000E+00 0.  1.
          2   -1    0    0  502    0  0.00000000000E+00 -0.00000000000E+00 -0.63616559121E+03  0.63616559121E+03  0.00000000000E+00 0. -1.
          6    2    1    2  502    0 -0.15297377518E+02  0.93304795032E+02 -0.54002240525E+02  0.20705391619E+03  0.17611157740E+03 0.  0.
         24    2    3    3    0    0 -0.24467217017E+02 -0.18172197958E+00  0.21900981711E+02  0.86193649913E+02  0.79693252876E+02 0.  0.
         -6    2    1    2    0  501  0.15297377518E+02 -0.93304795032E+02 -0.48659005437E+03  0.52468497133E+03  0.17200187089E+03 0.  0.
        -24    2    5    5    0    0  0.18858164555E+02 -0.76040232817E+02 -0.49329269039E+03  0.50524893154E+03  0.76164670623E+02 0.  0.
          5    1    3    3  502    0  0.91698394987E+01  0.93486517012E+02 -0.75903222236E+02  0.12086026628E+03  0.47000000000E+01 0. -1.
        -13    1    4    4    0    0 -0.50870387506E+02  0.12518802390E+02  0.22188405419E+02  0.56893251562E+02  0.00000000000E+00 0.  1.
         14    1    4    4    0    0  0.26403170489E+02 -0.12700524369E+02 -0.28742370836E+00  0.29300398351E+02  0.00000000000E+00 0. -1.
         -5    1    5    5    0  501 -0.35607870365E+01 -0.17264562215E+02  0.67026360259E+01  0.19436039784E+02  0.47000000000E+01 0.  1.
         11    1    6    6    0    0 -0.19724603657E+02 -0.66222848995E+02 -0.29294455831E+03  0.30098345463E+03  0.00000000000E+00 0. -1.
        -12    1    6    6    0    0  0.38582768212E+02 -0.98173838223E+01 -0.20034813208E+03  0.20426547691E+03  0.00000000000E+00 0.  1.
</event>
<event>
12    1  0.1348628E-002  0.2022372E+03  0.7818608E-02  0.1147865E+00
         -2   -1    0    0    0  501 -0.00000000000E+00  0.00000000000E+00  0.12685640138E+03  0.12685640138E+03  0.00000000000E+00 0.  1.
          2   -1    0    0  502    0  0.00000000000E+00 -0.00000000000E+00 -0.33075896543E+03  0.33075896543E+03  0.00000000000E+00 0. -1.
          6    2    1    2  502    0 -0.98376807475E+02  0.40434513600E+02 -0.65844761201E+02  0.21315036700E+03  0.17258215503E+03 0.  0.
         24    2    3    3    0    0 -0.12509607478E+03  0.39547598491E+02 -0.12519683351E+02  0.15331425924E+03  0.78329299390E+02 0.  0.
         -6    2    1    2    0  501  0.98376807475E+02 -0.40434513600E+02 -0.13805780284E+03  0.24446499981E+03  0.17143579868E+03 0.  0.
        -24    2    5    5    0    0  0.62888317056E+02 -0.81510498771E+02 -0.13810001502E+03  0.18997865940E+03  0.80133482671E+02 0.  0.
          5    1    3    3  502    0  0.26719267309E+02  0.88691510907E+00 -0.53325077849E+02  0.59836107757E+02  0.47000000000E+01 0. -1.
        -13    1    4    4    0    0 -0.10772737220E+03  0.18514861287E+02 -0.38260046972E+02  0.11580940378E+03  0.00000000000E+00 0.  1.
         14    1    4    4    0    0 -0.17368702579E+02  0.21032737204E+02  0.25740363620E+02  0.37504855457E+02  0.00000000000E+00 0. -1.
         -5    1    5    5    0  501  0.35488490418E+02  0.41075985171E+02  0.42212181966E-01  0.54486340414E+02  0.47000000000E+01 0.  1.
         13    1    6    6    0    0  0.81991824477E+02 -0.67275511122E+02 -0.10544738276E+03  0.14955869821E+03  0.00000000000E+00 0. -1.
        -14    1    6    6    0    0 -0.19103507420E+02 -0.14234987648E+02 -0.32652632260E+02  0.40419961190E+02  0.00000000000E+00 0.  1.
</event>
<event>
12    1  0.1348628E-002  0.2215071E+03  0.7818608E-02  0.1132764E+00
         -2   -1    0    0    0  501 -0.00000000000E+00  0.00000000000E+00  0.30651470291E+02  0.30651470291E+02  0.00000000000E+00 0.  1.
          2   -1    0    0  502    0  0.00000000000E+00 -0.00000000000E+00 -0.18084760476E+04  0.18084760476E+04  0.00000000000E+00 0. -1.
          6    2    1    2  502    0 -0.13838559887E+03 -0.56228340263E+01 -0.57713494449E+03  0.61817021703E+03  0.17282211325E+03 0.  0.
         24    2    3    3    0    0 -0.49240680676E+02 -0.62209625634E+02 -0.34079426347E+03  0.35927276835E+03  0.81495459442E+02 0.  0.
         -6    2    1    2    0  501  0.13838559887E+03  0.56228340263E+01 -0.12006896328E+04  0.12209573008E+04  0.17291311674E+03 0.  0.
        -24    2    5    5    0    0  0.59129984006E+02  0.22942211598E+02 -0.29110951943E+03  0.30775442855E+03  0.77106004371E+02 0.  0.
          5    1    3    3  502    0 -0.89144918196E+02  0.56586791607E+02 -0.23634068102E+03  0.25889744867E+03  0.47000000000E+01 0. -1.
        -11    1    4    4    0    0 -0.60341467134E+02 -0.31006126481E+02 -0.13780170938E+03  0.15359617067E+03  0.00000000000E+00 0.  1.
         12    1    4    4    0    0  0.11100786459E+02 -0.31203499152E+02 -0.20299255409E+03  0.20567659768E+03  0.00000000000E+00 0. -1.
         -5    1    5    5    0  501  0.79255614865E+02 -0.17319377572E+02 -0.90958011336E+03  0.91320287229E+03  0.47000000000E+01 0.  1.
         11    1    6    6    0    0  0.64795128300E+01  0.17105436519E+01 -0.20191331499E+03  0.20202449559E+03  0.00000000000E+00 0. -1.
        -12    1    6    6    0    0  0.52650471176E+02  0.21231667946E+02 -0.89196204432E+02  0.10572993296E+03  0.00000000000E+00 0.  1.
</event>
<event>
12    1  0.1348628E-002  0.2206517E+03  0.7818608E-02  0.1133398E+00
         -2   -1    0    0    0  501 -0.00000000000E+00  0.00000000000E+00  0.87027802257E+02  0.87027802257E+02  0.00000000000E+00 0. -1.
          2   -1    0    0  502    0  0.00000000000E+00 -0.00000000000E+00 -0.80654521066E+03  0.80654521066E+03  0.00000000000E+00 0.  1.
          6    2    1    2  502    0 -0.60726505747E+02  0.13001533670E+03 -0.11711395982E+03  0.25338560486E+03  0.17290716842E+03 0.  0.
         24    2    3    3    0    0 -0.81360187964E+01  0.74510491826E+02  0.75093578340E+01  0.10709955486E+03  0.76130913580E+02 0.  0.
         -6    2    1    2    0  501  0.60726505747E+02 -0.13001533670E+03 -0.60240344859E+03  0.64018740806E+03  0.16235241385E+03 0.  0.
        -24    2    5    5    0    0  0.89726839244E+02 -0.14134036474E+03 -0.49860658001E+03  0.53172010639E+03  0.78036821616E+02 0.  0.
          5    1    3    3  502    0 -0.52590486950E+02  0.55504844878E+02 -0.12462331765E+03  0.14628605000E+03  0.47000000000E+01 0. -1.
        -13    1    4    4    0    0 -0.35436766203E+02  0.22903184600E+02  0.21069511884E+02  0.47161897701E+02  0.00000000000E+00 0.  1.
         14    1    4    4    0    0  0.27300747407E+02  0.51607307225E+02 -0.13560154050E+02  0.59937657160E+02  0.00000000000E+00 0. -1.
         -5    1    5    5    0  501 -0.29000333497E+02  0.11325028039E+02 -0.10379686858E+03  0.10846730166E+03  0.47000000000E+01 0.  1.
         13    1    6    6    0    0  0.42670036607E+02 -0.16185229343E+02 -0.18979347061E+03  0.19520311257E+03  0.00000000000E+00 0. -1.
        -14    1    6    6    0    0  0.47056802637E+02 -0.12515513540E+03 -0.30881310940E+03  0.33651699382E+03  0.00000000000E+00 0.  1.
</event>
<event>
12    1  0.1348628E-002  0.3054390E+03  0.7818608E-02  0.1082553E+00
         -2   -1    0    0    0  501 -0.00000000000E+00  0.00000000000E+00  0.37055422722E+02  0.37055422722E+02  0.00000000000E+00 0.  1.
          2   -1    0    0  502    0  0.00000000000E+00 -0.00000000000E+00 -0.25188501839E+04  0.25188501839E+04  0.00000000000E+00 0. -1.
          6    2    1    2  502    0  0.93215179903E+01 -0.25236870706E+03 -0.12138251729E+04  0.12517065599E+04  0.17210725399E+03 0.  0.
         24    2    3    3    0    0 -0.32342548941E+02 -0.49755066284E+02 -0.37792297215E+03  0.39057778844E+03  0.78763118640E+02 0.  0.
         -6    2    1    2    0  501 -0.93215179903E+01  0.25236870706E+03 -0.12679695884E+04  0.13041990467E+04  0.17149758461E+03 0.  0.
        -24    2    5    5    0    0 -0.67135763109E+02  0.19947765201E+03 -0.10018373673E+04  0.10267312113E+04  0.78742144469E+02 0.  0.
          5    1    3    3  502    0  0.41664066931E+02 -0.20261364078E+03 -0.83590220072E+03  0.86112877148E+03  0.47000000000E+01 0. -1.
        -13    1    4    4    0    0 -0.56777742971E+02 -0.44975062163E+02 -0.30639529331E+03  0.31484050578E+03  0.00000000000E+00 0.  1.
         14    1    4    4    0    0  0.24435194030E+02 -0.47800041212E+01 -0.71527678833E+02  0.75737282668E+02  0.00000000000E+00 0. -1.
         -5    1    5    5    0  501  0.57814245118E+02  0.52891055054E+02 -0.26613222102E+03  0.27746783545E+03  0.47000000000E+01 0.  1.
         13    1    6    6    0    0 -0.78032702550E+02  0.15835885518E+03 -0.88387773409E+03  0.90133594098E+03  0.00000000000E+00 0. -1.
        -14    1    6    6    0    0  0.10896939442E+02  0.41118796824E+02 -0.11795963324E+03  0.12539527030E+03  0.00000000000E+00 0.  1.
</event>
<event>
12    1  0.1348628E-002  0.1799228E+03  0.7818608E-02  0.1167878E+00
          2   -1    0    0  502    0  0.00000000000E+00  0.00000000000E+00  0.28287885841E+04  0.28287885841E+04  0.00000000000E+00 0. -1.
         -2   -1    0    0    0  501 -0.00000000000E+00 -0.00000000000E+00 -0.12022579741E+02  0.12022579741E+02  0.00000000000E+00 0.  1.
          6    2    1    2  502    0 -0.51669725729E+02 -0.12026526830E+02  0.10869472749E+04  0.11015209914E+04  0.17052776402E+03 0.  0.
         24    2    3    3    0    0 -0.48077491062E+02  0.81567198463E+01  0.31273722351E+03  0.32702530957E+03  0.82237490852E+02 0.  0.
         -6    2    1    2    0  501  0.51669725729E+02  0.12026526830E+02  0.17298187295E+04  0.17392901724E+04  0.17332936583E+03 0.  0.
        -24    2    5    5    0    0  0.94348815428E+02 -0.16692013192E+02  0.10106401584E+04  0.10182588511E+04  0.79229008217E+02 0.  0.
          5    1    3    3  502    0 -0.35922346668E+01 -0.20183246677E+02  0.77421005136E+03  0.77449568186E+03  0.47000000000E+01 0. -1.
        -11    1    4    4    0    0 -0.55884434722E+02  0.90950980377E+00  0.31129862985E+03  0.31627635732E+03  0.00000000000E+00 0.  1.
         12    1    4    4    0    0  0.78069436601E+01  0.72472100426E+01  0.14385936627E+01  0.10748952248E+02  0.00000000000E+00 0. -1.
         -5    1    5    5    0  501 -0.42679089699E+02  0.28718540022E+02  0.71917857107E+03  0.72103132132E+03  0.47000000000E+01 0.  1.
         13    1    6    6    0    0  0.58020974455E+02 -0.33549150043E+02  0.85235100498E+03  0.85498199667E+03  0.00000000000E+00 0. -1.
        -14    1    6    6    0    0  0.36327840973E+02  0.16857136851E+02  0.15828915342E+03  0.16327685440E+03  0.00000000000E+00 0.  1.
</event>
<event>
12    1  0.1348628E-002  0.2253089E+03  0.7818608E-02  0.1129986E+00
         -2   -1    0    0    0  501 -0.00000000000E+00  0.00000000000E+00  0.15492593926E+03  0.15492593926E+03  0.00000000000E+00 0. -1.
          2   -1    0    0  502    0  0.00000000000E+00 -0.00000000000E+00 -0.51613507156E+03  0.51613507156E+03  0.00000000000E+00 0.  1.
          6    2    1    2  502    0  0.53975578273E+01  0.14507654643E+03 -0.38313359373E+03  0.44424943835E+03  0.17172616245E+03 0.  0.
         24    2    3    3    0    0  0.27378337223E+02  0.15712964145E+03 -0.37846255872E+03  0.41831991212E+03  0.79488005069E+02 0.  0.
         -6    2    1    2    0  501 -0.53975578273E+01 -0.14507654643E+03  0.21924461430E+02  0.22681157248E+03  0.17287703563E+03 0.  0.
        -24    2    5    5    0    0 -0.36750852163E+02 -0.53370378993E+02 -0.41063294976E+02  0.11112839449E+03  0.80400891660E+02 0.  0.
          5    1    3    3  502    0 -0.21980779395E+02 -0.12053095016E+02 -0.46710350075E+01  0.25929526227E+02  0.47000000000E+01 0. -1.
        -11    1    4    4    0    0 -0.18951141173E+02  0.99108908990E+02 -0.25517292223E+03  0.27439923803E+03  0.00000000000E+00 0.  1.
         12    1    4    4    0    0  0.46329478395E+02  0.58020732456E+02 -0.12328963649E+03  0.14392067409E+03  0.00000000000E+00 0. -1.
         -5    1    5    5    0  501  0.31353294335E+02 -0.91706167438E+02  0.62987756406E+02  0.11568317799E+03  0.47000000000E+01 0.  1.
         11    1    6    6    0    0 -0.38084315326E-01  0.95920449666E+01  0.15937708901E+02  0.18601595149E+02  0.00000000000E+00 0. -1.
        -12    1    6    6    0    0 -0.36712767847E+02 -0.62962423959E+02 -0.57001003877E+02  0.92526799344E+02  0.00000000000E+00 0.  1.
</event>
<event>
12    1  0.1348628E-002  0.1795875E+03  0.7818608E-02  0.1168203E+00
         -1   -1    0    0    0  501 -0.00000000000E+00  0.00000000000E+00  0.57846319517E+03  0.57846319517E+03  0.00000000000E+00 0. -1.
          1   -1    0    0  502    0  0.00000000000E+00 -0.00000000000E+00 -0.66685396562E+02  0.66685396562E+02  0.00000000000E+00 0.  1.
          6    2    1    2  502    0  0.44304959674E+02 -0.25181600421E+02  0.12537334831E+03  0.21908060578E+03  0.17228114496E+03 0.  0.
         24    2    3    3    0    0  0.81761753045E+02  0.21865127975E+02  0.10173583145E+03  0.15429458702E+03  0.79332037043E+02 0.  0.
         -6    2    1    2    0  501 -0.44304959674E+02  0.25181600421E+02  0.38640445029E+03  0.42606798595E+03  0.17212927409E+03 0.  0.
        -24    2    5    5    0    0 -0.32776581494E+02 -0.27777399029E+02  0.10354868938E+03  0.13802800504E+03  0.80520251558E+02 0.  0.
          5    1    3    3  502    0 -0.37456793371E+02 -0.47046728396E+02  0.23637516866E+02  0.64786018753E+02  0.47000000000E+01 0. -1.
        -13    1    4    4    0    0  0.47336897112E+02 -0.27511644311E+02  0.38113204996E+02  0.66710484902E+02  0.00000000000E+00 0.  1.
         14    1    4    4    0    0  0.34424855933E+02  0.49376772285E+02  0.63622626453E+02  0.87584102120E+02  0.00000000000E+00 0. -1.
         -5    1    5    5    0  501 -0.11528378180E+02  0.52958999450E+02  0.28285576091E+03  0.28803998092E+03  0.47000000000E+01 0.  1.
         11    1    6    6    0    0  0.15852701402E+02 -0.21510943768E+02  0.78592400292E+02  0.83010807894E+02  0.00000000000E+00 0. -1.
        -12    1    6    6    0    0 -0.48629282896E+02 -0.62664552610E+01  0.24956289089E+02  0.55017197144E+02  0.00000000000E+00 0.  1.
</event>
<event>
12    1  0.1348628E-002  0.2798400E+03  0.7818608E-02  0.1095776E+00
         -2   -1    0    0    0  501 -0.00000000000E+00  0.00000000000E+00  0.41594459266E+02  0.41594459266E+02  0.00000000000E+00 0. -1.
          2   -1    0    0  502    0  0.00000000000E+00 -0.00000000000E+00 -0.18869222159E+04  0.18869222159E+04  0.00000000000E+00 0.  1.
          6    2    1    2  502    0 -0.17448946500E+03  0.13677954780E+03 -0.87859257377E+03  0.92221550668E+03  0.17146810778E+03 0.  0.
         24    2    3    3    0    0 -0.37051142224E+02  0.98094568604E+02 -0.51792950982E+03  0.53429057080E+03  0.78867644639E+02 0.  0.
         -6    2    1    2    0  501  0.17448946500E+03 -0.13677954780E+03 -0.96673518288E+03  0.10063011685E+04  0.17002914402E+03 0.  0.
        -24    2    5    5    0    0  0.12711923732E+03 -0.52024492417E+02 -0.38431083316E+03  0.41582037200E+03  0.79661264000E+02 0.  0.
          5    1    3    3  502    0 -0.13743832277E+03  0.38684979196E+02 -0.36066306395E+03  0.38792493588E+03  0.47000000000E+01 0. -1.
        -13    1    4    4    0    0  0.93508509372E+01  0.34260634388E+01 -0.18048889736E+03  0.18076343212E+03  0.00000000000E+00 0.  1.
         14    1    4    4    0    0 -0.46401993161E+02  0.94668505165E+02 -0.33744061247E+03  0.35352713868E+03  0.00000000000E+00 0. -1.
         -5    1    5    5    0  501  0.47370227677E+02 -0.84755055384E+02 -0.58242434973E+03  0.59048079650E+03  0.47000000000E+01 0.  1.
         13    1    6    6    0    0  0.11214768967E+03 -0.10037332150E+02 -0.30031912873E+03  0.32073264788E+03  0.00000000000E+00 0. -1.
        -14    1    6    6    0    0  0.14971547654E+02 -0.41987160267E+02 -0.83991704423E+02  0.95087724120E+02  0.00000000000E+00 0.  1.
</event>
<event>
12    1  0.1348628E-002  0.1844625E+03  0.7818608E-02  0.1163553E+00
          1   -1    0    0  502    0  0.00000000000E+00  0.00000000000E+00  0.28897584765E+03  0.28897584765E+03  0.00000000000E+00 0.  1.
         -1   -1    0    0    0  501 -0.00000000000E+00 -0.00000000000E+00 -0.41450553387E+03  0.41450553387E+03  0.00000000000E+00 0. -1.
          6    2    1    2  502    0 -0.32640747771E+02  0.55157494732E+02  0.23479345838E+03  0.29895810173E+03  0.17360936281E+03 0.  0.
         24    2    3    3    0    0 -0.86486991144E+01  0.23385102193E+02  0.24376873376E+03  0.25787588058E+03  0.80343706816E+02 0.  0.
         -6    2    1    2    0  501  0.32640747771E+02 -0.55157494732E+02 -0.36032314460E+03  0.40452327979E+03  0.17233266584E+03 0.  0.
        -24    2    5    5    0    0  0.73021945702E+02 -0.55773728723E+02 -0.33626191654E+03  0.35727866542E+03  0.78313823050E+02 0.  0.
          5    1    3    3  502    0 -0.23992048656E+02  0.31772392538E+02 -0.89752753886E+01  0.41082221150E+02  0.47000000000E+01 0. -1.
        -11    1    4    4    0    0 -0.16935175638E+02  0.50439915346E+02  0.12635026722E+03  0.13709622628E+03  0.00000000000E+00 0.  1.
         12    1    4    4    0    0  0.82864765235E+01 -0.27054813153E+02  0.11741846654E+03  0.12077965430E+03  0.00000000000E+00 0. -1.
         -5    1    5    5    0  501 -0.40381197931E+02  0.61623399132E+00 -0.24061228061E+02  0.47244614365E+02  0.47000000000E+01 0.  1.
         11    1    6    6    0    0  0.19231619852E+02 -0.32968677708E+02 -0.39912546170E+02  0.55224996639E+02  0.00000000000E+00 0. -1.
        -12    1    6    6    0    0  0.53790325850E+02 -0.22805051015E+02 -0.29634937037E+03  0.30205366878E+03  0.00000000000E+00 0.  1.
</event>
<event>
12    1  0.1348628E-002  0.2049220E+03  0.7818608E-02  0.1145651E+00
          2   -1    0    0  502    0  0.00000000000E+00  0.00000000000E+00  0.11024657806E+04  0.11024657806E+04  0.00000000000E+00 0.  1.
         -2   -1    0    0    0  501 -0.00000000000E+00 -0.00000000000E+00 -0.43169774778E+02  0.43169774778E+02  0.00000000000E+00 0. -1.
          6    2    1    2  502    0  0.89187340831E+02  0.66486964629E+02  0.33128970982E+03  0.38911362755E+03  0.17111880400E+03 0.  0.
         24    2    3    3    0    0  0.64437726094E+02  0.11200241938E+03  0.24539803228E+03  0.28869614739E+03  0.80177981893E+02 0.  0.
         -6    2    1    2    0  501 -0.89187340831E+02 -0.66486964629E+02  0.72800629603E+03  0.75652192786E+03  0.17308195180E+03 0.  0.
        -24    2    5    5    0    0 -0.66814733670E+02  0.28285713285E+02  0.37801230799E+03  0.39320350595E+03  0.80320619336E+02 0.  0.
          5    1    3    3  502    0  0.24749614737E+02 -0.45515454751E+02  0.85891677538E+02  0.10041748016E+03  0.47000000000E+01 0. -1.
        -13    1    4    4    0    0  0.26136055582E+02 -0.15978591844E+01  0.81706251100E+02  0.85799522284E+02  0.00000000000E+00 0.  1.
         14    1    4    4    0    0  0.38301670512E+02  0.11360027856E+03  0.16369178118E+03  0.20289662511E+03  0.00000000000E+00 0. -1.
         -5    1    5    5    0  501 -0.22372607161E+02 -0.94772677914E+02  0.34999398804E+03  0.36331842190E+03  0.47000000000E+01 0.  1.
         13    1    6    6    0    0  0.15953682014E+02  0.15617305791E+02  0.11627883583E+03  0.11840265146E+03  0.00000000000E+00 0. -1.
        -14    1    6    6    0    0 -0.82768415683E+02  0.12668407494E+02  0.26173347216E+03  0.27480085450E+03  0.00000000000E+00 0.  1.
</event>
<event>
12    1  0.1348628E-002  0.2547155E+03  0.7818608E-02  0.1110360E+00
          2   -1    0    0  502    0  0.00000000000E+00  0.00000000000E+00  0.40303555006E+03  0.40303555006E+03  0.00000000000E+00 0.  1.
         -2   -1    0    0    0  501 -0.00000000000E+00 -0.00000000000E+00 -0.18496870274E+03  0.18496870274E+03  0.00000000000E+00 0. -1.
          6    2    1    2  502    0  0.64977437669E+02  0.17740942579E+03  0.27080796721E+01  0.25351657529E+03  0.16901818980E+03 0.  0.
         24    2    3    3    0    0  0.29118549177E+02  0.37098374484E+02  0.45854943464E+02  0.10233194360E+03  0.78389868898E+02 0.  0.
         -6    2    1    2    0  501 -0.64977437669E+02 -0.17740942579E+03  0.21535876764E+03  0.33448767751E+03  0.17264540491E+03 0.  0.
        -24    2    5    5    0    0 -0.68387395004E+02 -0.72855877699E+02  0.51869829790E+02  0.14033877839E+03  0.83783523244E+02 0.  0.
          5    1    3    3  502    0  0.35858888492E+02  0.14031105131E+03 -0.43146863791E+02  0.15118463169E+03  0.47000000000E+01 0. -1.
        -13    1    4    4    0    0 -0.17789272850E+01  0.51537041978E+02  0.44640558233E+02  0.68205650188E+02  0.00000000000E+00 0.  1.
         14    1    4    4    0    0  0.30897476462E+02 -0.14438667494E+02  0.12143852301E+01  0.34126293415E+02  0.00000000000E+00 0. -1.
         -5    1    5    5    0  501  0.34099573350E+01 -0.10455354809E+03  0.16348893785E+03  0.19414889912E+03  0.47000000000E+01 0.  1.
         13    1    6    6    0    0 -0.21915399537E+00 -0.72982077955E+01  0.44917501944E+02  0.45507074685E+02  0.00000000000E+00 0. -1.
        -14    1    6    6    0    0 -0.68168241009E+02 -0.65557669904E+02  0.69523278461E+01  0.94831703707E+02  0.00000000000E+00 0.  1.
</event>
<event>
12    1  0.1348628E-002  0.1749648E+03  0.7818608E-02  0.1172767E+00
         -2   -1    0    0    0  501 -0.00000000000E+00  0.00000000000E+00  0.11086668095E+03  0.11086668095E+03  0.00000000000E+00 0.  1.
          2   -1    0    0  502    0  0.00000000000E+00 -0.00000000000E+00 -0.32517731448E+03  0.32517731448E+03  0.00000000000E+00 0. -1.
          6    2    1    2  502    0 -0.23965306202E+02 -0.67374556001E+01 -0.22879474827E+02  0.17721826717E+03  0.17396296917E+03 0.  0.
         24    2    3    3    0    0 -0.46889267024E+02  0.29238523881E+01 -0.59649018254E+02  0.13257593103E+03  0.10867943612E+03 0.  0.
         -6    2    1    2    0  501  0.23965306202E+02  0.67374556001E+01 -0.19143115871E+03  0.25882572826E+03  0.17240980214E+03 0.  0.
        -24    2    5    5    0    0 -0.20052225795E+02  0.26463107319E+02 -0.19190191854E+03  0.21035969816E+03  0.79513951366E+02 0.  0.
          5    1    3    3  502    0  0.22923960822E+02 -0.96613079882E+01  0.36769543427E+02  0.44642336136E+02  0.47000000000E+01 0. -1.
        -11    1    4    4    0    0  0.35370746438E+00 -0.46925816580E+01  0.30314314330E+02  0.30677403490E+02  0.00000000000E+00 0.  1.
         12    1    4    4    0    0 -0.47242974489E+02  0.76164340461E+01 -0.89963332584E+02  0.10189852754E+03  0.00000000000E+00 0. -1.
         -5    1    5    5    0  501  0.44017531998E+02 -0.19725651719E+02  0.47075983225E+00  0.48466030101E+02  0.47000000000E+01 0.  1.
         13    1    6    6    0    0 -0.53897936145E+00  0.52400989803E+02 -0.10007999945E+03  0.11296973276E+03  0.00000000000E+00 0. -1.
        -14    1    6    6    0    0 -0.19513246434E+02 -0.25937882484E+02 -0.91821919088E+02  0.97389965392E+02  0.00000000000E+00 0.  1.
</event>
<event>
12    1  0.1348628E-002  0.2399840E+03  0.7818608E-02  0.1119803E+00
         -2   -1    0    0    0  501 -0.00000000000E+00  0.00000000000E+00  0.26641340368E+02  0.26641340368E+02  0.00000000000E+00 0.  1.
          2   -1    0    0  502    0  0.00000000000E+00 -0.00000000000E+00 -0.24849148193E+04  0.24849148193E+04  0.00000000000E+00 0. -1.
          6    2    1    2  502    0 -0.16220875294E+03  0.41539939330E+02 -0.16779984102E+04  0.16949468935E+04  0.17067237926E+03 0.  0.
         24    2    3    3    0    0 -0.16528582814E+03 -0.22296852967E+01 -0.11755610154E+04  0.11905753300E+04  0.90562347843E+02 0.  0.
         -6    2    1    2    0  501  0.16220875294E+03 -0.41539939330E+02 -0.78027506875E+03  0.81660926619E+03  0.17315965070E+03 0.  0.
        -24    2    5    5    0    0  0.87653860053E+02  0.37098714607E+02 -0.51554062560E+03  0.53051682425E+03  0.81280073583E+02 0.  0.
          5    1    3    3  502    0  0.30770752025E+01  0.43769624626E+02 -0.50243739473E+03  0.50437156348E+03  0.47000000000E+01 0. -1.
        -13    1    4    4    0    0 -0.22902142794E+02  0.20588614632E+02 -0.82810403270E+02  0.88351355885E+02  0.00000000000E+00 0.  1.
         14    1    4    4    0    0 -0.14238368535E+03 -0.22818299929E+02 -0.10927506122E+04  0.11022239741E+04  0.00000000000E+00 0. -1.
         -5    1    5    5    0  501  0.74554892884E+02 -0.78638653937E+02 -0.26473444315E+03  0.28609244194E+03  0.47000000000E+01 0.  1.
         11    1    6    6    0    0  0.55105130430E+02 -0.56509597919E+01 -0.39066070031E+03  0.39456848773E+03  0.00000000000E+00 0. -1.
        -12    1    6    6    0    0  0.32548729623E+02  0.42749674399E+02 -0.12487992530E+03  0.13594833652E+03  0.00000000000E+00 0.  1.
</event>
<event>
12    1  0.1348628E-002  0.1729481E+03  0.7818608E-02  0.1174808E+00
          2   -1    0    0  502    0  0.00000000000E+00  0.00000000000E+00  0.10033128716E+04  0.10033128716E+04  0.00000000000E+00 0. -1.
         -2   -1    0    0    0  501 -0.00000000000E+00 -0.00000000000E+00 -0.37665321917E+02  0.37665321917E+02  0.00000000000E+00 0.  1.
          6    2    1    2  502    0  0.25988332275E+01  0.28561585030E+02  0.71636664847E+03  0.73652143103E+03  0.16870129003E+03 0.  0.
         24    2    3    3    0    0 -0.23995045940E+02  0.32694263108E+02  0.69761599476E+03  0.70338549206E+03  0.80239623734E+02 0.  0.
         -6    2    1    2    0  501 -0.25988332275E+01 -0.28561585030E+02  0.24928090126E+03  0.30445676253E+03  0.17242515607E+03 0.  0.
        -24    2    5    5    0    0  0.49339873246E+02 -0.52378132064E+02  0.10559171085E+03  0.14975210654E+03  0.78090922673E+02 0.  0.
          5    1    3    3  502    0  0.26593879167E+02 -0.41326780777E+01  0.18750653703E+02  0.33135938972E+02  0.47000000000E+01 0. -1.
        -11    1    4    4    0    0 -0.15580572324E+02 -0.42033330414E+01  0.25321564827E+02  0.30026719566E+02  0.00000000000E+00 0.  1.
         12    1    4    4    0    0 -0.84144736159E+01  0.36897596149E+02  0.67229442993E+03  0.67335877249E+03  0.00000000000E+00 0. -1.
         -5    1    5    5    0  501 -0.51938706474E+02  0.23816547034E+02  0.14368919042E+03  0.15470465599E+03  0.47000000000E+01 0.  1.
         13    1    6    6    0    0  0.16932165755E+02 -0.16335128735E+01  0.84127950121E+02  0.85830522502E+02  0.00000000000E+00 0. -1.
        -14    1    6    6    0    0  0.32407707492E+02 -0.50744619191E+02  0.21463760725E+02  0.63921584040E+02  0.00000000000E+00 0.  1.
</event>
<event>
12    1  0.1348628E-002  0.1807052E+03  0.7818608E-02  0.1167122E+00
          1   -1    0    0  502    0  0.00000000000E+00  0.00000000000E+00  0.90811181931E+03  0.90811181931E+03  0.00000000000E+00 0.  1.
         -1   -1    0    0    0  501 -0.00000000000E+00 -0.00000000000E+00 -0.36090828211E+02  0.36090828211E+02  0.00000000000E+00 0. -1.
          6    2    1    2  502    0  0.18686468944E+02 -0.37759772753E+02  0.47487519023E+03  0.51077916185E+03  0.18334099739E+03 0.  0.
         24    2    3    3    0    0  0.54493552084E+02  0.20708235549E+02  0.38542700037E+03  0.39797967662E+03  0.80221394614E+02 0.  0.
         -6    2    1    2    0  501 -0.18686468944E+02  0.37759772753E+02  0.39714580087E+03  0.43342348567E+03  0.16839283305E+03 0.  0.
        -24    2    5    5    0    0 -0.26529409318E+02  0.52776646266E+01  0.88790432110E+02  0.12322722118E+03  0.81052722981E+02 0.  0.
          5    1    3    3  502    0 -0.35807083140E+02 -0.58468008302E+02  0.89448189860E+02  0.11279948522E+03  0.47000000000E+01 0. -1.
        -13    1    4    4    0    0  0.14129840033E+02 -0.24465881722E+02  0.52826696811E+02  0.59907358844E+02  0.00000000000E+00 0.  1.
         14    1    4    4    0    0  0.40363712051E+02  0.45174117270E+02  0.33260030356E+03  0.33807231778E+03  0.00000000000E+00 0. -1.
         -5    1    5    5    0  501  0.78429403731E+01  0.32482108127E+02  0.30835536876E+03  0.31019626449E+03  0.47000000000E+01 0.  1.
         13    1    6    6    0    0  0.28861612170E+01 -0.23372917125E+02 -0.19471866108E+01  0.23630800181E+02  0.00000000000E+00 0. -1.
        -14    1    6    6    0    0 -0.29415570535E+02  0.28650581751E+02  0.90737618721E+02  0.99596420998E+02  0.00000000000E+00 0.  1.
</event>
<event>
12    1  0.1348628E-002  0.1860619E+03  0.7818608E-02  0.1162062E+00
          1   -1    0    0  502    0  0.00000000000E+00  0.00000000000E+00  0.15420609764E+03  0.15420609764E+03  0.00000000000E+00 0. -1.
         -1   -1    0    0    0  501 -0.00000000000E+00 -0.00000000000E+00 -0.12331260486E+04  0.12331260486E+04  0.00000000000E+00 0.  1.
          6    2    1    2  502    0  0.67381362608E+02 -0.24401313667E+02 -0.11662051891E+04  0.11807755501E+04  0.17047194605E+03 0.  0.
         24    2    3    3    0    0  0.81850055466E+02 -0.54382953541E+02 -0.10884934756E+04  0.10961029912E+04  0.83467261602E+02 0.  0.
         -6    2    1    2    0  501 -0.67381362608E+02  0.24401313667E+02  0.87285238153E+02  0.20655659616E+03  0.17294867008E+03 0.  0.
        -24    2    5    5    0    0 -0.90400398904E+02  0.24251884256E+02  0.72521631694E+01  0.12314627634E+03  0.79699595321E+02 0.  0.
          5    1    3    3  502    0 -0.14468692858E+02  0.29981639874E+02 -0.77711713561E+02  0.84672558879E+02  0.47000000000E+01 0. -1.
        -13    1    4    4    0    0  0.40502871697E+02  0.94835793024E+01 -0.19562814163E+03  0.20000197671E+03  0.00000000000E+00 0.  1.
         14    1    4    4    0    0  0.41347183769E+02 -0.63866532843E+02 -0.89286533393E+03  0.89610101448E+03  0.00000000000E+00 0. -1.
         -5    1    5    5    0  501  0.23019036296E+02  0.14942941033E+00  0.80033074984E+02  0.83410319820E+02  0.47000000000E+01 0.  1.
         13    1    6    6    0    0 -0.60828487300E+02  0.18610026810E+01  0.40690056173E+02  0.73206890861E+02  0.00000000000E+00 0. -1.
        -14    1    6    6    0    0 -0.29571911604E+02  0.22390881575E+02 -0.33437893004E+02  0.49939385481E+02  0.00000000000E+00 0.  1.
</event>
<event>
12    1  0.1348628E-002  0.1849046E+03  0.7818608E-02  0.1163139E+00
         -3   -1    0    0    0  501 -0.00000000000E+00  0.00000000000E+00  0.36255551905E+02  0.36255551905E+02  0.00000000000E+00 0.  1.
          3   -1    0    0  502    0  0.00000000000E+00 -0.00000000000E+00 -0.95271639797E+03  0.95271639797E+03  0.00000000000E+00 0. -1.
          6    2    1    2  502    0  0.26943170761E+02 -0.56994810034E+02 -0.51220768998E+03  0.54516323906E+03  0.17570400315E+03 0.  0.
         24    2    3    3    0    0  0.14009654455E+02 -0.19551691394E+02 -0.49490751269E+03  0.50168164396E+03  0.78565175008E+02 0.  0.
         -6    2    1    2    0  501 -0.26943170761E+02  0.56994810034E+02 -0.40425315609E+03  0.44380871082E+03  0.17196282962E+03 0.  0.
        -24    2    5    5    0    0  0.26245779134E+02  0.84675421813E+02 -0.23266323664E+03  0.26198332448E+03  0.81512653273E+02 0.  0.
          5    1    3    3  502    0  0.12933516306E+02 -0.37443118640E+02 -0.17300177297E+02  0.43481595095E+02  0.47000000000E+01 0. -1.
        -13    1    4    4    0    0  0.46008785295E+02 -0.86963227005E+01 -0.33385738345E+03  0.33712488315E+03  0.00000000000E+00 0.  1.
         14    1    4    4    0    0 -0.31999130840E+02 -0.10855368693E+02 -0.16105012923E+03  0.16455676081E+03  0.00000000000E+00 0. -1.
         -5    1    5    5    0  501 -0.53188949895E+02 -0.27680611780E+02 -0.17158991945E+03  0.18182538634E+03  0.47000000000E+01 0.  1.
         11    1    6    6    0    0  0.13265817476E+01 -0.80194487473E+01 -0.87986332629E+02  0.88360998788E+02  0.00000000000E+00 0. -1.
        -12    1    6    6    0    0  0.24919197386E+02  0.92694870560E+02 -0.14467690401E+03  0.17362232569E+03  0.00000000000E+00 0.  1.
</event>
<event>
12    1  0.1348628E-002  0.1910819E+03  0.7818608E-02  0.1157489E+00
          3   -1    0    0  502    0  0.00000000000E+00  0.00000000000E+00  0.19091874833E+03  0.19091874833E+03  0.00000000000E+00 0.  1.
         -3   -1    0    0    0  501 -0.00000000000E+00 -0.00000000000E+00 -0.20450203899E+03  0.20450203899E+03  0.00000000000E+00 0. -1.
          6    2    1    2  502    0  0.16745667038E+02  0.87460257619E+02 -0.57041447246E+02  0.19777025487E+03  0.16712161135E+03 0.  0.
         24    2    3    3    0    0  0.53799515175E+02  0.64313822453E+02 -0.87060558748E+02  0.14455388354E+03  0.79281957371E+02 0.  0.
         -6    2    1    2    0  501 -0.16745667038E+02 -0.87460257619E+02  0.43458156583E+02  0.19765053244E+03  0.17101873457E+03 0.  0.
        -24    2    5    5    0    0  0.81431519013E+01 -0.22570383521E+02 -0.36443887550E+02  0.91647816794E+02  0.80594244510E+02 0.  0.
          5    1    3    3  502    0 -0.37053848137E+02  0.23146435166E+02  0.30019111503E+02  0.53216371335E+02  0.47000000000E+01 0. -1.
        -13    1    4    4    0    0  0.40856597110E+02 -0.69267735758E+01 -0.20632831137E+02  0.46292066711E+02  0.00000000000E+00 0.  1.
         14    1    4    4    0    0  0.12942918065E+02  0.71240596028E+02 -0.66427727611E+02  0.98261816827E+02  0.00000000000E+00 0. -1.
         -5    1    5    5    0  501 -0.24888818940E+02 -0.64889874098E+02  0.79902044134E+02  0.10600271565E+03  0.47000000000E+01 0.  1.
         11    1    6    6    0    0  0.43211635536E+02 -0.13553955578E+02 -0.31355790871E+02  0.55083035307E+02  0.00000000000E+00 0. -1.
        -12    1    6    6    0    0 -0.35068483635E+02 -0.90164279428E+01 -0.50880966796E+01  0.36564781486E+02  0.00000000000E+00 0.  1.
</event>
<event>
12    1  0.1348628E-002  0.1737661E+03  0.7818608E-02  0.1173976E+00
         -4   -1    0    0    0  501 -0.00000000000E+00  0.00000000000E+00  0.15760410872E+03  0.15760410872E+03  0.00000000000E+00 0. -1.
          4   -1    0    0  502    0  0.00000000000E+00 -0.00000000000E+00 -0.21879460400E+03  0.21879460400E+03  0.00000000000E+00 0.  1.
          6    2    1    2  502    0  0.15162938876E+02  0.17949359189E+02 -0.96705041351E+02  0.19752549727E+03  0.17062345337E+03 0.  0.
         24    2    3    3    0    0 -0.17126630818E+02 -0.50711364370E+01 -0.12444345115E+03  0.14890380553E+03  0.79794315961E+02 0.  0.
         -6    2    1    2    0  501 -0.15162938876E+02 -0.17949359189E+02  0.35514546066E+02  0.17887321545E+03  0.17373039461E+03 0.  0.
        -24    2    5    5    0    0 -0.38441765791E+02 -0.67012338156E+02  0.45556372323E+02  0.12344751778E+03  0.84826197393E+02 0.  0.
          5    1    3    3  502    0  0.32289569694E+02  0.23020495626E+02  0.27738409796E+02  0.48621691742E+02  0.47000000000E+01 0. -1.
        -13    1    4    4    0    0  0.10662853828E+02 -0.22014060448E+02 -0.11104429930E+03  0.11370642777E+03  0.00000000000E+00 0.  1.
         14    1    4    4    0    0 -0.27789484645E+02  0.16942924011E+02 -0.13399151847E+02  0.35197377759E+02  0.00000000000E+00 0. -1.
         -5    1    5    5    0  501  0.23278826915E+02  0.49062978967E+02 -0.10041826258E+02  0.55425697670E+02  0.47000000000E+01 0.  1.
         13    1    6    6    0    0 -0.39895935991E+02  0.48215960926E+01  0.38472705022E+01  0.40369976317E+02  0.00000000000E+00 0. -1.
        -14    1    6    6    0    0  0.14541702002E+01 -0.71833934249E+02  0.41709101821E+02  0.83077541462E+02  0.00000000000E+00 0.  1.
</event>
<event>
12    1  0.1348628E-002  0.1848703E+03  0.7818608E-02  0.1163171E+00
         -2   -1    0    0    0  501 -0.00000000000E+00  0.00000000000E+00  0.97248593325E+01  0.97248593325E+01  0.00000000000E+00 0.  1.
          2   -1    0    0  502    0  0.00000000000E+00 -0.00000000000E+00 -0.35674743708E+04  0.35674743708E+04  0.00000000000E+00 0. -1.
          6    2    1    2  502    0 -0.61851903408E+02  0.99473462343E+01 -0.15639717774E+04  0.15749003738E+04  0.17429532144E+03 0.  0.
         24    2    3    3    0    0 -0.33833904483E+02 -0.19528207090E+02 -0.14665724110E+04  0.14692474369E+04  0.79544389595E+02 0.  0.
         -6    2    1    2    0  501  0.61851903408E+02 -0.99473462343E+01 -0.19937777341E+04  0.20022988564E+04  0.17356972594E+03 0.  0.
        -24    2    5    5    0    0  0.48663273256E+02  0.42987423600E+02 -0.70761574937E+03  0.71497186968E+03  0.79048674382E+02 0.  0.
          5    1    3    3  502    0 -0.28017998926E+02  0.29475553324E+02 -0.97399366399E+02  0.10565293693E+03  0.47000000000E+01 0. -1.
        -13    1    4    4    0    0 -0.30249285029E+02 -0.19134156202E+01 -0.17888956166E+03  0.18143912389E+03  0.00000000000E+00 0.  1.
         14    1    4    4    0    0 -0.35846194540E+01 -0.17614791469E+02 -0.12876828494E+04  0.12878083130E+04  0.00000000000E+00 0. -1.
         -5    1    5    5    0  501  0.13188630152E+02 -0.52934769835E+02 -0.12861619847E+04  0.12873269867E+04  0.47000000000E+01 0.  1.
         11    1    6    6    0    0  0.44899014721E+02  0.33594832626E+02 -0.70016228529E+03  0.70240427109E+03  0.00000000000E+00 0. -1.
        -12    1    6    6    0    0  0.37642585346E+01  0.93925909744E+01 -0.74534640853E+01  0.12567598593E+02  0.00000000000E+00 0.  1.
</event>
<event>
12    1  0.1348628E-002  0.2228834E+03  0.7818608E-02  0.1131751E+00
         -1   -1    0    0    0  501 -0.00000000000E+00  0.00000000000E+00  0.53460358428E+02  0.53460358428E+02  0.00000000000E+00 0.  1.
          1   -1    0    0  502    0  0.00000000000E+00 -0.00000000000E+00 -0.95166662848E+03  0.95166662848E+03  0.00000000000E+00 0. -1.
          6    2    1    2  502    0  0.14105147766E+03  0.25033096872E+02 -0.36860367495E+03  0.42985298168E+03  0.16847178215E+03 0.  0.
         24    2    3    3    0    0  0.27728408917E+02 -0.47067619677E+02 -0.14362377778E+03  0.16778681566E+03  0.67382493908E+02 0.  0.
         -6    2    1    2    0  501 -0.14105147766E+03 -0.25033096872E+02 -0.52960259511E+03  0.57527400523E+03  0.17302917980E+03 0.  0.
        -24    2    5    5    0    0 -0.11004440815E+03 -0.49333415114E+02 -0.51199215253E+03  0.53186707590E+03  0.78759536288E+02 0.  0.
          5    1    3    3  502    0  0.11332306875E+03  0.72100716549E+02 -0.22497989717E+03  0.26206616601E+03  0.47000000000E+01 0. -1.
        -13    1    4    4    0    0  0.45233253342E+02 -0.39468293400E+02 -0.72399867760E+02  0.94050700388E+02  0.00000000000E+00 0.  1.
         14    1    4    4    0    0 -0.17504844425E+02 -0.75993262771E+01 -0.71223910016E+02  0.73736115277E+02  0.00000000000E+00 0. -1.
         -5    1    5    5    0  501 -0.31007069517E+02  0.24300318242E+02 -0.17610442573E+02  0.43406929335E+02  0.47000000000E+01 0.  1.
         13    1    6    6    0    0 -0.10954370185E+02 -0.10748461776E+02 -0.22967919163E+03  0.23019135241E+03  0.00000000000E+00 0. -1.
        -14    1    6    6    0    0 -0.99090037961E+02 -0.38584953338E+02 -0.28231296091E+03  0.30167572349E+03  0.00000000000E+00 0.  1.
</event>
<event>
12    1  0.1348628E-002  0.2089351E+03  0.7818608E-02  0.1142412E+00
          2   -1    0    0  502    0  0.00000000000E+00  0.00000000000E+00  0.15990389649E+04  0.15990389649E+04  0.00000000000E+00 0. -1.
         -2   -1    0    0    0  501 -0.00000000000E+00 -0.00000000000E+00 -0.27324981725E+02  0.27324981725E+02  0.00000000000E+00 0.  1.
          6    2    1    2  502    0 -0.11051006322E+03  0.51346578703E+02  0.76705826070E+03  0.79536777719E+03  0.17141347807E+03 0.  0.
         24    2    3    3    0    0 -0.10672812528E+03  0.29837822947E+02  0.32462102112E+03  0.35236695259E+03  0.80637916145E+02 0.  0.
         -6    2    1    2    0  501  0.11051006322E+03 -0.51346578703E+02  0.80465572245E+03  0.83099616942E+03  0.16803230846E+03 0.  0.
        -24    2    5    5    0    0  0.11171385929E+03 -0.80181903541E+02  0.76867872171E+03  0.78463498235E+03  0.76654773515E+02 0.  0.
          5    1    3    3  502    0 -0.37819379409E+01  0.21508755756E+02  0.44243723958E+03  0.44300082460E+03  0.47000000000E+01 0. -1.
        -11    1    4    4    0    0 -0.93827105319E+02  0.12656751732E+02  0.31482631618E+03  0.32875420669E+03  0.00000000000E+00 0.  1.
         12    1    4    4    0    0 -0.12901019963E+02  0.17181071215E+02  0.97947049447E+01  0.23612745905E+02  0.00000000000E+00 0. -1.
         -5    1    5    5    0  501 -0.12037960717E+01  0.28835324838E+02  0.35977000740E+02  0.46361187061E+02  0.47000000000E+01 0.  1.
         13    1    6    6    0    0  0.61090580661E+02  0.14809161738E+01  0.27783223432E+03  0.28447320188E+03  0.00000000000E+00 0. -1.
        -14    1    6    6    0    0  0.50623278634E+02 -0.81662819715E+02  0.49084648739E+03  0.50016178048E+03  0.00000000000E+00 0.  1.
</event>
<event>
12    1  0.1348628E-002  0.2468395E+03  0.7818608E-02  0.1115319E+00
          2   -1    0    0  502    0  0.00000000000E+00  0.00000000000E+00  0.81675664874E+03  0.81675664874E+03  0.00000000000E+00 0. -1.
         -2   -1    0    0    0  501 -0.00000000000E+00 -0.00000000000E+00 -0.77088843028E+02  0.77088843028E+02  0.00000000000E+00 0.  1.
          6    2    1    2  502    0  0.15901380887E+03 -0.78061348070E+02  0.28956020855E+03  0.38050918288E+03  0.17193940331E+03 0.  0.
         24    2    3    3    0    0  0.11314763416E+03 -0.12093629479E+03  0.21600599086E+03  0.28368831747E+03  0.79953104208E+02 0.  0.
         -6    2    1    2    0  501 -0.15901380887E+03  0.78061348070E+02  0.45010759716E+03  0.51333630888E+03  0.17186724970E+03 0.  0.
        -24    2    5    5    0    0 -0.52064677465E+02  0.57239424717E+02  0.34044498194E+03  0.35867652621E+03  0.82213030227E+02 0.  0.
          5    1    3    3  502    0  0.45866174711E+02  0.42874946717E+02  0.73554217689E+02  0.96820865408E+02  0.47000000000E+01 0. -1.
        -13    1    4    4    0    0  0.70705096189E+01  0.81830805760E+01  0.28903426571E+00  0.10818431254E+02  0.00000000000E+00 0.  1.
         14    1    4    4    0    0  0.10607712454E+03 -0.12911937536E+03  0.21571695659E+03  0.27286988622E+03  0.00000000000E+00 0. -1.
         -5    1    5    5    0  501 -0.10694913141E+03  0.20821923353E+02  0.10966261522E+03  0.15465978268E+03  0.47000000000E+01 0.  1.
         11    1    6    6    0    0 -0.58774365841E+02  0.23069439835E+02  0.29356582363E+03  0.30027906676E+03  0.00000000000E+00 0. -1.
        -12    1    6    6    0    0  0.67096883755E+01  0.34169984882E+02  0.46879158318E+02  0.58397459444E+02  0.00000000000E+00 0.  1.
</event>
<event>
12    1  0.1348628E-002  0.1750783E+03  0.7818608E-02  0.1172653E+00
          2   -1    0    0  502    0  0.00000000000E+00  0.00000000000E+00  0.27829456768E+04  0.27829456768E+04  0.00000000000E+00 0.  1.
         -2   -1    0    0    0  501 -0.00000000000E+00 -0.00000000000E+00 -0.12518261690E+02  0.12518261690E+02  0.00000000000E+00 0. -1.
          6    2    1    2  502    0 -0.18408846509E+02  0.14037652907E+02  0.88179788746E+03  0.89847462327E+03  0.17074306135E+03 0.  0.
         24    2    3    3    0    0  0.56262485702E+02  0.18136040504E+02  0.49607726166E+03  0.50554320965E+03  0.77375086634E+02 0.  0.
         -6    2    1    2    0  501  0.18408846509E+02 -0.14037652907E+02  0.18886295277E+04  0.18969893152E+04  0.17638318521E+03 0.  0.
        -24    2    5    5    0    0  0.33983730436E+02  0.54829362329E+02  0.12479213183E+04  0.12523852954E+04  0.83666950743E+02 0.  0.
          5    1    3    3  502    0 -0.74671332211E+02 -0.40983875968E+01  0.38572062581E+03  0.39293141362E+03  0.47000000000E+01 0. -1.
        -11    1    4    4    0    0  0.62056619193E+01 -0.19129504158E+02  0.27761531799E+03  0.27834279756E+03  0.00000000000E+00 0.  1.
         12    1    4    4    0    0  0.50056823783E+02  0.37265544662E+02  0.21846194366E+03  0.22720041209E+03  0.00000000000E+00 0. -1.
         -5    1    5    5    0  501 -0.15574883928E+02 -0.68867015236E+02  0.64070820939E+03  0.64460401983E+03  0.47000000000E+01 0.  1.
         13    1    6    6    0    0 -0.23258043528E+02  0.20398609572E+01  0.16173936434E+03  0.16341578748E+03  0.00000000000E+00 0. -1.
        -14    1    6    6    0    0  0.57241773964E+02  0.52789501372E+02  0.10861819539E+04  0.10889695079E+04  0.00000000000E+00 0.  1.
</event>
<event>
12    1  0.1348628E-002  0.2153965E+03  0.7818608E-02  0.1137362E+00
         -1   -1    0    0    0  501 -0.00000000000E+00  0.00000000000E+00  0.80030138628E+02  0.80030138628E+02  0.00000000000E+00 0.  1.
          1   -1    0    0  502    0  0.00000000000E+00 -0.00000000000E+00 -0.87461683777E+03  0.87461683777E+03  0.00000000000E+00 0. -1.
          6    2    1    2  502    0 -0.12695471643E+02 -0.12720889178E+03 -0.67570357155E+03  0.70951807562E+03  0.17463477854E+03 0.  0.
         24    2    3    3    0    0 -0.19235523533E+02 -0.10613388790E+03 -0.67376876952E+03  0.68687383737E+03  0.78720430290E+02 0.  0.
         -6    2    1    2    0  501  0.12695471643E+02  0.12720889178E+03 -0.11888312759E+03  0.24512890078E+03  0.17208051262E+03 0.  0.
        -24    2    5    5    0    0  0.17736052173E+02 -0.41433132645E+01 -0.69398013850E+02  0.10459536135E+03  0.76107625761E+02 0.  0.
          5    1    3    3  502    0  0.65400518905E+01 -0.21075003875E+02 -0.19348020247E+01  0.22644238251E+02  0.47000000000E+01 0. -1.
        -13    1    4    4    0    0 -0.96871027309E+01 -0.32525249697E+02 -0.44657185156E+03  0.44785952086E+03  0.00000000000E+00 0.  1.
         14    1    4    4    0    0 -0.95484208022E+01 -0.73608638206E+02 -0.22719691797E+03  0.23901431650E+03  0.00000000000E+00 0. -1.
         -5    1    5    5    0  501 -0.50405805302E+01  0.13135220504E+03 -0.49485113742E+02  0.14053353943E+03  0.47000000000E+01 0.  1.
         13    1    6    6    0    0 -0.29806149998E+02 -0.70216908868E+01 -0.27755099554E+02  0.41328637431E+02  0.00000000000E+00 0. -1.
        -14    1    6    6    0    0  0.47542202171E+02  0.28783776223E+01 -0.41642914296E+02  0.63266723924E+02  0.00000000000E+00 0.  1.
</event>
<event>
12    1  0.1348628E-002  0.1813906E+03  0.7818608E-02  0.1166464E+00
         -1   -1    0    0    0  501 -0.00000000000E+00  0.00000000000E+00  0.24517898830E+02  0.24517898830E+02  0.00000000000E+00 0. -1.
          1   -1    0    0  502    0  0.00000000000E+00 -0.00000000000E+00 -0.15838002764E+04  0.15838002764E+04  0.00000000000E+00 0.  1.
          6    2    1    2  502    0  0.55406899650E+02 -0.11594390144E+02 -0.10921148497E+04  0.11069979052E+04  0.17182887665E+03 0.  0.
         24    2    3    3    0    0  0.99364855405E+02 -0.10769798323E+02 -0.94876460120E+03  0.95698335404E+03  0.75322694921E+02 0.  0.
         -6    2    1    2    0  501 -0.55406899650E+02  0.11594390144E+02 -0.46716752792E+03  0.50132027005E+03  0.17283564332E+03 0.  0.
        -24    2    5    5    0    0 -0.76672131331E+02 -0.42068296194E+02 -0.36632641307E+03  0.38503220347E+03  0.80039987058E+02 0.  0.
          5    1    3    3  502    0 -0.43957955754E+02 -0.82459182096E+00 -0.14335024847E+03  0.15001455117E+03  0.47000000000E+01 0. -1.
        -11    1    4    4    0    0  0.42086145448E+01 -0.21508553235E+02 -0.34270739911E+03  0.34340747182E+03  0.00000000000E+00 0.  1.
         12    1    4    4    0    0  0.95156240860E+02  0.10738754912E+02 -0.60605720209E+03  0.61357588221E+03  0.00000000000E+00 0. -1.
         -5    1    5    5    0  501  0.21265231681E+02  0.53662686338E+02 -0.10084111486E+03  0.11628806658E+03  0.47000000000E+01 0.  1.
         13    1    6    6    0    0 -0.65873319039E+02 -0.53615522895E+02 -0.19147399959E+03  0.20946649130E+03  0.00000000000E+00 0. -1.
        -14    1    6    6    0    0 -0.10798812292E+02  0.11547226702E+02 -0.17485241348E+03  0.17556571217E+03  0.00000000000E+00 0.  1.
</event>
<event>
12    1  0.1348628E-002  0.1744231E+03  0.7818608E-02  0.1173312E+00
         -2   -1    0    0    0  501 -0.00000000000E+00  0.00000000000E+00  0.39002687186E+02  0.39002687186E+02  0.00000000000E+00 0.  1.
          2   -1    0    0  502    0  0.00000000000E+00 -0.00000000000E+00 -0.78013479638E+03  0.78013479638E+03  0.00000000000E+00 0. -1.
          6    2    1    2  502    0 -0.18075287037E+02 -0.57924057577E+01 -0.37043194335E+03  0.40881014504E+03  0.17188845822E+03 0.  0.
         24    2    3    3    0    0 -0.64274976588E+02  0.30880663144E+02 -0.18405694758E+03  0.21326717190E+03  0.80752948464E+02 0.  0.
         -6    2    1    2    0  501  0.18075287037E+02  0.57924057577E+01 -0.37070016585E+03  0.41032733853E+03  0.17489895316E+03 0.  0.
        -24    2    5    5    0    0 -0.24880384232E+02 -0.35776653542E+02 -0.31722408071E+03  0.32998458486E+03  0.79747767399E+02 0.  0.
          5    1    3    3  502    0  0.46199689551E+02 -0.36673068901E+02 -0.18637499577E+03  0.19554297314E+03  0.47000000000E+01 0. -1.
        -11    1    4    4    0    0 -0.10987842211E+02  0.16293507515E+02  0.14523085110E+01  0.19705843388E+02  0.00000000000E+00 0.  1.
         12    1    4    4    0    0 -0.53287134377E+02  0.14587155628E+02 -0.18550925609E+03  0.19356132851E+03  0.00000000000E+00 0. -1.
         -5    1    5    5    0  501  0.42955671269E+02  0.41569059300E+02 -0.53476085138E+02  0.80342753668E+02  0.47000000000E+01 0.  1.
         11    1    6    6    0    0 -0.33392877487E+02 -0.48883360866E+02 -0.13906660506E+03  0.15114293857E+03  0.00000000000E+00 0. -1.
        -12    1    6    6    0    0  0.85124932550E+01  0.13106707324E+02 -0.17815747565E+03  0.17884164629E+03  0.00000000000E+00 0.  1.
</event>
<event>
12    1  0.1348628E-002  0.1811159E+03  0.7818608E-02  0.1166727E+00
         -2   -1    0    0    0  501 -0.00000000000E+00  0.00000000000E+00  0.41562972456E+02  0.41562972456E+02  0.00000000000E+00 0. -1.
          2   -1    0    0  502    0  0.00000000000E+00 -0.00000000000E+00 -0.83321710517E+03  0.83321710517E+03  0.00000000000E+00 0.  1.
          6    2    1    2  502    0 -0.30719655456E+02 -0.44881742382E+02 -0.49338684424E+03  0.52510418515E+03  0.17130603947E+03 0.  0.
         24    2    3    3    0    0 -0.32506750383E+02 -0.92106028254E+02 -0.27574054950E+03  0.30233675822E+03  0.76383607361E+02 0.  0.
         -6    2    1    2    0  501  0.30719655456E+02  0.44881742382E+02 -0.29826728847E+03  0.34967589247E+03  0.17421764083E+03 0.  0.
        -24    2    5    5    0    0  0.74803447416E+02 -0.14004480511E+02 -0.17629843217E+03  0.20716463023E+03  0.77745518273E+02 0.  0.
          5    1    3    3  502    0  0.17870949279E+01  0.47224285872E+02 -0.21764629474E+03  0.22276742693E+03  0.47000000000E+01 0. -1.
        -13    1    4    4    0    0  0.11200987452E+02 -0.47743439370E+02 -0.19086563323E+03  0.19706493364E+03  0.00000000000E+00 0.  1.
         14    1    4    4    0    0 -0.43707737835E+02 -0.44362588884E+02 -0.84874916273E+02  0.10527182459E+03  0.00000000000E+00 0. -1.
         -5    1    5    5    0  501 -0.44083791960E+02  0.58886222893E+02 -0.12196885630E+03  0.14251126225E+03  0.47000000000E+01 0.  1.
         13    1    6    6    0    0  0.72507123315E+02 -0.53499076759E+01 -0.71455863901E+02  0.10194039891E+03  0.00000000000E+00 0. -1.
        -14    1    6    6    0    0  0.22963241003E+01 -0.86545728355E+01 -0.10484256827E+03  0.10522423132E+03  0.00000000000E+00 0.  1.
</event>
<event>
12    1  0.1348628E-002  0.1888132E+03  0.7818608E-02  0.1159536E+00
         -2   -1    0    0    0  501 -0.00000000000E+00  0.00000000000E+00  0.37211969623E+02  0.37211969623E+02  0.00000000000E+00 0.  1.
          2   -1    0    0  502    0  0.00000000000E+00 -0.00000000000E+00 -0.10116932646E+04  0.10116932646E+04  0.00000000000E+00 0. -1.
          6    2    1    2  502    0 -0.65271187058E+02 -0.45340423723E+02 -0.36620981550E+03  0.41197231062E+03  0.17115920619E+03 0.  0.
         24    2    3    3    0    0  0.19364948827E+02 -0.15545525107E+02 -0.95672421745E+02  0.12690462936E+03  0.79592135763E+02 0.  0.
         -6    2    1    2    0  501  0.65271187058E+02  0.45340423723E+02 -0.60827147943E+03  0.63693292356E+03  0.17138633125E+03 0.  0.
        -24    2    5    5    0    0  0.10401667459E+03  0.10236115189E+02 -0.47481610284E+03  0.49352458063E+03  0.84805268223E+02 0.  0.
          5    1    3    3  502    0 -0.84636135885E+02 -0.29794898616E+02 -0.27053739375E+03  0.28506768126E+03  0.47000000000E+01 0. -1.
        -11    1    4    4    0    0 -0.94415990908E+01  0.25606642440E+02 -0.13147315048E+02  0.30293494738E+02  0.00000000000E+00 0.  1.
         12    1    4    4    0    0  0.28806547918E+02 -0.41152167547E+02 -0.82525106697E+02  0.96611134618E+02  0.00000000000E+00 0. -1.
         -5    1    5    5    0  501 -0.38745487533E+02  0.35104308534E+02 -0.13345537659E+03  0.14340834293E+03  0.47000000000E+01 0.  1.
         11    1    6    6    0    0  0.18843114670E+02  0.28283566453E+02 -0.25235154474E+03  0.25462978073E+03  0.00000000000E+00 0. -1.
        -12    1    6    6    0    0  0.85173559921E+02 -0.18047451264E+02 -0.22246455810E+03  0.23889479990E+03  0.00000000000E+00 0.  1.
</event>
<event>
12    1  0.1348628E-002  0.2173858E+03  0.7818608E-02  0.1135847E+00
          2   -1    0    0  502    0  0.00000000000E+00  0.00000000000E+00  0.19751558474E+04  0.19751558474E+04  0.00000000000E+00 0. -1.
         -2   -1    0    0    0  501 -0.00000000000E+00 -0.00000000000E+00 -0.75884226445E+02  0.75884226445E+02  0.00000000000E+00 0.  1.
          6    2    1    2  502    0  0.99209284090E+02 -0.88772880170E+02  0.17984794218E+04  0.18115918762E+04  0.17208657397E+03 0.  0.
         24    2    3    3    0    0  0.10216651727E+03 -0.24983281751E+02  0.78742016517E+03  0.79850709765E+03  0.80752132243E+02 0.  0.
         -6    2    1    2    0  501 -0.99209284090E+02  0.88772880170E+02  0.10079219913E+03  0.23944819763E+03  0.17161953747E+03 0.  0.
        -24    2    5    5    0    0 -0.31418990308E+02  0.43334911838E+02 -0.13775316860E+02  0.98707519016E+02  0.81782317279E+02 0.  0.
          5    1    3    3  502    0 -0.29572331840E+01 -0.63789598418E+02  0.10110592567E+04  0.10130847786E+04  0.47000000000E+01 0. -1.
        -11    1    4    4    0    0  0.38358866006E+02 -0.27820264504E+02  0.13709789463E+03  0.14505585969E+03  0.00000000000E+00 0.  1.
         12    1    4    4    0    0  0.63807651268E+02  0.28369827525E+01  0.65032227054E+03  0.65345123796E+03  0.00000000000E+00 0. -1.
         -5    1    5    5    0  501 -0.67790293781E+02  0.45437968331E+02  0.11456751599E+03  0.14074067862E+03  0.47000000000E+01 0.  1.
         13    1    6    6    0    0 -0.27157421477E+02 -0.17944297436E+02 -0.17890024794E+02  0.37142648517E+02  0.00000000000E+00 0. -1.
        -14    1    6    6    0    0 -0.42615688316E+01  0.61279209274E+02  0.41147079343E+01  0.61564870499E+02  0.00000000000E+00 0.  1.
</event>
<event>
12    1  0.1348628E-002  0.1953316E+03  0.7818608E-02  0.1153739E+00
         -1   -1    0    0    0  501 -0.00000000000E+00  0.00000000000E+00  0.10545615892E+03  0.10545615892E+03  0.00000000000E+00 0.  1.
          1   -1    0    0  502    0  0.00000000000E+00 -0.00000000000E+00 -0.39148634016E+03  0.39148634016E+03  0.00000000000E+00 0. -1.
          6    2    1    2  502    0  0.84080632655E+02  0.27715913744E+01 -0.77145746518E+02  0.21334678625E+03  0.18024469615E+03 0.  0.
         24    2    3    3    0    0  0.82297701187E+02  0.63050702364E+02 -0.42494800144E+02  0.14363647029E+03  0.89873938760E+02 0.  0.
         -6    2    1    2    0  501 -0.84080632655E+02 -0.27715913744E+01 -0.20888443472E+03  0.28359571284E+03  0.17238499577E+03 0.  0.
        -24    2    5    5    0    0  0.29796673600E+01  0.44144644859E+02 -0.11790624257E+03  0.14913475008E+03  0.79885315021E+02 0.  0.
          5    1    3    3  502    0  0.17829314683E+01 -0.60279110990E+02 -0.34650946374E+02  0.69710315958E+02  0.47000000000E+01 0. -1.
        -13    1    4    4    0    0  0.98399533122E+01 -0.21249509090E+02  0.28362021897E+01  0.23588352223E+02  0.00000000000E+00 0.  1.
         14    1    4    4    0    0  0.72457747875E+02  0.84300211454E+02 -0.45331002334E+02  0.12004811806E+03  0.00000000000E+00 0. -1.
         -5    1    5    5    0  501 -0.87060300015E+02 -0.46916236233E+02 -0.90978192151E+02  0.13446096277E+03  0.47000000000E+01 0.  1.
         13    1    6    6    0    0  0.16750587191E+02 -0.18988031874E+02 -0.22302087418E+02  0.33741823141E+02  0.00000000000E+00 0. -1.
        -14    1    6    6    0    0 -0.13770919831E+02  0.63132676732E+02 -0.95604155152E+02  0.11539292694E+03  0.00000000000E+00 0.  1.
</event>
<event>
12    1  0.1348628E-002  0.1703263E+03  0.7818608E-02  0.1177508E+00
          2   -1    0    0  502    0  0.00000000000E+00  0.00000000000E+00  0.22519545417E+04  0.22519545417E+04  0.00000000000E+00 0.  1.
         -2   -1    0    0    0  501 -0.00000000000E+00 -0.00000000000E+00 -0.32225321030E+02  0.32225321030E+02  0.00000000000E+00 0. -1.
          6    2    1    2  502    0 -0.10284429307E+02  0.44426465632E+02  0.22790907985E+03  0.28518325980E+03  0.16524969790E+03 0.  0.
         24    2    3    3    0    0  0.33249260103E+02  0.77083016980E+02  0.13930889627E+03  0.18109812642E+03  0.79638294868E+02 0.  0.
         -6    2    1    2    0  501  0.10284429307E+02 -0.44426465632E+02  0.19918201409E+04  0.19989966030E+04  0.16297381636E+03 0.  0.
        -24    2    5    5    0    0  0.47827251383E+02 -0.60468247523E+02  0.17680434815E+04  0.17714776246E+04  0.78812225999E+02 0.  0.
          5    1    3    3  502    0 -0.43533689411E+02 -0.32656551348E+02  0.88600183577E+02  0.10408513337E+03  0.47000000000E+01 0. -1.
        -11    1    4    4    0    0  0.52486950995E+02  0.23580077546E+02  0.56442036664E+02  0.80601511056E+02  0.00000000000E+00 0.  1.
         12    1    4    4    0    0 -0.19237690892E+02  0.53502939434E+02  0.82866859607E+02  0.10049661537E+03  0.00000000000E+00 0. -1.
         -5    1    5    5    0  501 -0.37542822076E+02  0.16041781891E+02  0.22377665939E+03  0.22751897842E+03  0.47000000000E+01 0.  1.
         13    1    6    6    0    0 -0.58411727088E+01 -0.31789112398E+02  0.23329504727E+03  0.23552334501E+03  0.00000000000E+00 0. -1.
        -14    1    6    6    0    0  0.53668424092E+02 -0.28679135125E+02  0.15347484342E+04  0.15359542795E+04  0.00000000000E+00 0.  1.
</event>
<event>
12    1  0.1348628E-002  0.2066372E+03  0.7818608E-02  0.1144257E+00
         -1   -1    0    0    0  501 -0.00000000000E+00  0.00000000000E+00  0.19972646831E+03  0.19972646831E+03  0.00000000000E+00 0. -1.
          1   -1    0    0  502    0  0.00000000000E+00 -0.00000000000E+00 -0.22034500789E+03  0.22034500789E+03  0.00000000000E+00 0.  1.
          6    2    1    2  502    0  0.99007625716E+02 -0.66110243596E+02  0.25722659663E+02  0.21066581817E+03  0.17188763035E+03 0.  0.
         24    2    3    3    0    0  0.70001874589E+02 -0.93170600182E+02  0.62557579247E+02  0.15632892649E+03  0.83332222775E+02 0.  0.
         -6    2    1    2    0  501 -0.99007625716E+02  0.66110243596E+02 -0.46341199246E+02  0.20940565802E+03  0.16592211608E+03 0.  0.
        -24    2    5    5    0    0 -0.14507619259E+02 -0.17533532009E+02 -0.51089303841E+01  0.83474239050E+02  0.80149558040E+02 0.  0.
          5    1    3    3  502    0  0.29005751127E+02  0.27060356586E+02 -0.36834919584E+02  0.54336891683E+02  0.47000000000E+01 0. -1.
        -11    1    4    4    0    0 -0.43158905412E+01 -0.44091837708E+02  0.49308948141E+02  0.66287928241E+02  0.00000000000E+00 0.  1.
         12    1    4    4    0    0  0.74317765130E+02 -0.49078762474E+02  0.13248631106E+02  0.90040998251E+02  0.00000000000E+00 0. -1.
         -5    1    5    5    0  501 -0.84500006458E+02  0.83643775605E+02 -0.41232268862E+02  0.12593141897E+03  0.47000000000E+01 0.  1.
         11    1    6    6    0    0  0.91141727996E+01  0.22217366809E+02 -0.23604334871E+02  0.33672602490E+02  0.00000000000E+00 0. -1.
        -12    1    6    6    0    0 -0.23621792058E+02 -0.39750898818E+02  0.18495404487E+02  0.49801636560E+02  0.00000000000E+00 0.  1.
</event>
<event>
12    1  0.1348628E-002  0.1832788E+03  0.7818608E-02  0.1164667E+00
         -2   -1    0    0    0  501 -0.00000000000E+00  0.00000000000E+00  0.21145879874E+04  0.21145879874E+04  0.00000000000E+00 0.  1.
          2   -1    0    0  502    0  0.00000000000E+00 -0.00000000000E+00 -0.16940950891E+02  0.16940950891E+02  0.00000000000E+00 0. -1.
          6    2    1    2  502    0 -0.59675165597E+02  0.15302225504E+02  0.78203881503E+03  0.80319617056E+03  0.17246476944E+03 0.  0.
         24    2    3    3    0    0 -0.39318973001E+02 -0.48331660701E+02  0.61309336492E+03  0.62145926962E+03  0.80288346757E+02 0.  0.
         -6    2    1    2    0  501  0.59675165597E+02 -0.15302225504E+02  0.13156082215E+04  0.13283327677E+04  0.17276477043E+03 0.  0.
        -24    2    5    5    0    0  0.74829879003E+01 -0.49864380906E+02  0.41436965283E+03  0.42491059974E+03  0.79399981051E+02 0.  0.
          5    1    3    3  502    0 -0.20356192596E+02  0.63633886206E+02  0.16894545011E+03  0.18173690094E+03  0.47000000000E+01 0. -1.
        -11    1    4    4    0    0 -0.29062161923E+01 -0.27823122211E+02  0.50178502799E+03  0.50256421136E+03  0.00000000000E+00 0.  1.
         12    1    4    4    0    0 -0.36412756809E+02 -0.20508538491E+02  0.11130833693E+03  0.11889505826E+03  0.00000000000E+00 0. -1.
         -5    1    5    5    0  501  0.52192177697E+02  0.34562155401E+02  0.90123856862E+03  0.90342216796E+03  0.47000000000E+01 0.  1.
         11    1    6    6    0    0  0.35548790968E+02 -0.51819223961E+02  0.33127146657E+03  0.33717908161E+03  0.00000000000E+00 0. -1.
        -12    1    6    6    0    0 -0.28065803068E+02  0.19548430548E+01  0.83098186257E+02  0.87731518124E+02  0.00000000000E+00 0.  1.
</event>
<event>
12    1  0.1348628E-002  0.3314994E+03  0.7818608E-02  0.1070475E+00
          1   -1    0    0  502    0  0.00000000000E+00  0.00000000000E+00  0.14881901390E+04  0.14881901390E+04  0.00000000000E+00 0.  1.
         -1   -1    0    0    0  501 -0.00000000000E+00 -0.00000000000E+00 -0.94136325429E+02  0.94136325429E+02  0.00000000000E+00 0. -1.
          6    2    1    2  502    0 -0.14656932703E+03  0.24290496700E+03  0.32862790116E+03  0.46632829116E+03  0.17023626844E+03 0.  0.
         24    2    3    3    0    0 -0.25478964443E+02  0.46147295649E+02  0.64003484641E+02  0.11500987580E+03  0.79699905655E+02 0.  0.
         -6    2    1    2    0  501  0.14656932703E+03 -0.24290496700E+03  0.10654259124E+04  0.11159981733E+04  0.17272567064E+03 0.  0.
        -24    2    5    5    0    0  0.63151857956E+02 -0.65535435159E+02  0.57855050812E+03  0.59112849967E+03  0.80182056880E+02 0.  0.
          5    1    3    3  502    0 -0.12109036258E+03  0.19675767135E+03  0.26462441652E+03  0.35131841535E+03  0.47000000000E+01 0. -1.
        -11    1    4    4    0    0  0.15691588977E+02 -0.65854905161E+01  0.40787222316E+02  0.44194933581E+02  0.00000000000E+00 0.  1.
         12    1    4    4    0    0 -0.41170553420E+02  0.52732786165E+02  0.23216262325E+02  0.70814942223E+02  0.00000000000E+00 0. -1.
         -5    1    5    5    0  501  0.83417469069E+02 -0.17736953184E+03  0.48687540428E+03  0.52486967360E+03  0.47000000000E+01 0.  1.
         13    1    6    6    0    0  0.14902075635E+02 -0.34285839702E+02  0.43339684369E+03  0.43500622384E+03  0.00000000000E+00 0. -1.
        -14    1    6    6    0    0  0.48249782321E+02 -0.31249595457E+02  0.14515366444E+03  0.15612227583E+03  0.00000000000E+00 0.  1.
</event>
<event>
12    1  0.1348628E-002  0.1763850E+03  0.7818608E-02  0.1171348E+00
         -2   -1    0    0    0  501 -0.00000000000E+00  0.00000000000E+00  0.68637081191E+02  0.68637081191E+02  0.00000000000E+00 0. -1.
          2   -1    0    0  502    0  0.00000000000E+00 -0.00000000000E+00 -0.45452868905E+03  0.45452868905E+03  0.00000000000E+00 0.  1.
          6    2    1    2  502    0 -0.32746875705E+02  0.21664200243E+02 -0.17981346090E+03  0.25224728080E+03  0.17249381006E+03 0.  0.
         24    2    3    3    0    0 -0.45383158934E+02  0.76885459109E+02 -0.12585151710E+03  0.17386970452E+03  0.80131547200E+02 0.  0.
         -6    2    1    2    0  501  0.32746875705E+02 -0.21664200243E+02 -0.20607814695E+03  0.27091848944E+03  0.17142616436E+03 0.  0.
        -24    2    5    5    0    0 -0.45395483927E+02 -0.33453476660E+02 -0.13472671787E+03  0.16434301458E+03  0.75348874403E+02 0.  0.
          5    1    3    3  502    0  0.12636283229E+02 -0.55221258866E+02 -0.53961943801E+02  0.78377576279E+02  0.47000000000E+01 0. -1.
        -11    1    4    4    0    0 -0.33827820135E+02 -0.44995877891E+01 -0.19002931886E+02  0.39059942725E+02  0.00000000000E+00 0.  1.
         12    1    4    4    0    0 -0.11555338798E+02  0.81385046898E+02 -0.10684858522E+03  0.13480976180E+03  0.00000000000E+00 0. -1.
         -5    1    5    5    0  501  0.78142359632E+02  0.11789276417E+02 -0.71351429087E+02  0.10657547485E+03  0.47000000000E+01 0.  1.
         11    1    6    6    0    0 -0.32895817606E+02 -0.18033059726E+02 -0.11084740066E+02  0.39117739217E+02  0.00000000000E+00 0. -1.
        -12    1    6    6    0    0 -0.12499666321E+02 -0.15420416935E+02 -0.12364197780E+03  0.12522527537E+03  0.00000000000E+00 0.  1.
</event>
<event>
12    1  0.1348628E-002  0.2130914E+03  0.7818608E-02  0.1139141E+00
         -2   -1    0    0    0  501 -0.00000000000E+00  0.00000000000E+00  0.16799965833E+03  0.16799965833E+03  0.00000000000E+00 0.  1.
          2   -1    0    0  502    0  0.00000000000E+00 -0.00000000000E+00 -0.30852751735E+03  0.30852751735E+03  0.00000000000E+00 0. -1.
          6    2    1    2  502    0  0.13395303333E+03 -0.49734184309E+02  0.11838236446E+02  0.21889995146E+03  0.16540901027E+03 0.  0.
         24    2    3    3    0    0  0.26527644002E+02 -0.15769734118E+02  0.49719764358E+02  0.99942403123E+02  0.81018692681E+02 0.  0.
         -6    2    1    2    0  501 -0.13395303333E+03  0.49734184309E+02 -0.15236609546E+03  0.25762722422E+03  0.15079607218E+03 0.  0.
        -24    2    5    5    0    0 -0.66973978572E+02 -0.10907122256E+02 -0.34423371362E+02  0.10897952661E+03  0.78019802624E+02 0.  0.
          5    1    3    3  502    0  0.10742538933E+03 -0.33964450191E+02 -0.37881527912E+02  0.11895754833E+03  0.47000000000E+01 0. -1.
        -11    1    4    4    0    0  0.36751829623E+02 -0.28900860108E+02 -0.79074543738E+00  0.46760902194E+02  0.00000000000E+00 0.  1.
         12    1    4    4    0    0 -0.10224185621E+02  0.13131125990E+02  0.50510509795E+02  0.53181500930E+02  0.00000000000E+00 0. -1.
         -5    1    5    5    0  501 -0.66979054755E+02  0.60641306565E+02 -0.11794272410E+03  0.14864769761E+03  0.47000000000E+01 0.  1.
         11    1    6    6    0    0 -0.20205826018E+02 -0.36474539097E+02 -0.36817074633E+02  0.55625213635E+02  0.00000000000E+00 0. -1.
        -12    1    6    6    0    0 -0.46768152553E+02  0.25567416841E+02  0.23937032704E+01  0.53354312970E+02  0.00000000000E+00 0.  1.
</event>
<event>
12    1  0.1348628E-002  0.1728402E+03  0.7818608E-02  0.1174918E+00
          4   -1    0    0  502    0  0.00000000000E+00  0.00000000000E+00  0.87369692523E+02  0.87369692523E+02  0.00000000000E+00 0.  1.
         -4   -1    0    0    0  501 -0.00000000000E+00 -0.00000000000E+00 -0.38522707400E+03  0.38522707400E+03  0.00000000000E+00 0. -1.
          6    2    1    2  502    0  0.12510989885E+02 -0.19386788777E+02 -0.69727062127E+02  0.18640385411E+03  0.17132472439E+03 0.  0.
         24    2    3    3    0    0  0.33206111093E+02  0.48179811383E+02 -0.57466303722E+02  0.11452931275E+03  0.79941524735E+02 0.  0.
         -6    2    1    2    0  501 -0.12510989885E+02  0.19386788777E+02 -0.22813031935E+03  0.28619291242E+03  0.17126169467E+03 0.  0.
        -24    2    5    5    0    0 -0.74265423165E+02  0.22354068701E+02 -0.15305904134E+03  0.18882658578E+03  0.78824817764E+02 0.  0.
          5    1    3    3  502    0 -0.20695121208E+02 -0.67566600160E+02 -0.12260758405E+02  0.71874541360E+02  0.47000000000E+01 0. -1.
        -13    1    4    4    0    0  0.20205799421E+02  0.30876937140E+01  0.16948377281E+02  0.26552884498E+02  0.00000000000E+00 0.  1.
         14    1    4    4    0    0  0.13000311672E+02  0.45092117669E+02 -0.74414681002E+02  0.87976428253E+02  0.00000000000E+00 0. -1.
         -5    1    5    5    0  501  0.61754433281E+02 -0.29672799248E+01 -0.75071278011E+02  0.97366326634E+02  0.47000000000E+01 0.  1.
         11    1    6    6    0    0  0.10152630742E+02 -0.12369149497E+02 -0.42755138649E+02  0.45651655514E+02  0.00000000000E+00 0. -1.
        -12    1    6    6    0    0 -0.84418053908E+02  0.34723218198E+02 -0.11030390269E+03  0.14317493027E+03  0.00000000000E+00 0.  1.
</event>
<event>
12    1  0.1348628E-002  0.1749290E+03  0.7818608E-02  0.1172803E+00
          2   -1    0    0  502    0  0.00000000000E+00  0.00000000000E+00  0.77068867962E+03  0.77068867962E+03  0.00000000000E+00 0.  1.
         -2   -1    0    0    0  501 -0.00000000000E+00 -0.00000000000E+00 -0.45629149709E+02  0.45629149709E+02  0.00000000000E+00 0. -1.
          6    2    1    2  502    0  0.18708254232E+02 -0.31894918955E+02  0.21347861451E+03  0.27529427273E+03  0.16984267165E+03 0.  0.
         24    2    3    3    0    0 -0.22289061495E+02  0.22661925673E+02  0.54001672223E+02  0.10176555951E+03  0.80185306391E+02 0.  0.
         -6    2    1    2    0  501 -0.18708254232E+02  0.31894918955E+02  0.51158091540E+03  0.54102355659E+03  0.17211673701E+03 0.  0.
        -24    2    5    5    0    0 -0.22939694471E+02  0.83615898545E+02  0.27586541301E+03  0.29961756479E+03  0.78429018609E+02 0.  0.
          5    1    3    3  502    0  0.40997315727E+02 -0.54556844628E+02  0.15947694229E+03  0.17352871323E+03  0.47000000000E+01 0. -1.
        -13    1    4    4    0    0 -0.69025524730E+01 -0.17599340160E+02  0.55507125166E+02  0.58638067404E+02  0.00000000000E+00 0.  1.
         14    1    4    4    0    0 -0.15386509022E+02  0.40261265833E+02 -0.15054529433E+01  0.43127492101E+02  0.00000000000E+00 0. -1.
         -5    1    5    5    0  501  0.42314402391E+01 -0.51720979590E+02  0.23571550238E+03  0.24140599180E+03  0.47000000000E+01 0.  1.
         11    1    6    6    0    0 -0.75283052970E+01 -0.14867045804E+02  0.30078750700E+02  0.34386562423E+02  0.00000000000E+00 0. -1.
        -12    1    6    6    0    0 -0.15411389174E+02  0.98482944349E+02  0.24578666231E+03  0.26523100236E+03  0.00000000000E+00 0.  1.
</event>
<event>
12    1  0.1348628E-002  0.1806859E+03  0.7818608E-02  0.1167141E+00
         -2   -1    0    0    0  501 -0.00000000000E+00  0.00000000000E+00  0.18149824453E+03  0.18149824453E+03  0.00000000000E+00 0. -1.
          2   -1    0    0  502    0  0.00000000000E+00 -0.00000000000E+00 -0.19446292496E+03  0.19446292496E+03  0.00000000000E+00 0.  1.
          6    2    1    2  502    0 -0.46039647861E+02  0.30175853765E+02 -0.57987440477E+02  0.19071470819E+03  0.17314538787E+03 0.  0.
         24    2    3    3    0    0 -0.54318112519E+02 -0.44601131513E+02 -0.39317832433E+02  0.11305664506E+03  0.79348564987E+02 0.  0.
         -6    2    1    2    0  501  0.46039647861E+02 -0.30175853765E+02  0.45022760047E+02  0.18524646130E+03  0.17105253923E+03 0.  0.
        -24    2    5    5    0    0 -0.13505942733E+02 -0.37585248005E+01 -0.29188437833E+02  0.86388257190E+02  0.80090130974E+02 0.  0.
          5    1    3    3  502    0  0.82784646586E+01  0.74776985278E+02 -0.18669608043E+02  0.77658063129E+02  0.47000000000E+01 0. -1.
        -13    1    4    4    0    0 -0.51186076339E+02 -0.85758181750E+01 -0.53200057368E+02  0.74322306022E+02  0.00000000000E+00 0.  1.
         14    1    4    4    0    0 -0.31320361799E+01 -0.36025313338E+02  0.13882224935E+02  0.38734339040E+02  0.00000000000E+00 0. -1.
         -5    1    5    5    0  501  0.59545590593E+02 -0.26417328965E+02  0.74211197880E+02  0.98858204108E+02  0.47000000000E+01 0.  1.
         13    1    6    6    0    0 -0.13632545058E+02  0.24991106707E+02  0.16129973253E+02  0.32719684233E+02  0.00000000000E+00 0. -1.
        -14    1    6    6    0    0  0.12660232500E+00 -0.28749631507E+02 -0.45318411085E+02  0.53668572957E+02  0.00000000000E+00 0.  1.
</event>
<event>
12    1  0.1348628E-002  0.2119075E+03  0.7818608E-02  0.1140064E+00
         -2   -1    0    0    0  501 -0.00000000000E+00  0.00000000000E+00  0.11891793040E+03  0.11891793040E+03  0.00000000000E+00 0.  1.
          2   -1    0    0  502    0  0.00000000000E+00 -0.00000000000E+00 -0.12723959541E+04  0.12723959541E+04  0.00000000000E+00 0. -1.
          6    2    1    2  502    0 -0.69993311466E+02 -0.10065336894E+03  0.66628694770E+01  0.21197126688E+03  0.17279253406E+03 0.  0.
         24    2    3    3    0    0 -0.85951849325E+02 -0.15621556246E+02  0.29501134658E+02  0.12236791618E+03  0.80447725531E+02 0.  0.
         -6    2    1    2    0  501  0.69993311466E+02  0.10065336894E+03 -0.11601408932E+04  0.11793426177E+04  0.17289289566E+03 0.  0.
        -24    2    5    5    0    0  0.66098772264E+02  0.10787635468E+03 -0.11602550021E+04  0.11698852407E+04  0.80208794836E+02 0.  0.
          5    1    3    3  502    0  0.15958537859E+02 -0.85031812692E+02 -0.22838265181E+02  0.89603350700E+02  0.47000000000E+01 0. -1.
        -13    1    4    4    0    0 -0.50322114582E+02 -0.46904854595E+02  0.49394033260E+01  0.68969401228E+02  0.00000000000E+00 0.  1.
         14    1    4    4    0    0 -0.35629734743E+02  0.31283298349E+02  0.24561731332E+02  0.53398514956E+02  0.00000000000E+00 0. -1.
         -5    1    5    5    0  501  0.38945392020E+01 -0.72229857427E+01  0.11410891119E+00  0.94573769872E+01  0.47000000000E+01 0.  1.
         13    1    6    6    0    0  0.64020325479E+01 -0.13275269848E+02 -0.11378210597E+03  0.11473267386E+03  0.00000000000E+00 0. -1.
        -14    1    6    6    0    0  0.59696739716E+02  0.12115162453E+03 -0.10464728962E+04  0.10551525668E+04  0.00000000000E+00 0.  1.
</event>
<event>
12    1  0.1348628E-002  0.1927663E+03  0.7818608E-02  0.1155990E+00
         -2   -1    0    0    0  501 -0.00000000000E+00  0.00000000000E+00  0.45160155351E+03  0.45160155351E+03  0.00000000000E+00 0.  1.
          2   -1    0    0  502    0  0.00000000000E+00 -0.00000000000E+00 -0.82427170250E+02  0.82427170250E+02  0.00000000000E+00 0. -1.
          6    2    1    2  502    0  0.71273168083E+02 -0.49212520969E+02  0.19715802574E+03  0.27693549044E+03  0.17412708590E+03 0.  0.
         24    2    3    3    0    0  0.27657117757E+02  0.34647610039E+02  0.13306958425E+02  0.70154963382E+02  0.52718788876E+02 0.  0.
         -6    2    1    2    0  501 -0.71273168083E+02  0.49212520969E+02  0.17201635752E+03  0.25709323332E+03  0.17031020714E+03 0.  0.
        -24    2    5    5    0    0 -0.81994104599E+02  0.50476035785E+02  0.50787207567E+02  0.13529367770E+03  0.80337882698E+02 0.  0.
          5    1    3    3  502    0  0.43616050326E+02 -0.83860131008E+02  0.18385106732E+03  0.20678052706E+03  0.47000000000E+01 0. -1.
        -11    1    4    4    0    0 -0.73611908129E+01  0.56450361957E+01  0.21987934559E+02  0.23864677454E+02  0.00000000000E+00 0.  1.
         12    1    4    4    0    0  0.35018308570E+02  0.29002573843E+02 -0.86809761340E+01  0.46290285928E+02  0.00000000000E+00 0. -1.
         -5    1    5    5    0  501  0.10720936516E+02 -0.12635148157E+01  0.12122914995E+03  0.12179955562E+03  0.47000000000E+01 0.  1.
         13    1    6    6    0    0 -0.43380713326E+01  0.35621562629E+02 -0.80044706288E+01  0.36766644355E+02  0.00000000000E+00 0. -1.
        -14    1    6    6    0    0 -0.77656033267E+02  0.14854473155E+02  0.58791678196E+02  0.98527033349E+02  0.00000000000E+00 0.  1.
</event>
<event>
12    1  0.1348628E-002  0.1724790E+03  0.7818608E-02  0.1175287E+00
          2   -1    0    0  502    0  0.00000000000E+00  0.00000000000E+00  0.39971577503E+03  0.39971577503E+03  0.00000000000E+00 0.  1.
         -2   -1    0    0    0  501 -0.00000000000E+00 -0.00000000000E+00 -0.75956844584E+02  0.75956844584E+02  0.00000000000E+00 0. -1.
          6    2    1    2  502    0  0.21888689182E+02  0.25001674684E+01  0.12723201025E+03  0.21354192255E+03  0.17007881321E+03 0.  0.
         24    2    3    3    0    0  0.44029195024E+02 -0.44905924623E+02  0.12469331527E+03  0.16094843875E+03  0.80005405966E+02 0.  0.
         -6    2    1    2    0  501 -0.21888689182E+02 -0.25001674684E+01  0.19652692020E+03  0.26213069706E+03  0.17205902019E+03 0.  0.
        -24    2    5    5    0    0 -0.21316861529E+02 -0.65066155217E+02  0.15624488517E+03  0.18756822556E+03  0.77983087652E+02 0.  0.
          5    1    3    3  502    0 -0.22140505842E+02  0.47406092091E+02  0.25386949861E+01  0.52593483803E+02  0.47000000000E+01 0. -1.
        -13    1    4    4    0    0  0.59569367160E+02 -0.43736705456E+02  0.62359320209E+02  0.96695882668E+02  0.00000000000E+00 0.  1.
         14    1    4    4    0    0 -0.15540172136E+02 -0.11692191669E+01  0.62333995058E+02  0.64252556084E+02  0.00000000000E+00 0. -1.
         -5    1    5    5    0  501 -0.57182765301E+00  0.62565987749E+02  0.40282035027E+02  0.74562471497E+02  0.47000000000E+01 0.  1.
         11    1    6    6    0    0  0.27816376452E+02 -0.15686468009E+02  0.32499725097E+02  0.45563672030E+02  0.00000000000E+00 0. -1.
        -12    1    6    6    0    0 -0.49133237980E+02 -0.49379687208E+02  0.12374516007E+03  0.14200455354E+03  0.00000000000E+00 0.  1.
</event>
<event>
12    1  0.1348628E-002  0.3552359E+03  0.7818608E-02  0.1060486E+00
         -2   -1    0    0    0  501 -0.00000000000E+00  0.00000000000E+00  0.10374055210E+04  0.10374055210E+04  0.00000000000E+00 0.  1.
          2   -1    0    0  502    0  0.00000000000E+00 -0.00000000000E+00 -0.13053132934E+03  0.13053132934E+03  0.00000000000E+00 0. -1.
          6    2    1    2  502    0 -0.22167704785E+03 -0.21825947321E+03  0.30090549742E+03  0.46545866460E+03  0.17125927388E+03 0.  0.
         24    2    3    3    0    0 -0.14995995800E+03 -0.21433872956E+03  0.27748466445E+03  0.38976626984E+03  0.80566283947E+02 0.  0.
         -6    2    1    2    0  501  0.22167704785E+03  0.21825947321E+03  0.60596869422E+03  0.70247818572E+03  0.17175456863E+03 0.  0.
        -24    2    5    5    0    0  0.13560822390E+03  0.18388508236E+03  0.31728614040E+03  0.39924700644E+03  0.80773531314E+02 0.  0.
          5    1    3    3  502    0 -0.71717089850E+02 -0.39207436415E+01  0.23420832971E+02  0.75692394759E+02  0.47000000000E+01 0. -1.
        -13    1    4    4    0    0  0.48685979039E+01 -0.39580975749E+02  0.33698726640E+02  0.52210737056E+02  0.00000000000E+00 0.  1.
         14    1    4    4    0    0 -0.15482855591E+03 -0.17475775382E+03  0.24378593781E+03  0.33755553279E+03  0.00000000000E+00 0. -1.
         -5    1    5    5    0  501  0.86068823955E+02  0.34374390844E+02  0.28868255382E+03  0.30323117927E+03  0.47000000000E+01 0.  1.
         11    1    6    6    0    0  0.87505122008E+02  0.51862298419E+02  0.13907017692E+03  0.17230019873E+03  0.00000000000E+00 0. -1.
        -12    1    6    6    0    0  0.48103101892E+02  0.13202278394E+03  0.17821596348E+03  0.22694680771E+03  0.00000000000E+00 0.  1.
</event>
<event>
12    1  0.1348628E-002  0.2239294E+03  0.7818608E-02  0.1130987E+00
         -2   -1    0    0    0  501 -0.00000000000E+00  0.00000000000E+00  0.44918427381E+02  0.44918427381E+02  0.00000000000E+00 0. -1.
          2   -1    0    0  502    0  0.00000000000E+00 -0.00000000000E+00 -0.11241543946E+04  0.11241543946E+04  0.00000000000E+00 0.  1.
          6    2    1    2  502    0 -0.14439097194E+03 -0.11494629175E+02 -0.48977800102E+03  0.53834545080E+03  0.17015420898E+03 0.  0.
         24    2    3    3    0    0 -0.13656982554E+03  0.37202574411E+02 -0.43474532200E+03  0.46429632030E+03  0.80822207642E+02 0.  0.
         -6    2    1    2    0  501  0.14439097194E+03  0.11494629175E+02 -0.58945796619E+03  0.63072737117E+03  0.17139265902E+03 0.  0.
        -24    2    5    5    0    0  0.55195052125E+01  0.25512664692E+02 -0.24921708518E+03  0.26293974672E+03  0.79666767613E+02 0.  0.
          5    1    3    3  502    0 -0.78211463978E+01 -0.48697203586E+02 -0.55032679019E+02  0.74049130502E+02  0.47000000000E+01 0. -1.
        -13    1    4    4    0    0 -0.78009642135E+02  0.61699002132E+02 -0.27140386112E+03  0.28905419382E+03  0.00000000000E+00 0.  1.
         14    1    4    4    0    0 -0.58560183407E+02 -0.24496427721E+02 -0.16334146088E+03  0.17524212648E+03  0.00000000000E+00 0. -1.
         -5    1    5    5    0  501  0.13887146673E+03 -0.14018035518E+02 -0.34024088101E+03  0.36778762445E+03  0.47000000000E+01 0.  1.
         13    1    6    6    0    0  0.49176839891E+01 -0.24072943321E+02 -0.15023022715E+03  0.15222618489E+03  0.00000000000E+00 0. -1.
        -14    1    6    6    0    0  0.60182122340E+00  0.49585608013E+02 -0.98986858026E+02  0.11071356183E+03  0.00000000000E+00 0.  1.
</event>
<event>
12    1  0.1348628E-002  0.2067465E+03  0.7818608E-02  0.1144169E+00
          2   -1    0    0  502    0  0.00000000000E+00  0.00000000000E+00  0.17810020027E+04  0.17810020027E+04  0.00000000000E+00 0. -1.
         -2   -1    0    0    0  501 -0.00000000000E+00 -0.00000000000E+00 -0.24029436767E+02  0.24029436767E+02  0.00000000000E+00 0.  1.
          6    2    1    2  502    0  0.54222959698E+02 -0.10075565222E+03  0.90975838048E+03  0.93293920492E+03  0.17211455025E+03 0.  0.
         24    2    3    3    0    0  0.33961321511E+02 -0.78859350493E+02  0.29604097161E+03  0.31847917370E+03  0.80103424970E+02 0.  0.
         -6    2    1    2    0  501 -0.54222959698E+02  0.10075565222E+03  0.84721418550E+03  0.87209223460E+03  0.17228220661E+03 0.  0.
        -24    2    5    5    0    0 -0.79678588353E+01  0.11002926654E+03  0.41365945100E+03  0.43595311449E+03  0.82286392326E+02 0.  0.
          5    1    3    3  502    0  0.20261638187E+02 -0.21896301727E+02  0.61371740887E+03  0.61446003121E+03  0.47000000000E+01 0. -1.
        -13    1    4    4    0    0 -0.13868079466E+02 -0.44266784017E+01  0.69100355647E+01  0.16114208056E+02  0.00000000000E+00 0.  1.
         14    1    4    4    0    0  0.47829400977E+02 -0.74432672091E+02  0.28913093605E+03  0.30236496565E+03  0.00000000000E+00 0. -1.
         -5    1    5    5    0  501 -0.46255100863E+02 -0.92736143200E+01  0.43355473450E+03  0.43613912010E+03  0.47000000000E+01 0.  1.
         13    1    6    6    0    0  0.32178871152E+02  0.25635679363E+02  0.87879998303E+02  0.97033818366E+02  0.00000000000E+00 0. -1.
        -14    1    6    6    0    0 -0.40146729987E+02  0.84393587178E+02  0.32577945270E+03  0.33891929613E+03  0.00000000000E+00 0.  1.
</event>
<event>
12    1  0.1348628E-002  0.2344812E+03  0.7818608E-02  0.1123525E+00
          2   -1    0    0  502    0  0.00000000000E+00  0.00000000000E+00  0.66432470602E+03  0.66432470602E+03  0.00000000000E+00 0. -1.
         -2   -1    0    0    0  501 -0.00000000000E+00 -0.00000000000E+00 -0.94478818245E+02  0.94478818245E+02  0.00000000000E+00 0.  1.
          6    2    1    2  502    0 -0.15728289791E+03  0.28984580491E+02  0.15191601157E+03  0.27986139038E+03  0.17223793825E+03 0.  0.
         24    2    3    3    0    0 -0.11665535187E+02 -0.10136954928E+02  0.33307872545E+02  0.87963262446E+02  0.79932963165E+02 0.  0.
         -6    2    1    2    0  501  0.15728289791E+03 -0.28984580491E+02  0.41792987620E+03  0.47894213388E+03  0.17071077970E+03 0.  0.
        -24    2    5    5    0    0  0.69920571793E+02 -0.70987098647E+02  0.17617297809E+03  0.21843325622E+03  0.82146909133E+02 0.  0.
          5    1    3    3  502    0 -0.14561736272E+03  0.39121535419E+02  0.11860813902E+03  0.19189812793E+03  0.47000000000E+01 0. -1.
        -11    1    4    4    0    0  0.16317287366E+02  0.23370917390E+02 -0.61031158086E+01  0.29149642695E+02  0.00000000000E+00 0.  1.
         12    1    4    4    0    0 -0.27982822553E+02 -0.33507872318E+02  0.39410988353E+02  0.58813619752E+02  0.00000000000E+00 0. -1.
         -5    1    5    5    0  501  0.87362326118E+02  0.42002518155E+02  0.24175689811E+03  0.26050887766E+03  0.47000000000E+01 0.  1.
         11    1    6    6    0    0  0.22848142847E+01 -0.37469880172E+02  0.11592805768E+03  0.12185453153E+03  0.00000000000E+00 0. -1.
        -12    1    6    6    0    0  0.67635757508E+02 -0.33517218475E+02  0.60244920408E+02  0.96578724691E+02  0.00000000000E+00 0.  1.
</event>
<event>
12    1  0.1348628E-002  0.2012975E+03  0.7818608E-02  0.1148649E+00
          1   -1    0    0  502    0  0.00000000000E+00  0.00000000000E+00  0.85660057588E+03  0.85660057588E+03  0.00000000000E+00 0. -1.
         -1   -1    0    0    0  501 -0.00000000000E+00 -0.00000000000E+00 -0.87174631159E+02  0.87174631159E+02  0.00000000000E+00 0.  1.
          6    2    1    2  502    0 -0.66755108039E+02  0.76211973417E+02  0.65911456035E+02  0.21211568649E+03  0.17431074287E+03 0.  0.
         24    2    3    3    0    0  0.13704106627E+02  0.76620278770E+02  0.67731093537E+02  0.13149774173E+03  0.81521073291E+02 0.  0.
         -6    2    1    2    0  501  0.66755108039E+02 -0.76211973417E+02  0.70351448869E+03  0.73165952055E+03  0.17357565749E+03 0.  0.
        -24    2    5    5    0    0 -0.14109400489E+02  0.85871968203E+01  0.23579396202E+03  0.24946189604E+03  0.79747287854E+02 0.  0.
          5    1    3    3  502    0 -0.80459214666E+02 -0.40830535310E+00 -0.18196375023E+01  0.80617944767E+02  0.47000000000E+01 0. -1.
        -13    1    4    4    0    0  0.87676426602E+01  0.41642224501E+02  0.82798185559E+02  0.93093963021E+02  0.00000000000E+00 0.  1.
         14    1    4    4    0    0  0.49364639668E+01  0.34978054269E+02 -0.15067092021E+02  0.38403778706E+02  0.00000000000E+00 0. -1.
         -5    1    5    5    0  501  0.80864508527E+02 -0.84799170237E+02  0.46772052667E+03  0.48219762450E+03  0.47000000000E+01 0.  1.
         11    1    6    6    0    0  0.16304922342E+02 -0.21844586924E+02  0.16002020067E+03  0.16232529406E+03  0.00000000000E+00 0. -1.
        -12    1    6    6    0    0 -0.30414322831E+02  0.30431783745E+02  0.75773761355E+02  0.87136601982E+02  0.00000000000E+00 0.  1.
</event>
<event>
12    1  0.1348628E-002  0.1725669E+03  0.7818608E-02  0.1175197E+00
         -2   -1    0    0    0  501 -0.00000000000E+00  0.00000000000E+00  0.68281493481E+02  0.68281493481E+02  0.00000000000E+00 0.  1.
          2   -1    0    0  502    0  0.00000000000E+00 -0.00000000000E+00 -0.53125163147E+03  0.53125163147E+03  0.00000000000E+00 0. -1.
          6    2    1    2  502    0 -0.19914230527E+02  0.21581594586E+02 -0.10317374522E+03  0.19990604352E+03  0.16868687777E+03 0.  0.
         24    2    3    3    0    0  0.34249207912E+02  0.58740032512E+02 -0.56654887973E+02  0.11928023095E+03  0.79966227261E+02 0.  0.
         -6    2    1    2    0  501  0.19914230527E+02 -0.21581594586E+02 -0.35979639276E+03  0.39962708143E+03  0.17142350528E+03 0.  0.
        -24    2    5    5    0    0  0.48033828650E+02  0.28050693118E+02 -0.12709743007E+03  0.15999199840E+03  0.79684331843E+02 0.  0.
          5    1    3    3  502    0 -0.54163438439E+02 -0.37158437927E+02 -0.46518857252E+02  0.80625812571E+02  0.47000000000E+01 0. -1.
        -11    1    4    4    0    0  0.68355615523E+01  0.73510069317E+02 -0.39902647196E+02  0.83920655657E+02  0.00000000000E+00 0.  1.
         12    1    4    4    0    0  0.27413646360E+02 -0.14770036804E+02 -0.16752240777E+02  0.35359575294E+02  0.00000000000E+00 0. -1.
         -5    1    5    5    0  501 -0.28119598123E+02 -0.49632287703E+02 -0.23269896269E+03  0.23963508303E+03  0.47000000000E+01 0.  1.
         11    1    6    6    0    0  0.91319425038E+01  0.38915506075E+02 -0.10830040051E+03  0.11544169844E+03  0.00000000000E+00 0. -1.
        -12    1    6    6    0    0  0.38901886146E+02 -0.10864812957E+02 -0.18797029560E+02  0.44550299961E+02  0.00000000000E+00 0.  1.
</event>
<event>
12    1  0.1348628E-002  0.3178945E+03  0.7818608E-02  0.1076622E+00
         -2   -1    0    0    0  501 -0.00000000000E+00  0.00000000000E+00  0.74326995338E+02  0.74326995338E+02  0.00000000000E+00 0.  1.
          2   -1    0    0  502    0  0.00000000000E+00 -0.00000000000E+00 -0.13828983565E+04  0.13828983565E+04  0.00000000000E+00 0. -1.
          6    2    1    2  502    0  0.23403831586E+03 -0.12942513505E+03 -0.75051025530E+03  0.81539324730E+03  0.17342348622E+03 0.  0.
         24    2    3    3    0    0  0.14190497465E+03 -0.10318147061E+03 -0.64368775431E+03  0.67182995394E+03  0.78981796966E+02 0.  0.
         -6    2    1    2    0  501 -0.23403831586E+03  0.12942513505E+03 -0.55806110583E+03  0.64183210449E+03  0.17026876887E+03 0.  0.
        -24    2    5    5    0    0 -0.81322474322E+02  0.36018688474E+02 -0.33018885295E+03  0.35201363347E+03  0.83535793435E+02 0.  0.
          5    1    3    3  502    0  0.92133341207E+02 -0.26243664439E+02 -0.10682250099E+03  0.14356329337E+03  0.47000000000E+01 0. -1.
        -13    1    4    4    0    0 -0.44305510784E+01  0.55574845325E+01 -0.57705608707E+02  0.58141660567E+02  0.00000000000E+00 0.  1.
         14    1    4    4    0    0  0.14633552573E+03 -0.10873895514E+03 -0.58598214560E+03  0.61368829337E+03  0.00000000000E+00 0. -1.
         -5    1    5    5    0  501 -0.15271584153E+03  0.93406446576E+02 -0.22787225287E+03  0.28981847102E+03  0.47000000000E+01 0.  1.
         11    1    6    6    0    0 -0.62305762845E+02  0.40469366651E+02 -0.32262588973E+03  0.33106984527E+03  0.00000000000E+00 0. -1.
        -12    1    6    6    0    0 -0.19016711477E+02 -0.44506781776E+01 -0.75629632253E+01  0.20943788205E+02  0.00000000000E+00 0.  1.
</event>
<event>
12    1  0.1348628E-002  0.2172899E+03  0.7818608E-02  0.1135920E+00
          1   -1    0    0  502    0  0.00000000000E+00  0.00000000000E+00  0.18017476793E+04  0.18017476793E+04  0.00000000000E+00 0.  1.
         -1   -1    0    0    0  501 -0.00000000000E+00 -0.00000000000E+00 -0.26223538962E+02  0.26223538962E+02  0.00000000000E+00 0. -1.
          6    2    1    2  502    0 -0.11241293998E+03  0.72075258690E+02  0.86638936963E+03  0.89338509215E+03  0.17226395759E+03 0.  0.
         24    2    3    3    0    0  0.24252077017E+01  0.18483288002E+02  0.46894656391E+03  0.47620075244E+03  0.80676906554E+02 0.  0.
         -6    2    1    2    0  501  0.11241293998E+03 -0.72075258690E+02  0.90913477069E+03  0.93458612609E+03  0.17056870702E+03 0.  0.
        -24    2    5    5    0    0  0.10560851559E+03 -0.11342648273E+03  0.66909745401E+03  0.69087271382E+03  0.74799586838E+02 0.  0.
          5    1    3    3  502    0 -0.11483814768E+03  0.53591970688E+02  0.39744280571E+03  0.41718433971E+03  0.47000000000E+01 0. -1.
        -11    1    4    4    0    0 -0.80136776417E+01 -0.10506455764E+02  0.40502620331E+03  0.40524169333E+03  0.00000000000E+00 0.  1.
         12    1    4    4    0    0  0.10438885343E+02  0.28989743765E+02  0.63920360605E+02  0.70959059117E+02  0.00000000000E+00 0. -1.
         -5    1    5    5    0  501  0.68044243922E+01  0.41351224041E+02  0.24003731668E+03  0.24371341227E+03  0.47000000000E+01 0.  1.
         13    1    6    6    0    0 -0.26867296883E+01 -0.86995166693E+01  0.60635719058E+01  0.10939241791E+02  0.00000000000E+00 0. -1.
        -14    1    6    6    0    0  0.10829524528E+03 -0.10472696606E+03  0.66303388210E+03  0.67993347203E+03  0.00000000000E+00 0.  1.
</event>
<event>
12    1  0.1348628E-002  0.3881316E+03  0.7818608E-02  0.1047969E+00
          1   -1    0    0  502    0  0.00000000000E+00  0.00000000000E+00  0.33937360933E+03  0.33937360933E+03  0.00000000000E+00 0. -1.
         -1   -1    0    0    0  501 -0.00000000000E+00 -0.00000000000E+00 -0.66452046623E+03  0.66452046623E+03  0.00000000000E+00 0.  1.
          6    2    1    2  502    0  0.30389415587E+03  0.17055423638E+03 -0.45155327400E+03  0.59487868336E+03  0.16893751254E+03 0.  0.
         24    2    3    3    0    0  0.20069295684E+03  0.50912927778E+02 -0.20629694077E+03  0.30309573459E+03  0.80242179789E+02 0.  0.
         -6    2    1    2    0  501 -0.30389415587E+03 -0.17055423638E+03  0.12640641710E+03  0.40901539220E+03  0.17284271247E+03 0.  0.
        -24    2    5    5    0    0 -0.10316135172E+03 -0.10488752262E+03  0.10233546956E+03  0.19639536381E+03  0.80342602059E+02 0.  0.
          5    1    3    3  502    0  0.10320119903E+03  0.11964130861E+03 -0.24525633322E+03  0.29178294877E+03  0.47000000000E+01 0. -1.
        -11    1    4    4    0    0  0.19910571616E+03  0.62641185925E+02 -0.20210556799E+03  0.29054029840E+03  0.00000000000E+00 0.  1.
         12    1    4    4    0    0  0.15872406726E+01 -0.11728258147E+02 -0.41913727841E+01  0.12555436191E+02  0.00000000000E+00 0. -1.
         -5    1    5    5    0  501 -0.20073280415E+03 -0.65666713761E+02  0.24070947541E+02  0.21262002839E+03  0.47000000000E+01 0.  1.
         13    1    6    6    0    0 -0.68818628419E+02 -0.57860385516E+02  0.10483534455E+03  0.13810965679E+03  0.00000000000E+00 0. -1.
        -14    1    6    6    0    0 -0.34342723304E+02 -0.47027137108E+02 -0.24998749976E+01  0.58285707025E+02  0.00000000000E+00 0.  1.
</event>
<event>
12    1  0.1348628E-002  0.1865324E+03  0.7818608E-02  0.1161627E+00
          1   -1    0    0  502    0  0.00000000000E+00  0.00000000000E+00  0.81755785390E+03  0.81755785390E+03  0.00000000000E+00 0.  1.
         -1   -1    0    0    0  501 -0.00000000000E+00 -0.00000000000E+00 -0.44149526367E+02  0.44149526367E+02  0.00000000000E+00 0. -1.
          6    2    1    2  502    0  0.15485759453E+02  0.72341633607E+02  0.46854725985E+03  0.50432367839E+03  0.17126796893E+03 0.  0.
         24    2    3    3    0    0 -0.15031143043E+02 -0.74103716089E+01  0.30593579873E+03  0.32059496272E+03  0.94358721448E+02 0.  0.
         -6    2    1    2    0  501 -0.15485759453E+02 -0.72341633607E+02  0.30486106769E+03  0.35738370187E+03  0.17120081505E+03 0.  0.
        -24    2    5    5    0    0  0.21904385101E+02 -0.22873532715E+02  0.58891025559E+02  0.10367428632E+03  0.79228808949E+02 0.  0.
          5    1    3    3  502    0  0.30516902495E+02  0.79752005216E+02  0.16261146112E+03  0.18372871567E+03  0.47000000000E+01 0. -1.
        -11    1    4    4    0    0  0.13268412762E+01 -0.15857092027E+02  0.19264571495E+01  0.16028696531E+02  0.00000000000E+00 0.  1.
         12    1    4    4    0    0 -0.16357984319E+02  0.84467204186E+01  0.30400934158E+03  0.30456626619E+03  0.00000000000E+00 0. -1.
         -5    1    5    5    0  501 -0.37390144553E+02 -0.49468100892E+02  0.24597004213E+03  0.25370941555E+03  0.47000000000E+01 0.  1.
         13    1    6    6    0    0  0.35105038638E+02  0.16107339630E+02  0.47002443342E+02  0.60836171871E+02  0.00000000000E+00 0. -1.
        -14    1    6    6    0    0 -0.13200653537E+02 -0.38980872345E+02  0.11888582217E+02  0.42838114451E+02  0.00000000000E+00 0.  1.
</event>
<event>
12    1  0.1348628E-002  0.1750174E+03  0.7818608E-02  0.1172714E+00
         -1   -1    0    0    0  501 -0.00000000000E+00  0.00000000000E+00  0.55027082280E+03  0.55027082280E+03  0.00000000000E+00 0.  1.
          1   -1    0    0  502    0  0.00000000000E+00 -0.00000000000E+00 -0.62446771280E+02  0.62446771280E+02  0.00000000000E+00 0. -1.
          6    2    1    2  502    0  0.20473515348E+02 -0.32261198670E+02  0.14160615938E+03  0.22427732852E+03  0.16967046279E+03 0.  0.
         24    2    3    3    0    0  0.31748789353E+02 -0.68799322024E+02  0.14883258105E+03  0.18507940214E+03  0.79761617203E+02 0.  0.
         -6    2    1    2    0  501 -0.20473515348E+02  0.32261198670E+02  0.34621789213E+03  0.38844026556E+03  0.17192748849E+03 0.  0.
        -24    2    5    5    0    0 -0.22578350287E+00  0.87345013146E+02  0.21196939292E+03  0.24184917850E+03  0.77011682929E+02 0.  0.
          5    1    3    3  502    0 -0.11275274005E+02  0.36538123354E+02 -0.72264216699E+01  0.39197926378E+02  0.47000000000E+01 0. -1.
        -11    1    4    4    0    0  0.47729527736E+02 -0.10015709873E+02  0.59120727446E+02  0.76639954827E+02  0.00000000000E+00 0.  1.
         12    1    4    4    0    0 -0.15980738383E+02 -0.58783612151E+02  0.89711853607E+02  0.10843944732E+03  0.00000000000E+00 0. -1.
         -5    1    5    5    0  501 -0.20247731845E+02 -0.55083814476E+02  0.13424849922E+03  0.14659108705E+03  0.47000000000E+01 0.  1.
         13    1    6    6    0    0  0.22208604319E+01 -0.11148635738E+02  0.45970946605E+01  0.12262038134E+02  0.00000000000E+00 0. -1.
        -14    1    6    6    0    0 -0.24466439347E+01  0.98493648884E+02  0.20737229826E+03  0.22958714037E+03  0.00000000000E+00 0.  1.
</event>
<event>
12    1  0.1348628E-002  0.1874185E+03  0.7818608E-02  0.1160811E+00
         -2   -1    0    0    0  501 -0.00000000000E+00  0.00000000000E+00  0.51502061969E+02  0.51502061969E+02  0.00000000000E+00 0. -1.
          2   -1    0    0  502    0  0.00000000000E+00 -0.00000000000E+00 -0.80748790292E+03  0.80748790292E+03  0.00000000000E+00 0.  1.
          6    2    1    2  502    0 -0.57725342838E+02  0.47164592224E+02 -0.54735581595E+03  0.57856603776E+03  0.17199871170E+03 0.  0.
         24    2    3    3    0    0  0.28109218891E+02 -0.65594672344E+01 -0.27188612342E+03  0.28503667286E+03  0.80564793628E+02 0.  0.
         -6    2    1    2    0  501  0.57725342838E+02 -0.47164592224E+02 -0.20863002500E+03  0.28042392713E+03  0.17191386684E+03 0.  0.
        -24    2    5    5    0    0 -0.26085954013E+02 -0.56775067418E+02 -0.11655103330E+03  0.15545462920E+03  0.81719722826E+02 0.  0.
          5    1    3    3  502    0 -0.85834561729E+02  0.53724059459E+02 -0.27546969253E+03  0.29352936489E+03  0.47000000000E+01 0. -1.
        -13    1    4    4    0    0  0.47178507225E+02  0.12924178815E+02 -0.10373719080E+03  0.11469198184E+03  0.00000000000E+00 0.  1.
         14    1    4    4    0    0 -0.19069288334E+02 -0.19483646050E+02 -0.16814893262E+03  0.17034469103E+03  0.00000000000E+00 0. -1.
         -5    1    5    5    0  501  0.83811296851E+02  0.96104751934E+01 -0.92078991700E+02  0.12496929793E+03  0.47000000000E+01 0.  1.
         13    1    6    6    0    0 -0.26884954716E+02  0.22598104886E+01 -0.25847663023E+01  0.27103294087E+02  0.00000000000E+00 0. -1.
        -14    1    6    6    0    0  0.79900070259E+00 -0.59034877906E+02 -0.11396626700E+03  0.12835133511E+03  0.00000000000E+00 0.  1.
</event>
<event>
12    1  0.1348628E-002  0.2037523E+03  0.7818608E-02  0.1146611E+00
         -2   -1    0    0    0  501 -0.00000000000E+00  0.00000000000E+00  0.56497767040E+02  0.56497767040E+02  0.00000000000E+00 0.  1.
          2   -1    0    0  502    0  0.00000000000E+00 -0.00000000000E+00 -0.92071567640E+03  0.92071567640E+03  0.00000000000E+00 0. -1.
          6    2    1    2  502    0 -0.10717679031E+03 -0.23188303294E+02 -0.65300306163E+03  0.68429038567E+03  0.17267244031E+03 0.  0.
         24    2    3    3    0    0 -0.89480380705E+02 -0.19538350001E+02 -0.22607863428E+03  0.25695791355E+03  0.80791922886E+02 0.  0.
         -6    2    1    2    0  501  0.10717679031E+03  0.23188303294E+02 -0.21121484773E+03  0.29292305776E+03  0.17078537431E+03 0.  0.
        -24    2    5    5    0    0  0.48585793928E+02  0.72526689222E+02 -0.10091977714E+03  0.15855686492E+03  0.85643318324E+02 0.  0.
          5    1    3    3  502    0 -0.17696409603E+02 -0.36499532932E+01 -0.42692442734E+03  0.42733247213E+03  0.47000000000E+01 0. -1.
        -13    1    4    4    0    0 -0.91126983572E+01 -0.76839701387E+01  0.43030266386E+01  0.12672833412E+02  0.00000000000E+00 0.  1.
         14    1    4    4    0    0 -0.80367682348E+02 -0.11854379862E+02 -0.23038166092E+03  0.24428508013E+03  0.00000000000E+00 0. -1.
         -5    1    5    5    0  501  0.58590996380E+02 -0.49338385928E+02 -0.11029507059E+03  0.13436619285E+03  0.47000000000E+01 0.  1.
         11    1    6    6    0    0  0.14018911220E+01  0.46760654854E+02 -0.93150243377E+02  0.10423767065E+03  0.00000000000E+00 0. -1.
        -12    1    6    6    0    0  0.47183902806E+02  0.25766034368E+02 -0.77695337602E+01  0.54319194268E+02  0.00000000000E+00 0.  1.
</event>
<event>
12    1  0.1348628E-002  0.7356464E+03  0.7818608E-02  0.9658142E-01
          2   -1    0    0  502    0  0.00000000000E+00  0.00000000000E+00  0.61602777586E+03  0.61602777586E+03  0.00000000000E+00 0.  1.
         -2   -1    0    0    0  501 -0.00000000000E+00 -0.00000000000E+00 -0.89016952011E+03  0.89016952011E+03  0.00000000000E+00 0. -1.
          6    2    1    2  502    0  0.18346335792E+03 -0.69124290273E+03 -0.50800520091E+02  0.73731744158E+03  0.17199058853E+03 0.  0.
         24    2    3    3    0    0  0.74399054273E+02 -0.47013442171E+03 -0.78946049743E+02  0.48912750715E+03  0.80322137268E+02 0.  0.
         -6    2    1    2    0  501 -0.18346335792E+03  0.69124290273E+03 -0.22334122416E+03  0.76887985439E+03  0.17268287063E+03 0.  0.
        -24    2    5    5    0    0 -0.14109863158E+03  0.66591937144E+03 -0.21688488262E+03  0.71888159821E+03  0.79964159765E+02 0.  0.
          5    1    3    3  502    0  0.10906430365E+03 -0.22110848102E+03  0.28145529652E+02  0.24818993442E+03  0.47000000000E+01 0. -1.
        -11    1    4    4    0    0  0.16492780142E+02 -0.11965779247E+03  0.14919835858E+02  0.12170702772E+03  0.00000000000E+00 0.  1.
         12    1    4    4    0    0  0.57906274131E+02 -0.35047662924E+03 -0.93865885601E+02  0.36742047943E+03  0.00000000000E+00 0. -1.
         -5    1    5    5    0  501 -0.42364726340E+02  0.25323531287E+02 -0.64563415341E+01  0.49998256177E+02  0.47000000000E+01 0.  1.
         13    1    6    6    0    0 -0.99902398640E+02  0.40586290766E+03 -0.17104867368E+03  0.45162245054E+03  0.00000000000E+00 0. -1.
        -14    1    6    6    0    0 -0.41196232939E+02  0.26005646378E+03 -0.45836208941E+02  0.26725914767E+03  0.00000000000E+00 0.  1.
</event>
<event>
12    1  0.1348628E-002  0.1718871E+03  0.7818608E-02  0.1175894E+00
          2   -1    0    0  502    0  0.00000000000E+00  0.00000000000E+00  0.40681814530E+04  0.40681814530E+04  0.00000000000E+00 0. -1.
         -2   -1    0    0    0  501 -0.00000000000E+00 -0.00000000000E+00 -0.72743062969E+01  0.72743062969E+01  0.00000000000E+00 0.  1.
          6    2    1    2  502    0 -0.17506672994E+02 -0.10171691884E+01  0.21053235402E+04  0.21122811143E+04  0.17040181594E+03 0.  0.
         24    2    3    3    0    0 -0.33239065296E+02  0.56567976349E+02  0.91709981830E+03  0.92254952259E+03  0.75635794991E+02 0.  0.
         -6    2    1    2    0  501  0.17506672994E+02  0.10171691884E+01  0.19555836065E+04  0.19631746450E+04  0.17158067000E+03 0.  0.
        -24    2    5    5    0    0  0.28162291700E+02  0.10441116769E+02  0.48242047597E+03  0.48993533915E+03  0.80031177158E+02 0.  0.
          5    1    3    3  502    0  0.15732392302E+02 -0.57585145538E+02  0.11882237219E+04  0.11897315917E+04  0.47000000000E+01 0. -1.
        -11    1    4    4    0    0 -0.33212188285E+00  0.10121290912E+02  0.12174574274E+02  0.15835753643E+02  0.00000000000E+00 0.  1.
         12    1    4    4    0    0 -0.32906943413E+02  0.46446685438E+02  0.90492524403E+03  0.90671376894E+03  0.00000000000E+00 0. -1.
         -5    1    5    5    0  501 -0.10655618707E+02 -0.94239475803E+01  0.14731631306E+04  0.14732393058E+04  0.47000000000E+01 0.  1.
         13    1    6    6    0    0  0.72001490132E+01  0.75032225091E+01  0.45583014295E+03  0.45594874681E+03  0.00000000000E+00 0. -1.
        -14    1    6    6    0    0  0.20962142687E+02  0.29378942597E+01  0.26590333018E+02  0.33986592338E+02  0.00000000000E+00 0.  1.
</event>
<event>
12    1  0.1348628E-002  0.1867528E+03  0.7818608E-02  0.1161423E+00
          1   -1    0    0  502    0  0.00000000000E+00  0.00000000000E+00  0.11442825422E+04  0.11442825422E+04  0.00000000000E+00 0. -1.
         -1   -1    0    0    0  501 -0.00000000000E+00 -0.00000000000E+00 -0.31510480866E+02  0.31510480866E+02  0.00000000000E+00 0.  1.
          6    2    1    2  502    0  0.12014767009E+02  0.72370986586E+02  0.45119649104E+03  0.48847381327E+03  0.17218152747E+03 0.  0.
         24    2    3    3    0    0  0.30099434542E+02  0.91643266664E+02  0.19434019710E+03  0.23021866479E+03  0.76993877202E+02 0.  0.
         -6    2    1    2    0  501 -0.12014767009E+02 -0.72370986586E+02  0.66157557029E+03  0.68731920979E+03  0.17129958148E+03 0.  0.
        -24    2    5    5    0    0 -0.54310463973E+02 -0.97198724210E+02  0.44264723217E+03  0.46291544474E+03  0.77181075032E+02 0.  0.
          5    1    3    3  502    0 -0.18084667533E+02 -0.19272280078E+02  0.25685629394E+03  0.25825514848E+03  0.47000000000E+01 0. -1.
        -13    1    4    4    0    0  0.26627686541E+02  0.49534962054E+02  0.37033596149E+02  0.67336716582E+02  0.00000000000E+00 0.  1.
         14    1    4    4    0    0  0.34717480004E+01  0.42108304610E+02  0.15730660095E+03  0.16288194821E+03  0.00000000000E+00 0. -1.
         -5    1    5    5    0  501  0.42295696964E+02  0.24827737624E+02  0.21892833812E+03  0.22440376505E+03  0.47000000000E+01 0.  1.
         11    1    6    6    0    0 -0.26140311509E+02 -0.87365507840E+02  0.21813904239E+03  0.23643326682E+03  0.00000000000E+00 0. -1.
        -12    1    6    6    0    0 -0.28170152464E+02 -0.98332163701E+01  0.22450818978E+03  0.22648217792E+03  0.00000000000E+00 0.  1.
</event>
<event>
12    1  0.1348628E-002  0.1914308E+03  0.7818608E-02  0.1157177E+00
          1   -1    0    0  502    0  0.00000000000E+00  0.00000000000E+00  0.36004338336E+03  0.36004338336E+03  0.00000000000E+00 0.  1.
         -1   -1    0    0    0  501 -0.00000000000E+00 -0.00000000000E+00 -0.10268872354E+03  0.10268872354E+03  0.00000000000E+00 0. -1.
          6    2    1    2  502    0  0.69613471781E+02  0.42760771678E+02  0.15153350242E+03  0.24559567420E+03  0.17515796808E+03 0.  0.
         24    2    3    3    0    0  0.27934443447E+02  0.86373558939E+02  0.57572866503E+02  0.13383741850E+03  0.79731391676E+02 0.  0.
         -6    2    1    2    0  501 -0.69613471781E+02 -0.42760771678E+02  0.10582115740E+03  0.21713643269E+03  0.17110112215E+03 0.  0.
        -24    2    5    5    0    0 -0.60723909562E+02 -0.14538380066E+02 -0.59477917480E+01  0.10142162941E+03  0.79700771629E+02 0.  0.
          5    1    3    3  502    0  0.41679028334E+02 -0.43612787261E+02  0.93960635921E+02  0.11175825570E+03  0.47000000000E+01 0. -1.
        -11    1    4    4    0    0 -0.34414426270E+01  0.53583550337E+02 -0.77981439280E+01  0.54257270875E+02  0.00000000000E+00 0.  1.
         12    1    4    4    0    0  0.31375886074E+02  0.32790008601E+02  0.65371010431E+02  0.79580147624E+02  0.00000000000E+00 0. -1.
         -5    1    5    5    0  501 -0.88895622193E+01 -0.28222391612E+02  0.11176894915E+03  0.11571480328E+03  0.47000000000E+01 0.  1.
         11    1    6    6    0    0 -0.33425811008E+02  0.24966274503E+02  0.20625530332E+02  0.46540436242E+02  0.00000000000E+00 0. -1.
        -12    1    6    6    0    0 -0.27298098554E+02 -0.39504654569E+02 -0.26573322080E+02  0.54881193169E+02  0.00000000000E+00 0.  1.
</event>
<event>
12    1  0.1348628E-002  0.1750588E+03  0.7818608E-02  0.1172673E+00
         -2   -1    0    0    0  501 -0.00000000000E+00  0.00000000000E+00  0.92390221522E+01  0.92390221522E+01  0.00000000000E+00 0. -1.
          2   -1    0    0  502    0  0.00000000000E+00 -0.00000000000E+00 -0.33302576763E+04  0.33302576763E+04  0.00000000000E+00 0.  1.
          6    2    1    2  502    0 -0.16353428860E+02  0.24725072231E+02 -0.15567415811E+04  0.15665733407E+04  0.17271050269E+03 0.  0.
         24    2    3    3    0    0  0.10130692183E+02 -0.50491531287E+02 -0.86141416042E+03  0.86667244914E+03  0.80216910070E+02 0.  0.
         -6    2    1    2    0  501  0.16353428860E+02 -0.24725072231E+02 -0.17642770730E+04  0.17729233577E+04  0.17235103141E+03 0.  0.
        -24    2    5    5    0    0 -0.29781436773E+02 -0.41527835985E+02 -0.58026099703E+03  0.58788035556E+03  0.79303169171E+02 0.  0.
          5    1    3    3  502    0 -0.26484121043E+02  0.75216603518E+02 -0.69532742065E+03  0.69990089157E+03  0.47000000000E+01 0. -1.
        -13    1    4    4    0    0  0.18570673532E+02  0.61680790336E+01 -0.52875945231E+03  0.52912141661E+03  0.00000000000E+00 0.  1.
         14    1    4    4    0    0 -0.84399813488E+01 -0.56659610320E+02 -0.33265470812E+03  0.33755103253E+03  0.00000000000E+00 0. -1.
         -5    1    5    5    0  501  0.46134865633E+02  0.16802763754E+02 -0.11840160760E+04  0.11850430021E+04  0.47000000000E+01 0.  1.
         11    1    6    6    0    0  0.17819008205E+02 -0.23992832032E+02 -0.86438191571E+02  0.91458919764E+02  0.00000000000E+00 0. -1.
        -12    1    6    6    0    0 -0.47600444978E+02 -0.17535003953E+02 -0.49382280546E+03  0.49642143580E+03  0.00000000000E+00 0.  1.
</event>
<event>
12    1  0.1348628E-002  0.1733612E+03  0.7818608E-02  0.1174387E+00
          1   -1    0    0  502    0  0.00000000000E+00  0.00000000000E+00  0.36230917846E+03  0.36230917846E+03  0.00000000000E+00 0. -1.
         -1   -1    0    0    0  501 -0.00000000000E+00 -0.00000000000E+00 -0.89142375533E+02  0.89142375533E+02  0.00000000000E+00 0.  1.
          6    2    1    2  502    0 -0.83947543910E+01 -0.12254352251E+02  0.19546906054E+03  0.26073758497E+03  0.17191653072E+03 0.  0.
         24    2    3    3    0    0  0.12405732707E+02 -0.21892490052E+02  0.23129140446E+02  0.86816073869E+02  0.79805327013E+02 0.  0.
         -6    2    1    2    0  501  0.83947543910E+01  0.12254352251E+02  0.77697742382E+02  0.19071396902E+03  0.17353454342E+03 0.  0.
        -24    2    5    5    0    0 -0.20511544327E+02  0.52862400451E+02  0.97711330311E+02  0.13679531375E+03  0.77138167997E+02 0.  0.
          5    1    3    3  502    0 -0.20800487098E+02  0.96381378006E+01  0.17233992010E+03  0.17392151110E+03  0.47000000000E+01 0. -1.
        -13    1    4    4    0    0  0.23854033082E+02 -0.76087356183E+01  0.49057124948E+02  0.55077302586E+02  0.00000000000E+00 0.  1.
         14    1    4    4    0    0 -0.11448300375E+02 -0.14283754433E+02 -0.25927984503E+02  0.31738771283E+02  0.00000000000E+00 0. -1.
         -5    1    5    5    0  501  0.28906298718E+02 -0.40608048200E+02 -0.20013587929E+02  0.53918655269E+02  0.47000000000E+01 0.  1.
         13    1    6    6    0    0 -0.21624925730E+02  0.85733922256E+01  0.88550538183E+02  0.91555110614E+02  0.00000000000E+00 0. -1.
        -14    1    6    6    0    0  0.11133814031E+01  0.44289008226E+02  0.91607921279E+01  0.45240203140E+02  0.00000000000E+00 0.  1.
</event>
<event>
12    1  0.1348628E-002  0.1872941E+03  0.7818608E-02  0.1160925E+00
          2   -1    0    0  502    0  0.00000000000E+00  0.00000000000E+00  0.89521552484E+03  0.89521552484E+03  0.00000000000E+00 0. -1.
         -2   -1    0    0    0  501 -0.00000000000E+00 -0.00000000000E+00 -0.43018413693E+02  0.43018413693E+02  0.00000000000E+00 0.  1.
          6    2    1    2  502    0  0.65661794910E+02  0.30523263141E+02  0.56457570247E+03  0.59459745061E+03  0.17192226021E+03 0.  0.
         24    2    3    3    0    0  0.10803015269E+02  0.46362701966E+02  0.49897296023E+03  0.50749875191E+03  0.79465482335E+02 0.  0.
         -6    2    1    2    0  501 -0.65661794910E+02 -0.30523263141E+02  0.28762140868E+03  0.34363648792E+03  0.17354198396E+03 0.  0.
        -24    2    5    5    0    0 -0.68501225766E+02 -0.13097123241E+02  0.75190662421E+02  0.13042146810E+03  0.80574009818E+02 0.  0.
          5    1    3    3  502    0  0.54858779641E+02 -0.15839438825E+02  0.65602742241E+02  0.87098698701E+02  0.47000000000E+01 0. -1.
        -11    1    4    4    0    0  0.24639567912E+02  0.57924321988E+01  0.46014667679E+02  0.52516761318E+02  0.00000000000E+00 0.  1.
         12    1    4    4    0    0 -0.13836552643E+02  0.40570269767E+02  0.45295829255E+03  0.45498199059E+03  0.00000000000E+00 0. -1.
         -5    1    5    5    0  501  0.28394308565E+01 -0.17426139901E+02  0.21243074626E+03  0.21321501982E+03  0.47000000000E+01 0.  1.
         11    1    6    6    0    0 -0.27752259287E+02 -0.42450838623E+02  0.58671047759E+02  0.77553552082E+02  0.00000000000E+00 0. -1.
        -12    1    6    6    0    0 -0.40748966479E+02  0.29353715382E+02  0.16519614662E+02  0.52867916021E+02  0.00000000000E+00 0.  1.
</event>
<event>
12    1  0.1348628E-002  0.2475779E+03  0.7818608E-02  0.1114845E+00
          1   -1    0    0  502    0  0.00000000000E+00  0.00000000000E+00  0.12984134684E+04  0.12984134684E+04  0.00000000000E+00 0.  1.
         -1   -1    0    0    0  501 -0.00000000000E+00 -0.00000000000E+00 -0.63685706518E+02  0.63685706518E+02  0.00000000000E+00 0. -1.
          6    2    1    2  502    0 -0.49934836147E+02  0.17721399003E+03  0.95350248201E+03  0.98379044420E+03  0.15741146330E+03 0.  0.
         24    2    3    3    0    0  0.10122524741E+01  0.63029595473E+02  0.22662409498E+03  0.24622149059E+03  0.72751545978E+02 0.  0.
         -6    2    1    2    0  501  0.49934836147E+02 -0.17721399003E+03  0.28122527984E+03  0.37830873069E+03  0.17358442203E+03 0.  0.
        -24    2    5    5    0    0  0.31651346740E+02 -0.18655899694E+03  0.29031578350E+03  0.35536657744E+03  0.78715202629E+02 0.  0.
          5    1    3    3  502    0 -0.50947088621E+02  0.11418439455E+03  0.72687838703E+03  0.73756895361E+03  0.47000000000E+01 0. -1.
        -13    1    4    4    0    0 -0.28702654191E+02  0.58963730005E+02  0.16859575044E+03  0.18090077634E+03  0.00000000000E+00 0.  1.
         14    1    4    4    0    0  0.29714906665E+02  0.40658654676E+01  0.58028344536E+02  0.65320714246E+02  0.00000000000E+00 0. -1.
         -5    1    5    5    0  501  0.18283489407E+02  0.93450069141E+01 -0.90905036515E+01  0.22942153250E+02  0.47000000000E+01 0.  1.
         13    1    6    6    0    0 -0.19433792146E+02 -0.11270908696E+03  0.14717169037E+03  0.18638808172E+03  0.00000000000E+00 0. -1.
        -14    1    6    6    0    0  0.51085138886E+02 -0.73849909976E+02  0.14314409313E+03  0.16897849572E+03  0.00000000000E+00 0.  1.
</event>
<event>
12    1  0.1348628E-002  0.1960803E+03  0.7818608E-02  0.1153089E+00
         -1   -1    0    0    0  501 -0.00000000000E+00  0.00000000000E+00  0.30107241472E+03  0.30107241472E+03  0.00000000000E+00 0.  1.
          1   -1    0    0  502    0  0.00000000000E+00 -0.00000000000E+00 -0.26078021185E+03  0.26078021185E+03  0.00000000000E+00 0. -1.
          6    2    1    2  502    0  0.72052101233E+02 -0.56574189142E+02 -0.18034791164E+03  0.26867355137E+03  0.17682749731E+03 0.  0.
         24    2    3    3    0    0  0.22527829695E+02  0.35346386734E+02 -0.59527900063E+02  0.10891870500E+03  0.81011377270E+02 0.  0.
         -6    2    1    2    0  501 -0.72052101233E+02  0.56574189142E+02  0.22064011451E+03  0.29317907520E+03  0.16994047732E+03 0.  0.
        -24    2    5    5    0    0  0.97943801374E+01  0.53314113202E+02  0.17358077420E+03  0.19859500614E+03  0.79820841541E+02 0.  0.
          5    1    3    3  502    0  0.49524271538E+02 -0.91920575876E+02 -0.12082001158E+03  0.15975484637E+03  0.47000000000E+01 0. -1.
        -13    1    4    4    0    0  0.32504434435E+02 -0.16507352521E+02 -0.13518852766E+02  0.38881747971E+02  0.00000000000E+00 0.  1.
         14    1    4    4    0    0 -0.99766047397E+01  0.51853739255E+02 -0.46009047297E+02  0.70036957030E+02  0.00000000000E+00 0. -1.
         -5    1    5    5    0  501 -0.81846481371E+02  0.32600759404E+01  0.47059340312E+02  0.94584069052E+02  0.47000000000E+01 0.  1.
         11    1    6    6    0    0  0.36222990265E+02  0.14530068925E+02  0.35509246375E+02  0.52764898416E+02  0.00000000000E+00 0. -1.
        -12    1    6    6    0    0 -0.26428610128E+02  0.38784044276E+02  0.13807152783E+03  0.14583010773E+03  0.00000000000E+00 0.  1.
</event>
<event>
12    1  0.1348628E-002  0.2313419E+03  0.7818608E-02  0.1125699E+00
         -1   -1    0    0    0  501 -0.00000000000E+00  0.00000000000E+00  0.19696543868E+03  0.19696543868E+03  0.00000000000E+00 0. -1.
          1   -1    0    0  502    0  0.00000000000E+00 -0.00000000000E+00 -0.31988211359E+03  0.31988211359E+03  0.00000000000E+00 0.  1.
          6    2    1    2  502    0 -0.30200119055E+01 -0.15410915630E+03 -0.16205872818E+03  0.28368782226E+03  0.17451933014E+03 0.  0.
         24    2    3    3    0    0  0.44324323539E+02 -0.11559845092E+03 -0.48320594494E+02  0.15452508157E+03  0.78838274150E+02 0.  0.
         -6    2    1    2    0  501  0.30200119055E+01  0.15410915630E+03  0.39142053264E+02  0.23315973001E+03  0.17050691140E+03 0.  0.
        -24    2    5    5    0    0 -0.43502758211E+02  0.15583472983E+03  0.42177153194E+02  0.18626999153E+03  0.82101428119E+02 0.  0.
          5    1    3    3  502    0 -0.47344335444E+02 -0.38510705379E+02 -0.11373813368E+03  0.12916274068E+03  0.47000000000E+01 0. -1.
        -11    1    4    4    0    0  0.60665270688E+02 -0.86662568665E+02 -0.57019157195E+02  0.12017429077E+03  0.00000000000E+00 0.  1.
         12    1    4    4    0    0 -0.16340947149E+02 -0.28935882256E+02  0.86985627019E+01  0.34350790803E+02  0.00000000000E+00 0. -1.
         -5    1    5    5    0  501  0.46522770116E+02 -0.17255735272E+01 -0.30350999301E+01  0.46889738481E+02  0.47000000000E+01 0.  1.
         13    1    6    6    0    0 -0.21145329863E+01  0.77304808281E+02  0.57265172597E+02  0.96227878630E+02  0.00000000000E+00 0. -1.
        -14    1    6    6    0    0 -0.41388225224E+02  0.78529921545E+02 -0.15088019403E+02  0.90042112895E+02  0.00000000000E+00 0.  1.
</event>
<event>
12    1  0.1348628E-002  0.3086189E+03  0.7818608E-02  0.1081010E+00
         -2   -1    0    0    0  501 -0.00000000000E+00  0.00000000000E+00  0.68969769135E+02  0.68969769135E+02  0.00000000000E+00 0. -1.
          2   -1    0    0  502    0  0.00000000000E+00 -0.00000000000E+00 -0.35042722455E+04  0.35042722455E+04  0.00000000000E+00 0.  1.
          6    2    1    2  502    0  0.10082963934E+03  0.23574918257E+03 -0.31085388724E+04  0.31238289916E+04  0.17189925533E+03 0.  0.
         24    2    3    3    0    0  0.34915137872E+02  0.32607515812E+02 -0.86002986056E+03  0.86519530620E+03  0.81420144165E+02 0.  0.
         -6    2    1    2    0  501 -0.10082963934E+03 -0.23574918257E+03 -0.32676360398E+03  0.44941302310E+03  0.17161969349E+03 0.  0.
        -24    2    5    5    0    0 -0.49932554525E+02 -0.16489001221E+03 -0.30550837286E+03  0.35949411454E+03  0.78858584649E+02 0.  0.
          5    1    3    3  502    0  0.65914501467E+02  0.20314166676E+03 -0.22485090119E+04  0.22586336854E+04  0.47000000000E+01 0. -1.
        -11    1    4    4    0    0  0.60528589935E+01  0.55119195868E+02 -0.60766834940E+03  0.61019307249E+03  0.00000000000E+00 0.  1.
         12    1    4    4    0    0  0.28862278879E+02 -0.22511680056E+02 -0.25236151117E+03  0.25500223371E+03  0.00000000000E+00 0. -1.
         -5    1    5    5    0  501 -0.50897084815E+02 -0.70859170362E+02 -0.21255231122E+02  0.89918908562E+02  0.47000000000E+01 0.  1.
         13    1    6    6    0    0 -0.45361999397E+02 -0.17041912543E+03 -0.26474432761E+03  0.31810367540E+03  0.00000000000E+00 0. -1.
        -14    1    6    6    0    0 -0.45705551278E+01  0.55291132183E+01 -0.40764045242E+02  0.41390439133E+02  0.00000000000E+00 0.  1.
</event>
<event>
12    1  0.1348628E-002  0.1907906E+03  0.7818608E-02  0.1157750E+00
          2   -1    0    0  502    0  0.00000000000E+00  0.00000000000E+00  0.66896262325E+03  0.66896262325E+03  0.00000000000E+00 0.  1.
         -2   -1    0    0    0  501 -0.00000000000E+00 -0.00000000000E+00 -0.16361120641E+03  0.16361120641E+03  0.00000000000E+00 0. -1.
          6    2    1    2  502    0 -0.65820366607E+02  0.53355951009E+02 -0.87554883959E+02  0.20962693303E+03  0.17058257584E+03 0.  0.
         24    2    3    3    0    0 -0.78502368508E+01  0.19616569216E+02 -0.11039399431E+03  0.13861568893E+03  0.81123604644E+02 0.  0.
         -6    2    1    2    0  501  0.65820366607E+02 -0.53355951009E+02  0.59290630080E+03  0.62294689663E+03  0.17130608956E+03 0.  0.
        -24    2    5    5    0    0  0.13264243661E+01 -0.80591013797E+02  0.27763195033E+03  0.29995893509E+03  0.79994949794E+02 0.  0.
          5    1    3    3  502    0 -0.57970129756E+02  0.33739381793E+02  0.22839110350E+02  0.71011244105E+02  0.47000000000E+01 0. -1.
        -11    1    4    4    0    0  0.15540915607E+01  0.40328829733E+02 -0.19321555704E+02  0.44745415665E+02  0.00000000000E+00 0.  1.
         12    1    4    4    0    0 -0.94043284114E+01 -0.20712260517E+02 -0.91072438606E+02  0.93870273262E+02  0.00000000000E+00 0. -1.
         -5    1    5    5    0  501  0.64493942241E+02  0.27235062788E+02  0.31527435048E+03  0.32298796154E+03  0.47000000000E+01 0.  1.
         11    1    6    6    0    0 -0.23985134681E+02  0.46761269587E+01  0.67003919815E+02  0.71320951477E+02  0.00000000000E+00 0. -1.
        -12    1    6    6    0    0  0.25311559047E+02 -0.85267140756E+02  0.21062803051E+03  0.22863798362E+03  0.00000000000E+00 0.  1.
</event>
<event>
12    1  0.1348628E-002  0.1971239E+03  0.7818608E-02  0.1152188E+00
         -2   -1    0    0    0  501 -0.00000000000E+00  0.00000000000E+00  0.51112190411E+03  0.51112190411E+03  0.00000000000E+00 0. -1.
          2   -1    0    0  502    0  0.00000000000E+00 -0.00000000000E+00 -0.12565274758E+03  0.12565274758E+03  0.00000000000E+00 0.  1.
          6    2    1    2  502    0 -0.38192257644E+01 -0.94136489558E+02  0.39255717180E+03  0.43906647581E+03  0.17263247636E+03 0.  0.
         24    2    3    3    0    0 -0.41045808700E+02 -0.38372337244E+02  0.11127256374E+03  0.14986312194E+03  0.83187602424E+02 0.  0.
         -6    2    1    2    0  501  0.38192257644E+01  0.94136489558E+02 -0.70880152661E+01  0.19770817588E+03  0.17367215579E+03 0.  0.
        -24    2    5    5    0    0  0.16385663278E+02 -0.15546955985E+02 -0.20676883570E+02  0.86374798497E+02  0.80764314520E+02 0.  0.
          5    1    3    3  502    0  0.37226582935E+02 -0.55764152313E+02  0.28128460806E+03  0.28920335387E+03  0.47000000000E+01 0. -1.
        -13    1    4    4    0    0 -0.14000139198E+02 -0.60316402710E+02  0.89354627997E+02  0.10871210548E+03  0.00000000000E+00 0.  1.
         14    1    4    4    0    0 -0.27045669502E+02  0.21944065466E+02  0.21917935745E+02  0.41151016455E+02  0.00000000000E+00 0. -1.
         -5    1    5    5    0  501 -0.12566437514E+02  0.10968344554E+03  0.13588868304E+02  0.11133337738E+03  0.47000000000E+01 0.  1.
         11    1    6    6    0    0 -0.22100430764E+02  0.86431796944E+01  0.15444452389E+02  0.28313684055E+02  0.00000000000E+00 0. -1.
        -12    1    6    6    0    0  0.38486094042E+02 -0.24190135679E+02 -0.36121335959E+02  0.58061114442E+02  0.00000000000E+00 0.  1.
</event>
<event>
12    1  0.1348628E-002  0.1722723E+03  0.7818608E-02  0.1175499E+00
          2   -1    0    0  502    0  0.00000000000E+00  0.00000000000E+00  0.14023394618E+04  0.14023394618E+04  0.00000000000E+00 0.  1.
         -2   -1    0    0    0  501 -0.00000000000E+00 -0.00000000000E+00 -0.37430757847E+02  0.37430757847E+02  0.00000000000E+00 0. -1.
          6    2    1    2  502    0  0.49532889442E+00  0.15610658793E+02  0.20697987503E+03  0.26903766554E+03  0.17116266764E+03 0.  0.
         24    2    3    3    0    0  0.23503565086E+02  0.43387551701E+01  0.28018460304E+02  0.88190457368E+02  0.80132891404E+02 0.  0.
         -6    2    1    2    0  501 -0.49532889442E+00 -0.15610658793E+02  0.11579288289E+04  0.11707325541E+04  0.17196395661E+03 0.  0.
        -24    2    5    5    0    0  0.51495069111E+02  0.15554559440E+02  0.44548724668E+03  0.45570152651E+03  0.79443740147E+02 0.  0.
          5    1    3    3  502    0 -0.23008236191E+02  0.11271903623E+02  0.17896141473E+03  0.18084720818E+03  0.47000000000E+01 0. -1.
        -11    1    4    4    0    0  0.35901495558E+02 -0.25255032382E+02  0.34036991279E+02  0.55545034155E+02  0.00000000000E+00 0.  1.
         12    1    4    4    0    0 -0.12397930472E+02  0.29593787552E+02 -0.60185309746E+01  0.32645423213E+02  0.00000000000E+00 0. -1.
         -5    1    5    5    0  501 -0.51990398006E+02 -0.31165218232E+02  0.71244158223E+03  0.71503102758E+03  0.47000000000E+01 0.  1.
         13    1    6    6    0    0  0.43888842088E+02 -0.17529069564E+02  0.12874003524E+03  0.13714042225E+03  0.00000000000E+00 0. -1.
        -14    1    6    6    0    0  0.76062270236E+01  0.33083629003E+02  0.31674721144E+03  0.31856110427E+03  0.00000000000E+00 0.  1.
</event>
<event>
12    1  0.1348628E-002  0.2320398E+03  0.7818608E-02  0.1125212E+00
         -1   -1    0    0    0  501 -0.00000000000E+00  0.00000000000E+00  0.42537283380E+02  0.42537283380E+02  0.00000000000E+00 0. -1.
          1   -1    0    0  502    0  0.00000000000E+00 -0.00000000000E+00 -0.27506921631E+04  0.27506921631E+04  0.00000000000E+00 0.  1.
          6    2    1    2  502    0  0.65647190116E+02  0.12965501962E+03 -0.34966504765E+03  0.42409142881E+03  0.19096574759E+03 0.  0.
         24    2    3    3    0    0  0.27014096843E+02  0.15210852303E+03 -0.33477552544E+03  0.37675789331E+03  0.77492538547E+02 0.  0.
         -6    2    1    2    0  501 -0.65647190116E+02 -0.12965501962E+03 -0.23584898320E+04  0.23691380176E+04  0.17094057779E+03 0.  0.
        -24    2    5    5    0    0 -0.59997581860E+02  0.11748242441E+02 -0.93692206677E+03  0.94053597304E+03  0.55201687954E+02 0.  0.
          5    1    3    3  502    0  0.38633093273E+02 -0.22453503405E+02 -0.14889522213E+02  0.47333535498E+02  0.47000000000E+01 0. -1.
        -11    1    4    4    0    0  0.12366604353E+02 -0.36306761984E+01 -0.10135561488E+02  0.16396472778E+02  0.00000000000E+00 0.  1.
         12    1    4    4    0    0  0.14647492490E+02  0.15573919923E+03 -0.32463996395E+03  0.36036142053E+03  0.00000000000E+00 0. -1.
         -5    1    5    5    0  501 -0.56496082561E+01 -0.14140326207E+03 -0.14215677653E+04  0.14286020446E+04  0.47000000000E+01 0.  1.
         11    1    6    6    0    0 -0.75592251262E+01  0.10511574193E+02 -0.39200802577E+02  0.41283628707E+02  0.00000000000E+00 0. -1.
        -12    1    6    6    0    0 -0.52438356734E+02  0.12366682484E+01 -0.89772126419E+03  0.89925234433E+03  0.00000000000E+00 0.  1.
</event>
<event>
12    1  0.1348628E-002  0.2064742E+03  0.7818608E-02  0.1144389E+00
         -2   -1    0    0    0  501 -0.00000000000E+00  0.00000000000E+00  0.10496413623E+04  0.10496413623E+04  0.00000000000E+00 0. -1.
          2   -1    0    0  502    0  0.00000000000E+00 -0.00000000000E+00 -0.46364015722E+02  0.46364015722E+02  0.00000000000E+00 0.  1.
          6    2    1    2  502    0 -0.93492898138E+02 -0.60929792107E+02  0.30979143849E+03  0.37258342244E+03  0.17433963906E+03 0.  0.
         24    2    3    3    0    0  0.79497087876E+01 -0.43502868372E+01  0.19015864432E+03  0.20577233661E+03  0.78101354892E+02 0.  0.
         -6    2    1    2    0  501  0.93492898138E+02  0.60929792107E+02  0.69348590809E+03  0.72342195558E+03  0.17309898767E+03 0.  0.
        -24    2    5    5    0    0  0.48225140020E+01 -0.23270699543E+02  0.29018624803E+03  0.30196630475E+03  0.80067524996E+02 0.  0.
          5    1    3    3  502    0 -0.10144260693E+03 -0.56579505270E+02  0.11963279416E+03  0.16681108583E+03  0.47000000000E+01 0. -1.
        -11    1    4    4    0    0 -0.20990290739E+02 -0.14758777485E+02  0.19143742981E+02  0.32014008082E+02  0.00000000000E+00 0.  1.
         12    1    4    4    0    0  0.28939999527E+02  0.10408490648E+02  0.17101490134E+03  0.17375832852E+03  0.00000000000E+00 0. -1.
         -5    1    5    5    0  501  0.88670384136E+02  0.84200491650E+02  0.40329966006E+03  0.42145565083E+03  0.47000000000E+01 0.  1.
         13    1    6    6    0    0 -0.22597675625E+02  0.20115581474E+02  0.14065637395E+03  0.14387323272E+03  0.00000000000E+00 0. -1.
        -14    1    6    6    0    0  0.27420189627E+02 -0.43386281017E+02  0.14952987408E+03  0.15809307202E+03  0.00000000000E+00 0.  1.
</event>
<event>
12    1  0.1348628E-002  0.1727945E+03  0.7818608E-02  0.1174965E+00
          1   -1    0    0  502    0  0.00000000000E+00  0.00000000000E+00  0.35323700533E+04  0.35323700533E+04  0.00000000000E+00 0.  1.
         -1   -1    0    0    0  501 -0.00000000000E+00 -0.00000000000E+00 -0.90919008106E+01  0.90919008106E+01  0.00000000000E+00 0. -1.
          6    2    1    2  502    0 -0.78907686981E+01  0.26902168785E+02  0.12816143344E+04  0.12930613771E+04  0.16937069401E+03 0.  0.
         24    2    3    3    0    0 -0.20772897268E+02  0.68497616545E+02  0.11351063650E+04  0.11401470036E+04  0.79657350040E+02 0.  0.
         -6    2    1    2    0  501  0.78907686981E+01 -0.26902168785E+02  0.22416638181E+04  0.22484005770E+04  0.17164641064E+03 0.  0.
        -24    2    5    5    0    0 -0.26846333618E+02 -0.86034023327E+02  0.14577043900E+04  0.14614331587E+04  0.52556731145E+02 0.  0.
          5    1    3    3  502    0  0.12882128570E+02 -0.41595447761E+02  0.14650796943E+03  0.15291437348E+03  0.47000000000E+01 0. -1.
        -13    1    4    4    0    0  0.58103306390E+01 -0.14200292056E+02  0.33246249018E+03  0.33281633916E+03  0.00000000000E+00 0.  1.
         14    1    4    4    0    0 -0.26583227907E+02  0.82697908602E+02  0.80264387478E+03  0.80733066449E+03  0.00000000000E+00 0. -1.
         -5    1    5    5    0  501  0.34737102316E+02  0.59131854542E+02  0.78395942814E+03  0.78696741830E+03  0.47000000000E+01 0.  1.
         11    1    6    6    0    0 -0.12065861929E+02  0.24247787235E+01  0.97219432057E+02  0.97995318997E+02  0.00000000000E+00 0. -1.
        -12    1    6    6    0    0 -0.14780471689E+02 -0.88458802050E+02  0.13604849579E+04  0.13634378397E+04  0.00000000000E+00 0.  1.
</event>
<event>
12    1  0.1348628E-002  0.1940707E+03  0.7818608E-02  0.1154840E+00
         -1   -1    0    0    0  501 -0.00000000000E+00  0.00000000000E+00  0.25856975823E+02  0.25856975823E+02  0.00000000000E+00 0.  1.
          1   -1    0    0  502    0  0.00000000000E+00 -0.00000000000E+00 -0.14943671239E+04  0.14943671239E+04  0.00000000000E+00 0. -1.
          6    2    1    2  502    0 -0.60926162666E+02 -0.65723296538E+02 -0.85825315704E+03  0.88011488579E+03  0.17312475738E+03 0.  0.
         24    2    3    3    0    0 -0.38545434562E+02 -0.11185415985E+03 -0.65954745613E+03  0.67484677060E+03  0.80113752238E+02 0.  0.
         -6    2    1    2    0  501  0.60926162666E+02  0.65723296538E+02 -0.61025699102E+03  0.64010921392E+03  0.17115683348E+03 0.  0.
        -24    2    5    5    0    0 -0.56213386841E+01  0.26857284720E+02 -0.14253139956E+03  0.16605388411E+03  0.80658411689E+02 0.  0.
          5    1    3    3  502    0 -0.22380728104E+02  0.46130863316E+02 -0.19870570091E+03  0.20526811519E+03  0.47000000000E+01 0. -1.
        -13    1    4    4    0    0  0.11598068474E+02  0.27067020479E+00 -0.16476843026E+02  0.20151297993E+02  0.00000000000E+00 0.  1.
         14    1    4    4    0    0 -0.50143503037E+02 -0.11212483006E+03 -0.64307061310E+03  0.65469547260E+03  0.00000000000E+00 0. -1.
         -5    1    5    5    0  501  0.66547501350E+02  0.38866011818E+02 -0.46772559146E+03  0.47405532981E+03  0.47000000000E+01 0.  1.
         13    1    6    6    0    0  0.20381966938E+02 -0.18706720270E+02 -0.78753171282E+02  0.83471120434E+02  0.00000000000E+00 0. -1.
        -14    1    6    6    0    0 -0.26003305622E+02  0.45564004991E+02 -0.63778228278E+02  0.82582763676E+02  0.00000000000E+00 0.  1.
</event>
<event>
12    1  0.1348628E-002  0.2362195E+03  0.7818608E-02  0.1122337E+00
          2   -1    0    0  502    0  0.00000000000E+00  0.00000000000E+00  0.86035250858E+03  0.86035250858E+03  0.00000000000E+00 0.  1.
         -2   -1    0    0    0  501 -0.00000000000E+00 -0.00000000000E+00 -0.66082231159E+02  0.66082231159E+02  0.00000000000E+00 0. -1.
          6    2    1    2  502    0 -0.14959079600E+03 -0.62019742868E+02  0.33286285556E+03  0.40774079369E+03  0.17097081468E+03 0.  0.
         24    2    3    3    0    0 -0.11699012712E+03 -0.82171116448E+01  0.11866082413E+03  0.18444250214E+03  0.78641176525E+02 0.  0.
         -6    2    1    2    0  501  0.14959079600E+03  0.62019742868E+02  0.46140742186E+03  0.51869394605E+03  0.17298192384E+03 0.  0.
        -24    2    5    5    0    0  0.15350036278E+03 -0.15880577944E+01  0.35499135777E+03  0.39456616627E+03  0.78094251855E+02 0.  0.
          5    1    3    3  502    0 -0.32600668877E+02 -0.53802631224E+02  0.21420203143E+03  0.22329829155E+03  0.47000000000E+01 0. -1.
        -11    1    4    4    0    0 -0.42964959744E+02 -0.32516624497E+01  0.98574266484E+02  0.10757995672E+03  0.00000000000E+00 0.  1.
         12    1    4    4    0    0 -0.74025167375E+02 -0.49654491951E+01  0.20086557645E+02  0.76862545421E+02  0.00000000000E+00 0. -1.
         -5    1    5    5    0  501 -0.39095667848E+01  0.63607800663E+02  0.10641606408E+03  0.12412777978E+03  0.47000000000E+01 0.  1.
         13    1    6    6    0    0  0.56888265378E+01 -0.19389337401E+02  0.22364998930E+02  0.30141372387E+02  0.00000000000E+00 0. -1.
        -14    1    6    6    0    0  0.14781153624E+03  0.17801279606E+02  0.33262635884E+03  0.36442479389E+03  0.00000000000E+00 0.  1.
</event>
<event>
12    1  0.1348628E-002  0.2270191E+03  0.7818608E-02  0.1128756E+00
          2   -1    0    0  502    0  0.00000000000E+00  0.00000000000E+00  0.22251707012E+04  0.22251707012E+04  0.00000000000E+00 0. -1.
         -2   -1    0    0    0  501 -0.00000000000E+00 -0.00000000000E+00 -0.30011451179E+02  0.30011451179E+02  0.00000000000E+00 0.  1.
          6    2    1    2  502    0 -0.13362014270E+03  0.63723690353E+02  0.55880925153E+03  0.60315749759E+03  0.17209339339E+03 0.  0.
         24    2    3    3    0    0 -0.40425047338E+02  0.36892988489E+02  0.12706802106E+03  0.16063315651E+03  0.81617718298E+02 0.  0.
         -6    2    1    2    0  501  0.13362014270E+03 -0.63723690353E+02  0.16363499985E+04  0.16520246548E+04  0.17213102927E+03 0.  0.
        -24    2    5    5    0    0  0.86423685958E+02 -0.87576171396E+02  0.76749536002E+03  0.78154954362E+03  0.81436614548E+02 0.  0.
          5    1    3    3  502    0 -0.93195095362E+02  0.26830701863E+02  0.43174123047E+03  0.44252434108E+03  0.47000000000E+01 0. -1.
        -11    1    4    4    0    0 -0.49228670964E+02  0.18079568285E+02  0.28077358412E+02  0.59486728685E+02  0.00000000000E+00 0.  1.
         12    1    4    4    0    0  0.88036236258E+01  0.18813420204E+02  0.98990662653E+02  0.10114642782E+03  0.00000000000E+00 0. -1.
         -5    1    5    5    0  501  0.47196456743E+02  0.23852481043E+02  0.86885463850E+03  0.87047511120E+03  0.47000000000E+01 0.  1.
         11    1    6    6    0    0  0.75732284114E+02 -0.90250467005E+02  0.75769961610E+03  0.76680456043E+03  0.00000000000E+00 0. -1.
        -12    1    6    6    0    0  0.10691401844E+02  0.26742956091E+01  0.97957439152E+01  0.14744983189E+02  0.00000000000E+00 0.  1.
</event>
<event>
12    1  0.1348628E-002  0.2570245E+03  0.7818608E-02  0.1108944E+00
          1   -1    0    0  502    0  0.00000000000E+00  0.00000000000E+00  0.18987283238E+03  0.18987283238E+03  0.00000000000E+00 0. -1.
         -1   -1    0    0    0  501 -0.00000000000E+00 -0.00000000000E+00 -0.36670824888E+03  0.36670824888E+03  0.00000000000E+00 0.  1.
          6    2    1    2  502    0 -0.19157518745E+03  0.17560048249E+02 -0.25802312060E+02  0.25940329099E+03  0.17208980309E+03 0.  0.
         24    2    3    3    0    0 -0.73248796417E+02 -0.45401517672E+02 -0.41910701178E+02  0.12432233823E+03  0.79201344222E+02 0.  0.
         -6    2    1    2    0  501  0.19157518745E+03 -0.17560048249E+02 -0.15103310444E+03  0.29717779027E+03  0.16880234789E+03 0.  0.
        -24    2    5    5    0    0  0.44984981439E+02  0.37712043623E+02 -0.65658753054E+02  0.11869932515E+03  0.79577705100E+02 0.  0.
          5    1    3    3  502    0 -0.11832639103E+03  0.62961565921E+02  0.16108389119E+02  0.13508095276E+03  0.47000000000E+01 0. -1.
        -11    1    4    4    0    0 -0.22866809377E+02  0.18019219053E+02 -0.31110961577E+02  0.42608393030E+02  0.00000000000E+00 0.  1.
         12    1    4    4    0    0 -0.50381987039E+02 -0.63420736725E+02 -0.10799739601E+02  0.81713945201E+02  0.00000000000E+00 0. -1.
         -5    1    5    5    0  501  0.14659020601E+03 -0.55272091873E+02 -0.85374351384E+02  0.17847846512E+03  0.47000000000E+01 0.  1.
         11    1    6    6    0    0  0.50261607130E+02  0.40551836947E+02 -0.13220895629E+02  0.65920199577E+02  0.00000000000E+00 0. -1.
        -12    1    6    6    0    0 -0.52766256905E+01 -0.28397933235E+01 -0.52437857426E+02  0.52779125572E+02  0.00000000000E+00 0.  1.
</event>
<event>
12    1  0.1348628E-002  0.2008176E+03  0.7818608E-02  0.1149051E+00
         -2   -1    0    0    0  501 -0.00000000000E+00  0.00000000000E+00  0.29126847711E+02  0.29126847711E+02  0.00000000000E+00 0. -1.
          2   -1    0    0  502    0  0.00000000000E+00 -0.00000000000E+00 -0.13888329095E+04  0.13888329095E+04  0.00000000000E+00 0.  1.
          6    2    1    2  502    0 -0.83909349632E+02  0.57497439229E+02 -0.71780227203E+03  0.74525478640E+03  0.17267848864E+03 0.  0.
         24    2    3    3    0    0 -0.76490619161E+02  0.70288988900E+02 -0.30126507236E+03  0.32842869555E+03  0.79456953456E+02 0.  0.
         -6    2    1    2    0  501  0.83909349632E+02 -0.57497439229E+02 -0.64190378978E+03  0.67270497084E+03  0.17362248697E+03 0.  0.
        -24    2    5    5    0    0  0.11255206733E+03 -0.59564455482E+02 -0.61491974045E+03  0.63301987601E+03  0.79824708025E+02 0.  0.
          5    1    3    3  502    0 -0.74187304711E+01 -0.12791549671E+02 -0.41653719967E+03  0.41682609085E+03  0.47000000000E+01 0. -1.
        -13    1    4    4    0    0 -0.20920357753E+02 -0.13135514857E+02 -0.10714897264E+03  0.10995956283E+03  0.00000000000E+00 0.  1.
         14    1    4    4    0    0 -0.55570261408E+02  0.83424503757E+02 -0.19411609972E+03  0.21846913271E+03  0.00000000000E+00 0. -1.
         -5    1    5    5    0  501 -0.28642717697E+02  0.20670162528E+01 -0.26984049334E+02  0.39685094831E+02  0.47000000000E+01 0.  1.
         11    1    6    6    0    0  0.48257199423E+02 -0.51193212994E+02 -0.17942084128E+03  0.19272088792E+03  0.00000000000E+00 0. -1.
        -12    1    6    6    0    0  0.64294867906E+02 -0.83712424878E+01 -0.43549889916E+03  0.44029898809E+03  0.00000000000E+00 0.  1.
</event>
<event>
12    1  0.1348628E-002  0.2114302E+03  0.7818608E-02  0.1140438E+00
         -2   -1    0    0    0  501 -0.00000000000E+00  0.00000000000E+00  0.65786306438E+02  0.65786306438E+02  0.00000000000E+00 0. -1.
          2   -1    0    0  502    0  0.00000000000E+00 -0.00000000000E+00 -0.74373636471E+03  0.74373636471E+03  0.00000000000E+00 0.  1.
          6    2    1    2  502    0  0.11504532794E+03 -0.43633778875E+02 -0.22042274657E+03  0.30561576612E+03  0.17226571091E+03 0.  0.
         24    2    3    3    0    0  0.73382939787E+02  0.37941662347E+02 -0.83020109576E+02  0.14041321817E+03  0.77452615509E+02 0.  0.
         -6    2    1    2    0  501 -0.11504532794E+03  0.43633778875E+02 -0.45752731170E+03  0.50390690503E+03  0.17161466674E+03 0.  0.
        -24    2    5    5    0    0 -0.75318774365E+02  0.65550000505E+02 -0.16834228112E+03  0.21114660761E+03  0.79208875481E+02 0.  0.
          5    1    3    3  502    0  0.41662388154E+02 -0.81575441222E+02 -0.13740263699E+03  0.16520254795E+03  0.47000000000E+01 0. -1.
        -13    1    4    4    0    0  0.86612414993E+02  0.29645919751E+02 -0.84686489776E+02  0.12470923197E+03  0.00000000000E+00 0.  1.
         14    1    4    4    0    0 -0.13229475206E+02  0.82957425951E+01  0.16663802008E+01  0.15703986195E+02  0.00000000000E+00 0. -1.
         -5    1    5    5    0  501 -0.39726553576E+02 -0.21916221629E+02 -0.28918503059E+03  0.29276029742E+03  0.47000000000E+01 0.  1.
         11    1    6    6    0    0 -0.13609935377E+02 -0.91578456404E+01  0.57046436802E+00  0.16414076500E+02  0.00000000000E+00 0. -1.
        -12    1    6    6    0    0 -0.61708838988E+02  0.74707846145E+02 -0.16891274548E+03  0.19473253111E+03  0.00000000000E+00 0.  1.
</event>
<event>
12    1  0.1348628E-002  0.2291187E+03  0.7818608E-02  0.1127262E+00
         -1   -1    0    0    0  501 -0.00000000000E+00  0.00000000000E+00  0.23074104048E+03  0.23074104048E+03  0.00000000000E+00 0. -1.
          1   -1    0    0  502    0  0.00000000000E+00 -0.00000000000E+00 -0.27489544905E+03  0.27489544905E+03  0.00000000000E+00 0.  1.
          6    2    1    2  502    0 -0.68739277645E+02  0.13846655441E+03 -0.12688729125E+03  0.26037353963E+03  0.16672108589E+03 0.  0.
         24    2    3    3    0    0  0.80698159041E+01  0.29334942153E+02 -0.14485237898E+02  0.85829398388E+02  0.78937967740E+02 0.  0.
         -6    2    1    2    0  501  0.68739277645E+02 -0.13846655441E+03  0.82732882683E+02  0.24526294989E+03  0.17149667556E+03 0.  0.
        -24    2    5    5    0    0  0.17533875124E+02 -0.15650382008E+03  0.66383259032E+02  0.18837062709E+03  0.79220411468E+02 0.  0.
          5    1    3    3  502    0 -0.76809093549E+02  0.10913161226E+03 -0.11240205335E+03  0.17454414125E+03  0.47000000000E+01 0. -1.
        -13    1    4    4    0    0 -0.85729371184E+01  0.29091939854E+02 -0.43114484979E+02  0.52713328773E+02  0.00000000000E+00 0.  1.
         14    1    4    4    0    0  0.16642753023E+02  0.24300229928E+00  0.28629247082E+02  0.33116069615E+02  0.00000000000E+00 0. -1.
         -5    1    5    5    0  501  0.51205402521E+02  0.18037265670E+02  0.16349623652E+02  0.56892322801E+02  0.47000000000E+01 0.  1.
         13    1    6    6    0    0  0.41236628454E+02 -0.11660749891E+03  0.24984781947E+02  0.12618243799E+03  0.00000000000E+00 0. -1.
        -14    1    6    6    0    0 -0.23702753330E+02 -0.39896321172E+02  0.41398477084E+02  0.62188189099E+02  0.00000000000E+00 0.  1.
</event>
<event>
12    1  0.1348628E-002  0.1730326E+03  0.7818608E-02  0.1174722E+00
          1   -1    0    0  502    0  0.00000000000E+00  0.00000000000E+00  0.12861941715E+04  0.12861941715E+04  0.00000000000E+00 0.  1.
         -1   -1    0    0    0  501 -0.00000000000E+00 -0.00000000000E+00 -0.23489474582E+02  0.23489474582E+02  0.00000000000E+00 0. -1.
          6    2    1    2  502    0  0.89787206573E+01 -0.12903360947E+02  0.69251722088E+03  0.71374448569E+03  0.17205805847E+03 0.  0.
         24    2    3    3    0    0  0.33967686544E+02  0.13710398637E+02  0.65582495883E+03  0.66177187069E+03  0.80584449200E+02 0.  0.
         -6    2    1    2    0  501 -0.89787206573E+01  0.12903360947E+02  0.57018747600E+03  0.59593916035E+03  0.17257639153E+03 0.  0.
        -24    2    5    5    0    0 -0.60715451361E+02 -0.78996792598E-01  0.22264703852E+03  0.24429775694E+03  0.80145605047E+02 0.  0.
          5    1    3    3  502    0 -0.24988965887E+02 -0.26613759584E+02  0.36692262055E+02  0.51972615001E+02  0.47000000000E+01 0. -1.
        -13    1    4    4    0    0  0.23661558721E+02 -0.32732426704E+02  0.26451780551E+03  0.26758353939E+03  0.00000000000E+00 0.  1.
         14    1    4    4    0    0  0.10306127823E+02  0.46442825342E+02  0.39130715331E+03  0.39418833130E+03  0.00000000000E+00 0. -1.
         -5    1    5    5    0  501  0.51736730704E+02  0.12982357739E+02  0.34754043747E+03  0.35164140341E+03  0.47000000000E+01 0.  1.
         13    1    6    6    0    0 -0.32912555246E+02 -0.40059555975E+02  0.11582684798E+03  0.12690099697E+03  0.00000000000E+00 0. -1.
        -14    1    6    6    0    0 -0.27802896115E+02  0.39980559183E+02  0.10682019054E+03  0.11739675997E+03  0.00000000000E+00 0.  1.
</event>
<event>
12    1  0.1348628E-002  0.1945473E+03  0.7818608E-02  0.1154423E+00
          1   -1    0    0  502    0  0.00000000000E+00  0.00000000000E+00  0.17488758141E+04  0.17488758141E+04  0.00000000000E+00 0.  1.
         -1   -1    0    0    0  501 -0.00000000000E+00 -0.00000000000E+00 -0.25063045073E+02  0.25063045073E+02  0.00000000000E+00 0. -1.
          6    2    1    2  502    0  0.88953810269E+02  0.71206603120E+01  0.11936316317E+04  0.12095533577E+04  0.17406713830E+03 0.  0.
         24    2    3    3    0    0 -0.76203997781E+00  0.42792868813E+02  0.79103387102E+03  0.79551412382E+03  0.72638321619E+02 0.  0.
         -6    2    1    2    0  501 -0.88953810269E+02 -0.71206603120E+01  0.53018113731E+03  0.56438550150E+03  0.17168422114E+03 0.  0.
        -24    2    5    5    0    0 -0.11313469343E+03 -0.13160228091E+02  0.27562273236E+03  0.30856669254E+03  0.79201405881E+02 0.  0.
          5    1    3    3  502    0  0.89715850247E+02 -0.35672208501E+02  0.40259776069E+03  0.41403923384E+03  0.47000000000E+01 0. -1.
        -11    1    4    4    0    0 -0.49011681596E+01 -0.10819436248E+02  0.45905455882E+03  0.45920819856E+03  0.00000000000E+00 0.  1.
         12    1    4    4    0    0  0.41391281818E+01  0.53612305061E+02  0.33197931220E+03  0.33630592526E+03  0.00000000000E+00 0. -1.
         -5    1    5    5    0  501  0.24180883160E+02  0.60395677793E+01  0.25455840495E+03  0.25581880896E+03  0.47000000000E+01 0.  1.
         13    1    6    6    0    0 -0.73465574948E+02  0.29413685092E+02  0.18003713854E+03  0.19666145231E+03  0.00000000000E+00 0. -1.
        -14    1    6    6    0    0 -0.39669118481E+02 -0.42573913183E+02  0.95585593819E+02  0.11190524023E+03  0.00000000000E+00 0.  1.
</event>
<event>
12    1  0.1348628E-002  0.1959446E+03  0.7818608E-02  0.1153206E+00
         -2   -1    0    0    0  501 -0.00000000000E+00  0.00000000000E+00  0.29431206009E+02  0.29431206009E+02  0.00000000000E+00 0.  1.
          2   -1    0    0  502    0  0.00000000000E+00 -0.00000000000E+00 -0.15315052771E+04  0.15315052771E+04  0.00000000000E+00 0. -1.
          6    2    1    2  502    0  0.77028925708E+02  0.56536552485E+02 -0.10483883870E+04  0.10663700443E+04  0.16999124701E+03 0.  0.
         24    2    3    3    0    0  0.93821295729E+02  0.14568442871E+01 -0.46005700660E+03  0.47520876242E+03  0.73255447760E+02 0.  0.
         -6    2    1    2    0  501 -0.77028925708E+02 -0.56536552485E+02 -0.45368568406E+03  0.49456643885E+03  0.17214942741E+03 0.  0.
        -24    2    5    5    0    0 -0.80424236982E+01 -0.15304469375E+02 -0.90048419741E+02  0.12212399748E+03  0.80663780598E+02 0.  0.
          5    1    3    3  502    0 -0.16792370020E+02  0.55079708197E+02 -0.58833138044E+03  0.59116128185E+03  0.47000000000E+01 0. -1.
        -11    1    4    4    0    0  0.67836979476E+02 -0.96743599566E+01 -0.16310570392E+03  0.17691500692E+03  0.00000000000E+00 0.  1.
         12    1    4    4    0    0  0.25984316253E+02  0.11131204244E+02 -0.29695130269E+03  0.29829375549E+03  0.00000000000E+00 0. -1.
         -5    1    5    5    0  501 -0.68986502010E+02 -0.41232083109E+02 -0.36363726432E+03  0.37244244137E+03  0.47000000000E+01 0.  1.
         11    1    6    6    0    0  0.13162703113E+02  0.16595624620E+02 -0.79670255743E+02  0.82437983721E+02  0.00000000000E+00 0. -1.
        -12    1    6    6    0    0 -0.21205126811E+02 -0.31900093996E+02 -0.10378163998E+02  0.39686013757E+02  0.00000000000E+00 0.  1.
</event>
<event>
12    1  0.1348628E-002  0.2889843E+03  0.7818608E-02  0.1090881E+00
         -2   -1    0    0    0  501 -0.00000000000E+00  0.00000000000E+00  0.74215867851E+02  0.74215867851E+02  0.00000000000E+00 0. -1.
          2   -1    0    0  502    0  0.00000000000E+00 -0.00000000000E+00 -0.12914290317E+04  0.12914290317E+04  0.00000000000E+00 0.  1.
          6    2    1    2  502    0  0.92139395794E+02  0.21367843913E+03 -0.85317838624E+03  0.90072800100E+03  0.17102464568E+03 0.  0.
         24    2    3    3    0    0  0.91906616836E+02  0.15684148245E+03 -0.79466978311E+03  0.81902218437E+03  0.79064514571E+02 0.  0.
         -6    2    1    2    0  501 -0.92139395794E+02 -0.21367843913E+03 -0.36403477761E+03  0.46491689856E+03  0.17169234009E+03 0.  0.
        -24    2    5    5    0    0 -0.12606140506E+03 -0.17609328605E+03 -0.33240542167E+03  0.40503490960E+03  0.81606313478E+02 0.  0.
          5    1    3    3  502    0  0.23277895817E+00  0.56836956683E+02 -0.58508603127E+02  0.81705816628E+02  0.47000000000E+01 0. -1.
        -11    1    4    4    0    0  0.50404620527E+02  0.14708245794E+03 -0.63518632570E+03  0.65393848607E+03  0.00000000000E+00 0.  1.
         12    1    4    4    0    0  0.41501996309E+02  0.97590245049E+01 -0.15948345741E+03  0.16508369830E+03  0.00000000000E+00 0. -1.
         -5    1    5    5    0  501  0.33922009264E+02 -0.37585153074E+02 -0.31629355943E+02  0.59881988957E+02  0.47000000000E+01 0.  1.
         13    1    6    6    0    0 -0.70128313716E+02 -0.36639911972E+02 -0.89951157953E+02  0.11979847391E+03  0.00000000000E+00 0. -1.
        -14    1    6    6    0    0 -0.55933091342E+02 -0.13945337408E+03 -0.24245426372E+03  0.28523643569E+03  0.00000000000E+00 0.  1.
</event>
<event>
12    1  0.1348628E-002  0.1980246E+03  0.7818608E-02  0.1151416E+00
          1   -1    0    0  502    0  0.00000000000E+00  0.00000000000E+00  0.31817535307E+03  0.31817535307E+03  0.00000000000E+00 0. -1.
         -1   -1    0    0    0  501 -0.00000000000E+00 -0.00000000000E+00 -0.12330820295E+03  0.12330820295E+03  0.00000000000E+00 0.  1.
          6    2    1    2  502    0  0.94419624667E+02 -0.22492438256E+02  0.10183964681E+03  0.22185520598E+03  0.17154429007E+03 0.  0.
         24    2    3    3    0    0  0.20931098036E+02  0.85702391071E+01  0.11602095694E+03  0.14068468776E+03  0.76287345325E+02 0.  0.
         -6    2    1    2    0  501 -0.94419624667E+02  0.22492438256E+02  0.93027503308E+02  0.21962835004E+03  0.17367072427E+03 0.  0.
        -24    2    5    5    0    0  0.52544633204E+01  0.48294575528E+02  0.60384575381E+02  0.11151579366E+03  0.80184162284E+02 0.  0.
          5    1    3    3  502    0  0.73488526631E+02 -0.31062677363E+02 -0.14181310132E+02  0.81170518222E+02  0.47000000000E+01 0. -1.
        -13    1    4    4    0    0 -0.22329667411E+02 -0.16743936606E+02  0.28918485459E+02  0.40190201057E+02  0.00000000000E+00 0.  1.
         14    1    4    4    0    0  0.43260765447E+02  0.25314175713E+02  0.87102471482E+02  0.10049448670E+03  0.00000000000E+00 0. -1.
         -5    1    5    5    0  501 -0.99674087987E+02 -0.25802137271E+02  0.32642927927E+02  0.10811255638E+03  0.47000000000E+01 0.  1.
         13    1    6    6    0    0  0.11376137136E+02  0.44781891306E+02  0.79048775784E+02  0.91561690887E+02  0.00000000000E+00 0. -1.
        -14    1    6    6    0    0 -0.61216738158E+01  0.35126842221E+01 -0.18664200403E+02  0.19954102772E+02  0.00000000000E+00 0.  1.
</event>
<event>
12    1  0.1348628E-002  0.1730635E+03  0.7818608E-02  0.1174690E+00
         -1   -1    0    0    0  501 -0.00000000000E+00  0.00000000000E+00  0.37045384248E+03  0.37045384248E+03  0.00000000000E+00 0. -1.
          1   -1    0    0  502    0  0.00000000000E+00 -0.00000000000E+00 -0.11365337275E+03  0.11365337275E+03  0.00000000000E+00 0.  1.
          6    2    1    2  502    0  0.91867189108E+00 -0.18315355499E+01  0.25929421792E+03  0.31266744403E+03  0.17470901701E+03 0.  0.
         24    2    3    3    0    0  0.51138839005E+02 -0.47868390399E+02  0.17246496803E+03  0.20220086163E+03  0.78958594166E+02 0.  0.
         -6    2    1    2    0  501 -0.91867189108E+00  0.18315355499E+01 -0.24937481925E+01  0.17143977120E+03  0.17140938681E+03 0.  0.
        -24    2    5    5    0    0  0.21622263973E+02  0.47233225059E+02  0.44552811583E+02  0.10212255842E+03  0.75799499142E+02 0.  0.
          5    1    3    3  502    0 -0.50220167114E+02  0.46036854849E+02  0.86829249890E+02  0.11046658239E+03  0.47000000000E+01 0. -1.
        -11    1    4    4    0    0  0.46991088249E+02  0.71054372256E+01  0.10364767324E+03  0.11402407544E+03  0.00000000000E+00 0.  1.
         12    1    4    4    0    0  0.41477507558E+01 -0.54973827625E+02  0.68817294797E+02  0.88176786193E+02  0.00000000000E+00 0. -1.
         -5    1    5    5    0  501 -0.22540935864E+02 -0.45401689509E+02 -0.47046559775E+02  0.69317212773E+02  0.47000000000E+01 0.  1.
         13    1    6    6    0    0  0.22235626260E+02  0.30691742231E+02 -0.14662374936E+02  0.40637314812E+02  0.00000000000E+00 0. -1.
        -14    1    6    6    0    0 -0.61336228693E+00  0.16541482828E+02  0.59215186519E+02  0.61485243611E+02  0.00000000000E+00 0.  1.
</event>
<event>
12    1  0.1348628E-002  0.1730468E+03  0.7818608E-02  0.1174707E+00
         -2   -1    0    0    0  501 -0.00000000000E+00  0.00000000000E+00  0.33903443110E+02  0.33903443110E+02  0.00000000000E+00 0.  1.
          2   -1    0    0  502    0  0.00000000000E+00 -0.00000000000E+00 -0.10356615577E+04  0.10356615577E+04  0.00000000000E+00 0. -1.
          6    2    1    2  502    0 -0.16345541681E+02 -0.20264313998E+02 -0.29505944268E+03  0.34192359172E+03  0.17080353833E+03 0.  0.
         24    2    3    3    0    0 -0.60689407955E+02 -0.38205573026E+02 -0.12577913527E+03  0.16595149243E+03  0.81096466769E+02 0.  0.
         -6    2    1    2    0  501  0.16345541681E+02  0.20264313998E+02 -0.70669867191E+03  0.72764140909E+03  0.17135106707E+03 0.  0.
        -24    2    5    5    0    0 -0.17776680967E+02  0.19197689142E+02 -0.67589986498E+03  0.68142322787E+03  0.82537423899E+02 0.  0.
          5    1    3    3  502    0  0.44343866274E+02  0.17941259028E+02 -0.16928030742E+03  0.17597209930E+03  0.47000000000E+01 0. -1.
        -11    1    4    4    0    0 -0.43383850159E+02  0.30237050074E+01 -0.14203512903E+02  0.45749765304E+02  0.00000000000E+00 0.  1.
         12    1    4    4    0    0 -0.17305557796E+02 -0.41229278034E+02 -0.11157562236E+03  0.12020172712E+03  0.00000000000E+00 0. -1.
         -5    1    5    5    0  501  0.34122222648E+02  0.10666248560E+01 -0.30798806930E+02  0.46218181221E+02  0.47000000000E+01 0.  1.
         11    1    6    6    0    0  0.28474805492E+02  0.19676691332E+02 -0.17484272939E+03  0.17823570560E+03  0.00000000000E+00 0. -1.
        -12    1    6    6    0    0 -0.46251486459E+02 -0.47900218933E+00 -0.50105713558E+03  0.50318752226E+03  0.00000000000E+00 0.  1.
</event>
<event>
12    1  0.1348628E-002  0.2075762E+03  0.7818608E-02  0.1143500E+00
          2   -1    0    0  502    0  0.00000000000E+00  0.00000000000E+00  0.49857426561E+03  0.49857426561E+03  0.00000000000E+00 0.  1.
         -2   -1    0    0    0  501 -0.00000000000E+00 -0.00000000000E+00 -0.86947123699E+02  0.86947123699E+02  0.00000000000E+00 0. -1.
          6    2    1    2  502    0  0.10817841080E+03  0.87101463142E+01  0.23209098774E+03  0.31442144916E+03  0.18225308198E+03 0.  0.
         24    2    3    3    0    0  0.12269766776E+03  0.27130263455E+00  0.25079683760E+03  0.28884760072E+03  0.74020884956E+02 0.  0.
         -6    2    1    2    0  501 -0.10817841080E+03 -0.87101463142E+01  0.17953615417E+03  0.27109994015E+03  0.17170763432E+03 0.  0.
        -24    2    5    5    0    0 -0.94164737884E+02  0.52533816014E+02  0.10193198379E+03  0.17114143270E+03  0.85278725263E+02 0.  0.
          5    1    3    3  502    0 -0.14519256964E+02  0.84388436797E+01 -0.18705849858E+02  0.25573848446E+02  0.47000000000E+01 0. -1.
        -11    1    4    4    0    0  0.55302699242E+02  0.32406430506E+02  0.15238950197E+03  0.16532127991E+03  0.00000000000E+00 0.  1.
         12    1    4    4    0    0  0.67394968520E+02 -0.32135127872E+02  0.98407335633E+02  0.12352632080E+03  0.00000000000E+00 0. -1.
         -5    1    5    5    0  501 -0.14013672914E+02 -0.61243962328E+02  0.77604170380E+02  0.99958507445E+02  0.47000000000E+01 0.  1.
         13    1    6    6    0    0 -0.19073094233E+02  0.52819137019E+02  0.19048513297E+02  0.59300000151E+02  0.00000000000E+00 0. -1.
        -14    1    6    6    0    0 -0.75091643651E+02 -0.28532100524E+00  0.82883470494E+02  0.11184143255E+03  0.00000000000E+00 0.  1.
</event>
<event>
12    1  0.1348628E-002  0.2580315E+03  0.7818608E-02  0.1108332E+00
          1   -1    0    0  502    0  0.00000000000E+00  0.00000000000E+00  0.16575290422E+04  0.16575290422E+04  0.00000000000E+00 0.  1.
         -1   -1    0    0    0  501 -0.00000000000E+00 -0.00000000000E+00 -0.41349303433E+02  0.41349303433E+02  0.00000000000E+00 0. -1.
          6    2    1    2  502    0  0.19141166384E+03  0.73858801059E+01  0.95116890769E+03  0.98550631450E+03  0.17264828029E+03 0.  0.
         24    2    3    3    0    0  0.14510179476E+03 -0.53106714664E+02  0.74308356887E+03  0.76386345712E+03  0.86251590212E+02 0.  0.
         -6    2    1    2    0  501 -0.19141166384E+03 -0.73858801059E+01  0.66501083111E+03  0.71337203116E+03  0.17311058048E+03 0.  0.
        -24    2    5    5    0    0 -0.14230752138E+03 -0.65854361384E+02  0.39060668917E+03  0.42850451244E+03  0.80338683104E+02 0.  0.
          5    1    3    3  502    0  0.46309869080E+02  0.60492594770E+02  0.20808533883E+03  0.22164285739E+03  0.47000000000E+01 0. -1.
        -11    1    4    4    0    0  0.12931335330E+03 -0.13282145978E+02  0.47891818789E+03  0.49624690370E+03  0.00000000000E+00 0.  1.
         12    1    4    4    0    0  0.15788441465E+02 -0.39824568686E+02  0.26416538098E+03  0.26761655342E+03  0.00000000000E+00 0. -1.
         -5    1    5    5    0  501 -0.49104142457E+02  0.58468481278E+02  0.27440414193E+03  0.28486751872E+03  0.47000000000E+01 0.  1.
         13    1    6    6    0    0 -0.42981806817E+02  0.41579412660E+01  0.45971258347E+02  0.63072028561E+02  0.00000000000E+00 0. -1.
        -14    1    6    6    0    0 -0.99325714568E+02 -0.70012302650E+02  0.34463543083E+03  0.36543248388E+03  0.00000000000E+00 0.  1.
</event>
<event>
12    1  0.1348628E-002  0.2033801E+03  0.7818608E-02  0.1146918E+00
         -2   -1    0    0    0  501 -0.00000000000E+00  0.00000000000E+00  0.45254932764E+02  0.45254932764E+02  0.00000000000E+00 0.  1.
          2   -1    0    0  502    0  0.00000000000E+00 -0.00000000000E+00 -0.14988429483E+04  0.14988429483E+04  0.00000000000E+00 0. -1.
          6    2    1    2  502    0  0.98852239606E+02  0.46481741439E+02 -0.24611182128E+03  0.31973284675E+03  0.17241156329E+03 0.  0.
         24    2    3    3    0    0  0.97083436583E+02 -0.25766813105E+02 -0.18236871688E+03  0.22325354505E+03  0.80589541283E+02 0.  0.
         -6    2    1    2    0  501 -0.98852239606E+02 -0.46481741439E+02 -0.12074761943E+04  0.12243650343E+04  0.17070049793E+03 0.  0.
        -24    2    5    5    0    0 -0.11221508222E+03 -0.66451129522E+01 -0.11049584121E+04  0.11134709038E+04  0.79044157644E+02 0.  0.
          5    1    3    3  502    0  0.17688030238E+01  0.72248554545E+02 -0.63743104392E+02  0.96479301694E+02  0.47000000000E+01 0. -1.
        -13    1    4    4    0    0  0.58036852745E+02  0.13213144396E+02 -0.43198412969E+02  0.73545675226E+02  0.00000000000E+00 0.  1.
         14    1    4    4    0    0  0.39046583838E+02 -0.38979957501E+02 -0.13917030392E+03  0.14970786983E+03  0.00000000000E+00 0. -1.
         -5    1    5    5    0  501  0.13362842613E+02 -0.39836628487E+02 -0.10251778215E+03  0.11089413055E+03  0.47000000000E+01 0.  1.
         11    1    6    6    0    0 -0.36455202049E+02 -0.25989760168E+02 -0.19113925393E+03  0.19631266842E+03  0.00000000000E+00 0. -1.
        -12    1    6    6    0    0 -0.75759880171E+02  0.19344647216E+02 -0.91381915818E+03  0.91715823535E+03  0.00000000000E+00 0.  1.
</event>
<event>
12    1  0.1348628E-002  0.1922447E+03  0.7818608E-02  0.1156452E+00
          2   -1    0    0  502    0  0.00000000000E+00  0.00000000000E+00  0.23106967288E+03  0.23106967288E+03  0.00000000000E+00 0. -1.
         -2   -1    0    0    0  501 -0.00000000000E+00 -0.00000000000E+00 -0.16304225213E+03  0.16304225213E+03  0.00000000000E+00 0.  1.
          6    2    1    2  502    0 -0.87519910338E+02  0.16839585191E+02  0.61355812548E+02  0.20290027374E+03  0.17164113439E+03 0.  0.
         24    2    3    3    0    0 -0.22316613520E+02  0.68687399733E+02  0.49094595401E+02  0.11856704640E+03  0.80198971767E+02 0.  0.
         -6    2    1    2    0  501  0.87519910338E+02 -0.16839585191E+02  0.66716082082E+01  0.19121165127E+03  0.16903869051E+03 0.  0.
        -24    2    5    5    0    0  0.46200111864E+01 -0.67454343891E+01 -0.45373971933E+02  0.92697096140E+02  0.80418336935E+02 0.  0.
          5    1    3    3  502    0 -0.65203296818E+02 -0.51847814542E+02  0.12261217147E+02  0.84333227346E+02  0.47000000000E+01 0. -1.
        -11    1    4    4    0    0  0.28129033031E+02  0.42376129538E+02  0.19877141748E+02  0.54608420761E+02  0.00000000000E+00 0.  1.
         12    1    4    4    0    0 -0.50445646551E+02  0.26311270195E+02  0.29217453653E+02  0.63958625635E+02  0.00000000000E+00 0. -1.
         -5    1    5    5    0  501  0.82899899151E+02 -0.10094150802E+02  0.52045580142E+02  0.98514555128E+02  0.47000000000E+01 0.  1.
         11    1    6    6    0    0  0.85137269110E+01  0.17264010657E+02 -0.60880775981E+02  0.63851378168E+02  0.00000000000E+00 0. -1.
        -12    1    6    6    0    0 -0.38937157246E+01 -0.24009445046E+02  0.15506804048E+02  0.28845717972E+02  0.00000000000E+00 0.  1.
</event>
<event>
12    1  0.1348628E-002  0.2442598E+03  0.7818608E-02  0.1116987E+00
         -1   -1    0    0    0  501 -0.00000000000E+00  0.00000000000E+00  0.17887108675E+03  0.17887108675E+03  0.00000000000E+00 0.  1.
          1   -1    0    0  502    0  0.00000000000E+00 -0.00000000000E+00 -0.56984044012E+03  0.56984044012E+03  0.00000000000E+00 0. -1.
          6    2    1    2  502    0 -0.15421041948E+03 -0.75296523616E+02 -0.43659310849E+03  0.50032460664E+03  0.17395617171E+03 0.  0.
         24    2    3    3    0    0 -0.18520015216E+02 -0.60340217832E+02 -0.12073861896E+03  0.15620002825E+03  0.76398310615E+02 0.  0.
         -6    2    1    2    0  501  0.15421041948E+03  0.75296523616E+02  0.45623755122E+02  0.24838692023E+03  0.17367819427E+03 0.  0.
        -24    2    5    5    0    0  0.73321448383E+02  0.71239454851E+02 -0.34491227250E+02  0.13436943976E+03  0.80089992285E+02 0.  0.
          5    1    3    3  502    0 -0.13569040427E+03 -0.14956305784E+02 -0.31585448953E+03  0.34412457839E+03  0.47000000000E+01 0. -1.
        -13    1    4    4    0    0 -0.41417299668E+02 -0.31341101685E+02 -0.34428513223E+02  0.62313561039E+02  0.00000000000E+00 0.  1.
         14    1    4    4    0    0  0.22897284452E+02 -0.28999116147E+02 -0.86310105741E+02  0.93886467212E+02  0.00000000000E+00 0. -1.
         -5    1    5    5    0  501  0.80888971101E+02  0.40570687655E+01  0.80114982372E+02  0.11401748047E+03  0.47000000000E+01 0.  1.
         13    1    6    6    0    0 -0.41222446430E+01  0.48948404728E+02 -0.16282699640E+02  0.51750029313E+02  0.00000000000E+00 0. -1.
        -14    1    6    6    0    0  0.77443693026E+02  0.22291050123E+02 -0.18208527610E+02  0.82619410448E+02  0.00000000000E+00 0.  1.
</event>
<event>
12    1  0.1348628E-002  0.2413191E+03  0.7818608E-02  0.1118917E+00
         -2   -1    0    0    0  501 -0.00000000000E+00  0.00000000000E+00  0.28512189568E+03  0.28512189568E+03  0.00000000000E+00 0.  1.
          2   -1    0    0  502    0  0.00000000000E+00 -0.00000000000E+00 -0.21880454564E+03  0.21880454564E+03  0.00000000000E+00 0. -1.
          6    2    1    2  502    0  0.10431713629E+03  0.13324434528E+03  0.98211648090E+02  0.26097953239E+03  0.17270977979E+03 0.  0.
         24    2    3    3    0    0  0.10131777842E+03  0.16050816381E+03  0.61313018568E+02  0.21476361729E+03  0.79598757472E+02 0.  0.
         -6    2    1    2    0  501 -0.10431713629E+03 -0.13324434528E+03 -0.31894298049E+02  0.24294690893E+03  0.17137629310E+03 0.  0.
        -24    2    5    5    0    0 -0.53199209796E+02 -0.12181753810E+03 -0.75529810527E+02  0.17461125000E+03  0.84348490432E+02 0.  0.
          5    1    3    3  502    0  0.29993578716E+01 -0.27263818532E+02  0.36898629522E+02  0.46215915107E+02  0.47000000000E+01 0. -1.
        -13    1    4    4    0    0  0.43738323459E+02  0.10275877246E+03  0.71458912613E+02  0.13258500084E+03  0.00000000000E+00 0.  1.
         14    1    4    4    0    0  0.57579454960E+02  0.57749391349E+02 -0.10145894046E+02  0.82178616444E+02  0.00000000000E+00 0. -1.
         -5    1    5    5    0  501 -0.51117926495E+02 -0.11426807178E+02  0.43635512479E+02  0.68335658925E+02  0.47000000000E+01 0.  1.
         13    1    6    6    0    0 -0.29159737660E+02  0.23231413431E+01 -0.24863956186E+02  0.38391452217E+02  0.00000000000E+00 0. -1.
        -14    1    6    6    0    0 -0.24039472136E+02 -0.12414067944E+03 -0.50665854342E+02  0.13621979779E+03  0.00000000000E+00 0.  1.
</event>
<event>
12    1  0.1348628E-002  0.2004822E+03  0.7818608E-02  0.1149333E+00
         -2   -1    0    0    0  501 -0.00000000000E+00  0.00000000000E+00  0.29668686112E+02  0.29668686112E+02  0.00000000000E+00 0.  1.
          2   -1    0    0  502    0  0.00000000000E+00 -0.00000000000E+00 -0.15536059721E+04  0.15536059721E+04  0.00000000000E+00 0. -1.
          6    2    1    2  502    0  0.59692005716E+02 -0.82723288975E+02 -0.10451979894E+04  0.10642515443E+04  0.17258688960E+03 0.  0.
         24    2    3    3    0    0  0.70978016930E+02 -0.18392929863E+02 -0.34082077640E+03  0.35683715562E+03  0.76143123439E+02 0.  0.
         -6    2    1    2    0  501 -0.59692005716E+02  0.82723288975E+02 -0.47873929655E+03  0.51902311385E+03  0.17259026788E+03 0.  0.
        -24    2    5    5    0    0 -0.77430908156E+02  0.90437725458E+02 -0.47753829269E+03  0.49908035576E+03  0.82848372325E+02 0.  0.
          5    1    3    3  502    0 -0.11286011214E+02 -0.64330359111E+02 -0.70437721301E+03  0.70741438872E+03  0.47000000000E+01 0. -1.
        -11    1    4    4    0    0  0.32517015689E+02  0.82432832758E+01 -0.26925290028E+03  0.27133453952E+03  0.00000000000E+00 0.  1.
         12    1    4    4    0    0  0.38461001241E+02 -0.26636213139E+02 -0.71567876121E+02  0.85502616096E+02  0.00000000000E+00 0. -1.
         -5    1    5    5    0  501  0.17738902440E+02 -0.77144364836E+01 -0.12010038599E+01  0.19942758092E+02  0.47000000000E+01 0.  1.
         13    1    6    6    0    0 -0.37068555335E+02 -0.84124990889E+01 -0.13897853268E+03  0.14408289448E+03  0.00000000000E+00 0. -1.
        -14    1    6    6    0    0 -0.40362352820E+02  0.98850224547E+02 -0.33855976001E+03  0.35499746128E+03  0.00000000000E+00 0.  1.
</event>
<event>
12    1  0.1348628E-002  0.1833501E+03  0.7818608E-02  0.1164600E+00
         -2   -1    0    0    0  501 -0.00000000000E+00  0.00000000000E+00  0.18059923012E+03  0.18059923012E+03  0.00000000000E+00 0.  1.
          2   -1    0    0  502    0  0.00000000000E+00 -0.00000000000E+00 -0.30897300696E+03  0.30897300696E+03  0.00000000000E+00 0. -1.
          6    2    1    2  502    0 -0.56338736123E+02 -0.22085354692E+02  0.90348223572E+02  0.20355663162E+03  0.17207755430E+03 0.  0.
         24    2    3    3    0    0 -0.94385988752E+02 -0.39247137379E+02  0.95252720855E+02  0.16126875734E+03  0.80532469210E+02 0.  0.
         -6    2    1    2    0  501  0.56338736123E+02  0.22085354692E+02 -0.21872200041E+03  0.28601560547E+03  0.17407985819E+03 0.  0.
        -24    2    5    5    0    0  0.83087763110E+02 -0.24645165420E+02 -0.10355992441E+03  0.15880064682E+03  0.83558523979E+02 0.  0.
          5    1    3    3  502    0  0.38047252629E+02  0.17161782687E+02 -0.49044972828E+01  0.42287874281E+02  0.47000000000E+01 0. -1.
        -11    1    4    4    0    0 -0.43437659018E+02 -0.12173110044E+02  0.93192558699E+02  0.10353679455E+03  0.00000000000E+00 0.  1.
         12    1    4    4    0    0 -0.50948329734E+02 -0.27074027335E+02  0.20601621562E+01  0.57731962784E+02  0.00000000000E+00 0. -1.
         -5    1    5    5    0  501 -0.26749026987E+02  0.46730520112E+02 -0.11516207600E+03  0.12721495865E+03  0.47000000000E+01 0.  1.
         13    1    6    6    0    0  0.88016512848E+02 -0.25582982337E+02 -0.11455708989E+03  0.14671306132E+03  0.00000000000E+00 0. -1.
        -14    1    6    6    0    0 -0.49287497376E+01  0.93781691683E+00  0.10997165479E+02  0.12087585496E+02  0.00000000000E+00 0.  1.
</event>
<event>
12    1  0.1348628E-002  0.1917951E+03  0.7818608E-02  0.1156852E+00
          1   -1    0    0  502    0  0.00000000000E+00  0.00000000000E+00  0.68261466907E+03  0.68261466907E+03  0.00000000000E+00 0. -1.
         -1   -1    0    0    0  501 -0.00000000000E+00 -0.00000000000E+00 -0.59769881067E+02  0.59769881067E+02  0.00000000000E+00 0.  1.
          6    2    1    2  502    0 -0.78262751314E+02 -0.38219911602E+02  0.42668706462E+03  0.46748738647E+03  0.16999054537E+03 0.  0.
         24    2    3    3    0    0 -0.53734355267E+02 -0.86388047606E+02  0.35265786116E+03  0.37570381222E+03  0.80221641547E+02 0.  0.
         -6    2    1    2    0  501  0.78262751314E+02  0.38219911602E+02  0.19615772339E+03  0.27489716367E+03  0.17176954986E+03 0.  0.
        -24    2    5    5    0    0  0.95583830504E+02 -0.33219594643E+01  0.74077154955E+02  0.14469922964E+03  0.79392305060E+02 0.  0.
          5    1    3    3  502    0 -0.24528396046E+02  0.48168136004E+02  0.74029203456E+02  0.91783574255E+02  0.47000000000E+01 0. -1.
        -11    1    4    4    0    0  0.91788958034E+01 -0.49866336578E+02  0.20392404863E+03  0.21013310368E+03  0.00000000000E+00 0.  1.
         12    1    4    4    0    0 -0.62913251071E+02 -0.36521711028E+02  0.14873381253E+03  0.16557070854E+03  0.00000000000E+00 0. -1.
         -5    1    5    5    0  501 -0.17321079190E+02  0.41541871067E+02  0.12208056843E+03  0.13019793403E+03  0.47000000000E+01 0.  1.
         13    1    6    6    0    0  0.64274623566E+02 -0.20144990999E+02  0.84120292588E+02  0.10776489002E+03  0.00000000000E+00 0. -1.
        -14    1    6    6    0    0  0.31309206938E+02  0.16823031535E+02 -0.10043137633E+02  0.36934339613E+02  0.00000000000E+00 0.  1.
</event>
<event>
12    1  0.1348628E-002  0.1873872E+03  0.7818608E-02  0.1160839E+00
          1   -1    0    0  502    0  0.00000000000E+00  0.00000000000E+00  0.82215352856E+02  0.82215352856E+02  0.00000000000E+00 0.  1.
         -1   -1    0    0    0  501 -0.00000000000E+00 -0.00000000000E+00 -0.51321358637E+03  0.51321358637E+03  0.00000000000E+00 0. -1.
          6    2    1    2  502    0  0.65602760580E+02 -0.15697183337E+02 -0.33590861471E+03  0.38387373259E+03  0.17313093708E+03 0.  0.
         24    2    3    3    0    0  0.10705741606E+02 -0.66992668100E+02 -0.16032208015E+03  0.19283020203E+03  0.82931821088E+02 0.  0.
         -6    2    1    2    0  501 -0.65602760580E+02  0.15697183337E+02 -0.95089618806E+02  0.21155520664E+03  0.17653171412E+03 0.  0.
        -24    2    5    5    0    0 -0.57507060096E+02 -0.54786237101E+02 -0.32454771908E+02  0.11679937849E+03  0.79247642605E+02 0.  0.
          5    1    3    3  502    0  0.54897018974E+02  0.51295484763E+02 -0.17558653456E+03  0.19104353056E+03  0.47000000000E+01 0. -1.
        -13    1    4    4    0    0  0.15344013556E+02  0.15895684670E+02 -0.20062066239E+02  0.29842889353E+02  0.00000000000E+00 0.  1.
         14    1    4    4    0    0 -0.46382719503E+01 -0.82888352770E+02 -0.14026001391E+03  0.16298731267E+03  0.00000000000E+00 0. -1.
         -5    1    5    5    0  501 -0.80957004836E+01  0.70483420438E+02 -0.62634846898E+02  0.94755828153E+02  0.47000000000E+01 0.  1.
         11    1    6    6    0    0  0.14234969566E+02  0.83088999580E+01 -0.24836928003E+01  0.16668560435E+02  0.00000000000E+00 0. -1.
        -12    1    6    6    0    0 -0.71742029663E+02 -0.63095137059E+02 -0.29971079107E+02  0.10013081805E+03  0.00000000000E+00 0.  1.
</event>
<event>
12    1  0.1348628E-002  0.1915784E+03  0.7818608E-02  0.1157045E+00
          2   -1    0    0  502    0  0.00000000000E+00  0.00000000000E+00  0.27263869972E+03  0.27263869972E+03  0.00000000000E+00 0.  1.
         -2   -1    0    0    0  501 -0.00000000000E+00 -0.00000000000E+00 -0.14640904062E+03  0.14640904062E+03  0.00000000000E+00 0. -1.
          6    2    1    2  502    0 -0.53730183097E+01 -0.83404638754E+02  0.34286165542E+01  0.19083863965E+03  0.17152967055E+03 0.  0.
         24    2    3    3    0    0  0.28969069129E+02 -0.18752069213E+01  0.40774481023E+02  0.94696917085E+02  0.80387962006E+02 0.  0.
         -6    2    1    2    0  501  0.53730183097E+01  0.83404638754E+02  0.12280104255E+03  0.22820910069E+03  0.17324576328E+03 0.  0.
        -24    2    5    5    0    0 -0.45999869022E+02  0.66415095435E+02  0.25867645878E+02  0.11709658328E+03  0.80718782580E+02 0.  0.
          5    1    3    3  502    0 -0.34342087439E+02 -0.81529431833E+02 -0.37345864469E+02  0.96141722564E+02  0.47000000000E+01 0. -1.
        -11    1    4    4    0    0  0.20914005033E+02 -0.34614783139E+02  0.45245839118E+02  0.60685787263E+02  0.00000000000E+00 0.  1.
         12    1    4    4    0    0  0.80550640956E+01  0.32739576218E+02 -0.44713580949E+01  0.34011129821E+02  0.00000000000E+00 0. -1.
         -5    1    5    5    0  501  0.51372887331E+02  0.16989543319E+02  0.96933396670E+02  0.11111251741E+03  0.47000000000E+01 0.  1.
         11    1    6    6    0    0 -0.67948134082E+02  0.37511598576E+02  0.13671850710E+02  0.78809824609E+02  0.00000000000E+00 0. -1.
        -12    1    6    6    0    0  0.21948265061E+02  0.28903496859E+02  0.12195795169E+02  0.38286758672E+02  0.00000000000E+00 0.  1.
</event>
<event>
12    1  0.1348628E-002  0.2376291E+03  0.7818608E-02  0.1121382E+00
         -1   -1    0    0    0  501 -0.00000000000E+00  0.00000000000E+00  0.23306927972E+03  0.23306927972E+03  0.00000000000E+00 0. -1.
          1   -1    0    0  502    0  0.00000000000E+00 -0.00000000000E+00 -0.25692309669E+03  0.25692309669E+03  0.00000000000E+00 0.  1.
          6    2    1    2  502    0 -0.11451783352E+03  0.11694357304E+03  0.46509890938E+02  0.24311478684E+03  0.17364186176E+03 0.  0.
         24    2    3    3    0    0 -0.26332833137E+02  0.43070396159E+01  0.52504487901E+02  0.99861137156E+02  0.80644632637E+02 0.  0.
         -6    2    1    2    0  501  0.11451783352E+03 -0.11694357304E+03 -0.70363707909E+02  0.24687758957E+03  0.17090160728E+03 0.  0.
        -24    2    5    5    0    0  0.63225016619E+02 -0.29008046974E+02 -0.94490574766E+02  0.14215029840E+03  0.80245679642E+02 0.  0.
          5    1    3    3  502    0 -0.88185000385E+02  0.11263653342E+03 -0.59945969632E+01  0.14325364968E+03  0.47000000000E+01 0. -1.
        -11    1    4    4    0    0 -0.53482308010E+02  0.13157095768E+02  0.42626340913E+02  0.69645325606E+02  0.00000000000E+00 0.  1.
         12    1    4    4    0    0  0.27149474873E+02 -0.88500561521E+01  0.98781469881E+01  0.30215811551E+02  0.00000000000E+00 0. -1.
         -5    1    5    5    0  501  0.51292816903E+02 -0.87935526063E+02  0.24126866858E+02  0.10472729116E+03  0.47000000000E+01 0.  1.
         13    1    6    6    0    0 -0.51749470575E+01  0.19988127306E+02 -0.28642422491E+02  0.35308549621E+02  0.00000000000E+00 0. -1.
        -14    1    6    6    0    0  0.68399963677E+02 -0.48996174280E+02 -0.65848152275E+02  0.10684174878E+03  0.00000000000E+00 0.  1.
</event>
<event>
12    1  0.1348628E-002  0.2625786E+03  0.7818608E-02  0.1105604E+00
         -2   -1    0    0    0  501 -0.00000000000E+00  0.00000000000E+00  0.20832665475E+02  0.20832665475E+02  0.00000000000E+00 0.  1.
          2   -1    0    0  502    0  0.00000000000E+00 -0.00000000000E+00 -0.37407605373E+04  0.37407605373E+04  0.00000000000E+00 0. -1.
          6    2    1    2  502    0  0.17645750846E+03  0.86890554218E+02 -0.12299822897E+04  0.12579819832E+04  0.17599720576E+03 0.  0.
         24    2    3    3    0    0  0.57624033439E+02  0.13252654834E+02 -0.79304053220E+03  0.79919649472E+03  0.79407741293E+02 0.  0.
         -6    2    1    2    0  501 -0.17645750846E+03 -0.86890554218E+02 -0.24899455821E+04  0.25036112195E+04  0.17190961586E+03 0.  0.
        -24    2    5    5    0    0 -0.76126885022E+02 -0.66571353836E+02 -0.19320246727E+04  0.19363573653E+04  0.80829838283E+02 0.  0.
          5    1    3    3  502    0  0.11883347502E+03  0.73637899384E+02 -0.43694175752E+03  0.45878548852E+03  0.47000000000E+01 0. -1.
        -13    1    4    4    0    0  0.22265567339E+02  0.36011726655E+02 -0.18855049476E+03  0.19324567012E+03  0.00000000000E+00 0.  1.
         14    1    4    4    0    0  0.35358466100E+02 -0.22759071821E+02 -0.60449003743E+03  0.60595082460E+03  0.00000000000E+00 0. -1.
         -5    1    5    5    0  501 -0.10033062343E+03 -0.20319200382E+02 -0.55792090940E+03  0.56725385415E+03  0.47000000000E+01 0.  1.
         13    1    6    6    0    0 -0.67657422149E+02 -0.67502817274E+01 -0.11450103910E+04  0.11470274141E+04  0.00000000000E+00 0. -1.
        -14    1    6    6    0    0 -0.84694628729E+01 -0.59821072109E+02 -0.78701428165E+03  0.78932995128E+03  0.00000000000E+00 0.  1.
</event>
<event>
12    1  0.1348628E-002  0.1934766E+03  0.7818608E-02  0.1155363E+00
          1   -1    0    0  502    0  0.00000000000E+00  0.00000000000E+00  0.18769670837E+03  0.18769670837E+03  0.00000000000E+00 0. -1.
         -1   -1    0    0    0  501 -0.00000000000E+00 -0.00000000000E+00 -0.19958792519E+03  0.19958792519E+03  0.00000000000E+00 0.  1.
          6    2    1    2  502    0 -0.60552985328E+02  0.76393835021E+02 -0.78534463198E+01  0.18874728447E+03  0.16143475064E+03 0.  0.
         24    2    3    3    0    0 -0.99936893355E+02  0.72316725103E+02  0.41129113467E+01  0.14711798285E+03  0.80060561179E+02 0.  0.
         -6    2    1    2    0  501  0.60552985328E+02 -0.76393835021E+02 -0.40377705002E+01  0.19853734910E+03  0.17291065130E+03 0.  0.
        -24    2    5    5    0    0  0.88144940384E+01 -0.10454414795E+03 -0.27545728056E+02  0.13494469490E+03  0.80275334764E+02 0.  0.
          5    1    3    3  502    0  0.39383908028E+02  0.40771099182E+01 -0.11966357666E+02  0.41629301611E+02  0.47000000000E+01 0. -1.
        -11    1    4    4    0    0  0.81164017727E+00 -0.76427056400E+01 -0.15220081416E+02  0.17050530420E+02  0.00000000000E+00 0.  1.
         12    1    4    4    0    0 -0.10074853353E+03  0.79959430743E+02  0.19332992763E+02  0.13006745243E+03  0.00000000000E+00 0. -1.
         -5    1    5    5    0  501  0.51738491289E+02  0.28150312932E+02  0.23507957556E+02  0.63592654195E+02  0.47000000000E+01 0.  1.
         13    1    6    6    0    0  0.23917882270E+02 -0.41915865313E+02  0.22615165523E+02  0.53295877597E+02  0.00000000000E+00 0. -1.
        -14    1    6    6    0    0 -0.15103388232E+02 -0.62628282641E+02 -0.50160893579E+02  0.81648817305E+02  0.00000000000E+00 0.  1.
</event>
<event>
12    1  0.1348628E-002  0.1746888E+03  0.7818608E-02  0.1173044E+00
         -1   -1    0    0    0  501 -0.00000000000E+00  0.00000000000E+00  0.62780041854E+02  0.62780041854E+02  0.00000000000E+00 0.  1.
          1   -1    0    0  502    0  0.00000000000E+00 -0.00000000000E+00 -0.57807888010E+03  0.57807888010E+03  0.00000000000E+00 0. -1.
          6    2    1    2  502    0  0.32547866077E+02 -0.73269313292E+01 -0.12939726634E+03  0.21711815956E+03  0.17112450195E+03 0.  0.
         24    2    3    3    0    0  0.52291505473E+02 -0.18504866657E+02 -0.11772439591E+02  0.97233017024E+02  0.78986312935E+02 0.  0.
         -6    2    1    2    0  501 -0.32547866077E+02  0.73269313292E+01 -0.38590157191E+03  0.42374076239E+03  0.17182305724E+03 0.  0.
        -24    2    5    5    0    0  0.36024123539E+02  0.41909532503E+02 -0.23858203900E+03  0.25753844941E+03  0.79690132383E+02 0.  0.
          5    1    3    3  502    0 -0.19743639395E+02  0.11177935328E+02 -0.11762482675E+03  0.11988514254E+03  0.47000000000E+01 0. -1.
        -13    1    4    4    0    0  0.41361172522E+01  0.23518297119E+02  0.14714599093E+02  0.28048835836E+02  0.00000000000E+00 0.  1.
         14    1    4    4    0    0  0.48155388220E+02 -0.42023163776E+02 -0.26487038684E+02  0.69184181188E+02  0.00000000000E+00 0. -1.
         -5    1    5    5    0  501 -0.68571989616E+02 -0.34582601174E+02 -0.14731953291E+03  0.16620231298E+03  0.47000000000E+01 0.  1.
         11    1    6    6    0    0  0.95139905720E+01  0.50071627859E+02 -0.69440142523E+02  0.86137200597E+02  0.00000000000E+00 0. -1.
        -12    1    6    6    0    0  0.26510132967E+02 -0.81620953556E+01 -0.16914189648E+03  0.17140124881E+03  0.00000000000E+00 0.  1.
</event>
<event>
12    1  0.1348628E-002  0.2330981E+03  0.7818608E-02  0.1124478E+00
         -1   -1    0    0    0  501 -0.00000000000E+00  0.00000000000E+00  0.81003142660E+02  0.81003142660E+02  0.00000000000E+00 0. -1.
          1   -1    0    0  502    0  0.00000000000E+00 -0.00000000000E+00 -0.25452466879E+04  0.25452466879E+04  0.00000000000E+00 0.  1.
          6    2    1    2  502    0  0.10482502613E+03  0.11726876093E+03 -0.10359389372E+03  0.25400277191E+03  0.17042730102E+03 0.  0.
         24    2    3    3    0    0  0.42860855506E+02  0.60658843090E+02  0.13833239702E+02  0.10958856589E+03  0.79383544093E+02 0.  0.
         -6    2    1    2    0  501 -0.10482502613E+03 -0.11726876093E+03 -0.23606496515E+04  0.23722470587E+04  0.17363490906E+03 0.  0.
        -24    2    5    5    0    0  0.10017132375E+02 -0.62753244602E+02 -0.13157326801E+04  0.13196150099E+04  0.78695465043E+02 0.  0.
          5    1    3    3  502    0  0.61964170622E+02  0.56609917838E+02 -0.11742713342E+03  0.14441420603E+03  0.47000000000E+01 0. -1.
        -13    1    4    4    0    0 -0.20594115774E+02  0.17332687649E+01 -0.43134088999E+01  0.21112255243E+02  0.00000000000E+00 0.  1.
         14    1    4    4    0    0  0.63454971280E+02  0.58925574325E+02  0.18146648602E+02  0.88476310644E+02  0.00000000000E+00 0. -1.
         -5    1    5    5    0  501 -0.11484215850E+03 -0.54515516325E+02 -0.10449169715E+04  0.10526320488E+04  0.47000000000E+01 0.  1.
         11    1    6    6    0    0 -0.40991462161E+01 -0.15252032554E+02 -0.41260768212E+02  0.44180068925E+02  0.00000000000E+00 0. -1.
        -12    1    6    6    0    0  0.14116278591E+02 -0.47501212048E+02 -0.12744719119E+04  0.12754349409E+04  0.00000000000E+00 0.  1.
</event>
<event>
12    1  0.1348628E-002  0.1760763E+03  0.7818608E-02  0.1171655E+00
         -1   -1    0    0    0  501 -0.00000000000E+00  0.00000000000E+00  0.47938712896E+02  0.47938712896E+02  0.00000000000E+00 0.  1.
          1   -1    0    0  502    0  0.00000000000E+00 -0.00000000000E+00 -0.92091154329E+03  0.92091154329E+03  0.00000000000E+00 0. -1.
          6    2    1    2  502    0  0.34910886954E+02  0.66094328025E+01 -0.70040174179E+03  0.72213704981E+03  0.17221168422E+03 0.  0.
         24    2    3    3    0    0  0.16522679162E+01 -0.53771905774E+02 -0.28308545632E+03  0.29913939745E+03  0.80329668779E+02 0.  0.
         -6    2    1    2    0  501 -0.34910886954E+02 -0.66094328025E+01 -0.17257108861E+03  0.24671320637E+03  0.17269676009E+03 0.  0.
        -24    2    5    5    0    0 -0.13623544373E+02 -0.60250525436E+02 -0.15757817076E+03  0.18690187502E+03  0.79282433158E+02 0.  0.
          5    1    3    3  502    0  0.33258619038E+02  0.60381338577E+02 -0.41731628546E+03  0.42299765236E+03  0.47000000000E+01 0. -1.
        -11    1    4    4    0    0  0.47310351037E+00  0.18083909111E+02 -0.22743756944E+02  0.29060799637E+02  0.00000000000E+00 0.  1.
         12    1    4    4    0    0  0.11791644058E+01 -0.71855814885E+02 -0.26034169938E+03  0.27007859782E+03  0.00000000000E+00 0. -1.
         -5    1    5    5    0  501 -0.21287342581E+02  0.53641092634E+02 -0.14992917842E+02  0.59811331356E+02  0.47000000000E+01 0.  1.
         11    1    6    6    0    0  0.18276743441E+02  0.11193656699E+02 -0.24728608876E+02  0.32723713084E+02  0.00000000000E+00 0. -1.
        -12    1    6    6    0    0 -0.31900287814E+02 -0.71444182135E+02 -0.13284956189E+03  0.15417816194E+03  0.00000000000E+00 0.  1.
</event>
<event>
12    1  0.1348628E-002  0.1887339E+03  0.7818608E-02  0.1159608E+00
          4   -1    0    0  502    0  0.00000000000E+00  0.00000000000E+00  0.75910329600E+02  0.75910329600E+02  0.00000000000E+00 0.  1.
         -4   -1    0    0    0  501 -0.00000000000E+00 -0.00000000000E+00 -0.46943285552E+03  0.46943285552E+03  0.00000000000E+00 0. -1.
          6    2    1    2  502    0 -0.37374816647E+02 -0.68167133484E+02 -0.19088691095E+03  0.26813837033E+03  0.17151308365E+03 0.  0.
         24    2    3    3    0    0 -0.72690988772E+02 -0.27021026960E+02 -0.18075866970E+03  0.21277678286E+03  0.81155079382E+02 0.  0.
         -6    2    1    2    0  501  0.37374816647E+02  0.68167133484E+02 -0.20263561498E+03  0.27720481480E+03  0.17244617097E+03 0.  0.
        -24    2    5    5    0    0 -0.97659420467E+01 -0.65478074240E+01 -0.16493091441E+03  0.18103669134E+03  0.73714514685E+02 0.  0.
          5    1    3    3  502    0  0.35316172125E+02 -0.41146106524E+02 -0.10128241251E+02  0.55361587463E+02  0.47000000000E+01 0. -1.
        -13    1    4    4    0    0 -0.16719084424E+02  0.28607549528E+02 -0.47758872958E+02  0.58127700971E+02  0.00000000000E+00 0.  1.
         14    1    4    4    0    0 -0.55971904347E+02 -0.55628576488E+02 -0.13299979674E+03  0.15464908189E+03  0.00000000000E+00 0. -1.
         -5    1    5    5    0  501  0.47140758694E+02  0.74714940908E+02 -0.37704700565E+02  0.96168123460E+02  0.47000000000E+01 0.  1.
         11    1    6    6    0    0 -0.41913272865E+02 -0.39296216257E+00 -0.92569304111E+02  0.10161669609E+03  0.00000000000E+00 0. -1.
        -12    1    6    6    0    0  0.32147330818E+02 -0.61548452614E+01 -0.72361610301E+02  0.79419995242E+02  0.00000000000E+00 0.  1.
</event>
<event>
12    1  0.1348628E-002  0.2226927E+03  0.7818608E-02  0.1131891E+00
         -2   -1    0    0    0  501 -0.00000000000E+00  0.00000000000E+00  0.28401809005E+02  0.28401809005E+02  0.00000000000E+00 0. -1.
          2   -1    0    0  502    0  0.00000000000E+00 -0.00000000000E+00 -0.25388235625E+04  0.25388235625E+04  0.00000000000E+00 0.  1.
          6    2    1    2  502    0 -0.11963343247E+03 -0.75546253378E+02 -0.19742646026E+04  0.19868363711E+04  0.17256491472E+03 0.  0.
         24    2    3    3    0    0  0.37903219211E+01 -0.66279993620E+01 -0.63470008401E+03  0.63982548086E+03  0.80462117836E+02 0.  0.
         -6    2    1    2    0  501  0.11963343247E+03  0.75546253378E+02 -0.53615715089E+03  0.58038900042E+03  0.17136950370E+03 0.  0.
        -24    2    5    5    0    0  0.17978984144E+02 -0.91167414720E+01 -0.14008770885E+03  0.16278327431E+03  0.80420578085E+02 0.  0.
          5    1    3    3  502    0 -0.12342375439E+03 -0.68918254016E+02 -0.13395645186E+04  0.13470108902E+04  0.47000000000E+01 0. -1.
        -13    1    4    4    0    0  0.58113237309E+01  0.31792441719E+02 -0.45009601190E+03  0.45125486232E+03  0.00000000000E+00 0.  1.
         14    1    4    4    0    0 -0.20210018099E+01 -0.38420441081E+02 -0.18460407210E+03  0.18857061854E+03  0.00000000000E+00 0. -1.
         -5    1    5    5    0  501  0.10165444832E+03  0.84662994850E+02 -0.39606944204E+03  0.41760572610E+03  0.47000000000E+01 0.  1.
         13    1    6    6    0    0 -0.30889991065E+02  0.64724623971E+01 -0.56195637843E+02  0.64451796174E+02  0.00000000000E+00 0. -1.
        -14    1    6    6    0    0  0.48868975209E+02 -0.15589203869E+02 -0.83892071008E+02  0.98331478140E+02  0.00000000000E+00 0.  1.
</event>
<event>
12    1  0.1348628E-002  0.2324207E+03  0.7818608E-02  0.1124948E+00
          2   -1    0    0  502    0  0.00000000000E+00  0.00000000000E+00  0.22592785644E+04  0.22592785644E+04  0.00000000000E+00 0.  1.
         -2   -1    0    0    0  501 -0.00000000000E+00 -0.00000000000E+00 -0.28486094486E+02  0.28486094486E+02  0.00000000000E+00 0. -1.
          6    2    1    2  502    0  0.88989900455E+02 -0.13107744410E+03  0.65053909559E+03  0.69027608153E+03  0.16786737357E+03 0.  0.
         24    2    3    3    0    0  0.12135104188E+03 -0.81063616632E+02  0.55583566363E+03  0.57829636713E+03  0.64622116711E+02 0.  0.
         -6    2    1    2    0  501 -0.88989900455E+02  0.13107744410E+03  0.15802533743E+04  0.15974885773E+04  0.17224554850E+03 0.  0.
        -24    2    5    5    0    0  0.17745054250E+02  0.72736286468E+02  0.63436094176E+03  0.64379542690E+03  0.80332390448E+02 0.  0.
          5    1    3    3  502    0 -0.32361141420E+02 -0.50013827471E+02  0.94703431957E+02  0.11197971440E+03  0.47000000000E+01 0. -1.
        -11    1    4    4    0    0  0.85721816887E+02 -0.29124649161E+02  0.24617066943E+03  0.26229081868E+03  0.00000000000E+00 0.  1.
         12    1    4    4    0    0  0.35629224988E+02 -0.51938967471E+02  0.30966499421E+03  0.31600554845E+03  0.00000000000E+00 0. -1.
         -5    1    5    5    0  501 -0.10673495471E+03  0.58341157634E+02  0.94589243255E+03  0.95369315043E+03  0.47000000000E+01 0.  1.
         13    1    6    6    0    0 -0.24119782138E+02  0.60483162598E+02  0.42273904171E+03  0.42772453078E+03  0.00000000000E+00 0. -1.
        -14    1    6    6    0    0  0.41864836388E+02  0.12253123870E+02  0.21162190005E+03  0.21607089612E+03  0.00000000000E+00 0.  1.
</event>
<event>
12    1  0.1348628E-002  0.2047857E+03  0.7818608E-02  0.1145763E+00
         -2   -1    0    0    0  501 -0.00000000000E+00  0.00000000000E+00  0.34935832914E+03  0.34935832914E+03  0.00000000000E+00 0. -1.
          2   -1    0    0  502    0  0.00000000000E+00 -0.00000000000E+00 -0.17407825504E+03  0.17407825504E+03  0.00000000000E+00 0.  1.
          6    2    1    2  502    0  0.82331456756E+02  0.74992832740E+02 -0.58249099664E+02  0.21267490153E+03  0.17156707841E+03 0.  0.
         24    2    3    3    0    0  0.18728898315E+02  0.31577452174E+02  0.32538258709E+02  0.93533745117E+02  0.79636148060E+02 0.  0.
         -6    2    1    2    0  501 -0.82331456756E+02 -0.74992832740E+02  0.23352917377E+03  0.31076168265E+03  0.17214689852E+03 0.  0.
        -24    2    5    5    0    0 -0.58079806620E+02 -0.11205086107E+03  0.21553485929E+03  0.26272705607E+03  0.81495834367E+02 0.  0.
          5    1    3    3  502    0  0.63602558441E+02  0.43415380567E+02 -0.90787358374E+02  0.11914115641E+03  0.47000000000E+01 0. -1.
        -11    1    4    4    0    0 -0.17778518435E+02 -0.30890071131E+01 -0.15618799368E+02  0.23865552087E+02  0.00000000000E+00 0.  1.
         12    1    4    4    0    0  0.36507416751E+02  0.34666459287E+02  0.48157058078E+02  0.69668193030E+02  0.00000000000E+00 0. -1.
         -5    1    5    5    0  501 -0.24251650137E+02  0.37058028326E+02  0.17994314483E+02  0.48034626588E+02  0.47000000000E+01 0.  1.
         11    1    6    6    0    0 -0.19847830286E+02  0.63926101258E+01  0.60027314177E+02  0.63545891123E+02  0.00000000000E+00 0. -1.
        -12    1    6    6    0    0 -0.38231976334E+02 -0.11844347119E+03  0.15550754511E+03  0.19918116494E+03  0.00000000000E+00 0.  1.
</event>
<event>
12    1  0.1348628E-002  0.2063163E+03  0.7818608E-02  0.1144517E+00
         -1   -1    0    0    0  501 -0.00000000000E+00  0.00000000000E+00  0.45830402367E+02  0.45830402367E+02  0.00000000000E+00 0.  1.
          1   -1    0    0  502    0  0.00000000000E+00 -0.00000000000E+00 -0.94278575224E+03  0.94278575224E+03  0.00000000000E+00 0. -1.
          6    2    1    2  502    0  0.11083819628E+03  0.28105903655E+02 -0.38722421022E+03  0.43853520266E+03  0.17115924576E+03 0.  0.
         24    2    3    3    0    0  0.11593354051E+03  0.13814161319E+02 -0.17073586070E+03  0.22146491010E+03  0.79148944456E+02 0.  0.
         -6    2    1    2    0  501 -0.11083819628E+03 -0.28105903655E+02 -0.50973113965E+03  0.55008095195E+03  0.17230255771E+03 0.  0.
        -24    2    5    5    0    0 -0.10064814118E+03  0.37073948155E+02 -0.40180068511E+03  0.42349768559E+03  0.80012331492E+02 0.  0.
          5    1    3    3  502    0 -0.50953442251E+01  0.14291742336E+02 -0.21648834952E+03  0.21707029255E+03  0.47000000000E+01 0. -1.
        -11    1    4    4    0    0  0.55938007322E+01  0.13755457616E+02  0.34751865101E+01  0.15250578420E+02  0.00000000000E+00 0.  1.
         12    1    4    4    0    0  0.11033973978E+03  0.58703703327E-01 -0.17421104721E+03  0.20621433168E+03  0.00000000000E+00 0. -1.
         -5    1    5    5    0  501 -0.10190055101E+02 -0.65179851810E+02 -0.10793045454E+03  0.12658326636E+03  0.47000000000E+01 0.  1.
         11    1    6    6    0    0 -0.63671815099E+02  0.49071842403E+02 -0.34774322582E+03  0.35691385075E+03  0.00000000000E+00 0. -1.
        -12    1    6    6    0    0 -0.36976326083E+02 -0.11997894248E+02 -0.54057459292E+02  0.66583834841E+02  0.00000000000E+00 0.  1.
</event>
<event>
12    1  0.1348628E-002  0.1834354E+03  0.7818608E-02  0.1164519E+00
          2   -1    0    0  502    0  0.00000000000E+00  0.00000000000E+00  0.17379084020E+04  0.17379084020E+04  0.00000000000E+00 0. -1.
         -2   -1    0    0    0  501 -0.00000000000E+00 -0.00000000000E+00 -0.36072339372E+02  0.36072339372E+02  0.00000000000E+00 0.  1.
          6    2    1    2  502    0  0.16262957967E+02 -0.61848553714E+02  0.24741724483E+03  0.30805053658E+03  0.17201776842E+03 0.  0.
         24    2    3    3    0    0 -0.15476757165E+02 -0.33917494482E+01  0.41891679338E+02  0.91977735075E+02  0.80336523295E+02 0.  0.
         -6    2    1    2    0  501 -0.16262957967E+02  0.61848553714E+02  0.14544188178E+04  0.14659302048E+04  0.17183579471E+03 0.  0.
        -24    2    5    5    0    0 -0.45022323253E+02  0.25416915785E+02  0.43787939893E+03  0.44832082715E+03  0.81118227627E+02 0.  0.
          5    1    3    3  502    0  0.31739715132E+02 -0.58456804266E+02  0.20552556549E+03  0.21607280151E+03  0.47000000000E+01 0. -1.
        -13    1    4    4    0    0  0.31741983238E+02 -0.47940426406E+01  0.60188622834E+01  0.32661338734E+02  0.00000000000E+00 0.  1.
         14    1    4    4    0    0 -0.47218740403E+02  0.14022931924E+01  0.35872817054E+02  0.59316396341E+02  0.00000000000E+00 0. -1.
         -5    1    5    5    0  501  0.28759365287E+02  0.36431637930E+02  0.10165394189E+04  0.10176093777E+04  0.47000000000E+01 0.  1.
         11    1    6    6    0    0  0.20104646605E+02  0.19305744393E+02  0.18643779062E+03  0.18850983622E+03  0.00000000000E+00 0. -1.
        -12    1    6    6    0    0 -0.65126969858E+02  0.61111713920E+01  0.25144160832E+03  0.25981099094E+03  0.00000000000E+00 0.  1.
</event>
<event>
12    1  0.1348628E-002  0.1877827E+03  0.7818608E-02  0.1160477E+00
          3   -1    0    0  502    0  0.00000000000E+00  0.00000000000E+00  0.82195404538E+03  0.82195404538E+03  0.00000000000E+00 0.  1.
         -3   -1    0    0    0  501 -0.00000000000E+00 -0.00000000000E+00 -0.51262253713E+02  0.51262253713E+02  0.00000000000E+00 0. -1.
          6    2    1    2  502    0  0.52629120449E+02  0.57908249228E+02  0.56220097751E+03  0.59282925019E+03  0.17103622750E+03 0.  0.
         24    2    3    3    0    0  0.56149484570E+02  0.65498494989E+01  0.51055525438E+03  0.51975771740E+03  0.79282733776E+02 0.  0.
         -6    2    1    2    0  501 -0.52629120449E+02 -0.57908249228E+02  0.20849081416E+03  0.28038704891E+03  0.17036809549E+03 0.  0.
        -24    2    5    5    0    0 -0.26434876426E+02  0.71461552167E+01  0.13316582936E+02  0.72942394866E+02  0.66282662602E+02 0.  0.
          5    1    3    3  502    0 -0.35203641210E+01  0.51358399729E+02  0.51645723129E+02  0.73071532787E+02  0.47000000000E+01 0. -1.
        -11    1    4    4    0    0 -0.11225813901E+02  0.41795988055E+01  0.13084392800E+02  0.17739483613E+02  0.00000000000E+00 0.  1.
         12    1    4    4    0    0  0.67375298472E+02  0.23702506934E+01  0.49747086158E+03  0.50201823379E+03  0.00000000000E+00 0. -1.
         -5    1    5    5    0  501 -0.26194244023E+02 -0.65054404445E+02  0.19517423122E+03  0.20744465404E+03  0.47000000000E+01 0.  1.
         11    1    6    6    0    0 -0.38694012074E+02  0.21271194298E+02 -0.76859968614E+01  0.44819246145E+02  0.00000000000E+00 0. -1.
        -12    1    6    6    0    0  0.12259135647E+02 -0.14125039081E+02  0.21002579797E+02  0.28123148721E+02  0.00000000000E+00 0.  1.
</event>
<event>
12    1  0.1348628E-002  0.1884108E+03  0.7818608E-02  0.1159903E+00
         -1   -1    0    0    0  501 -0.00000000000E+00  0.00000000000E+00  0.60806501730E+02  0.60806501730E+02  0.00000000000E+00 0. -1.
          1   -1    0    0  502    0  0.00000000000E+00 -0.00000000000E+00 -0.59211903008E+03  0.59211903008E+03  0.00000000000E+00 0.  1.
          6    2    1    2  502    0  0.73024377461E+02 -0.20823828860E+02 -0.30483569656E+03  0.35854430006E+03  0.17280920593E+03 0.  0.
         24    2    3    3    0    0  0.81414673085E+02 -0.65936181277E+02 -0.16203028875E+03  0.20847433004E+03  0.78941768523E+02 0.  0.
         -6    2    1    2    0  501 -0.73024377461E+02  0.20823828860E+02 -0.22647683179E+03  0.29438123175E+03  0.17205337172E+03 0.  0.
        -24    2    5    5    0    0 -0.63044370555E+02 -0.23061663988E+02 -0.22710121653E+03  0.24912621129E+03  0.77346451743E+02 0.  0.
          5    1    3    3  502    0 -0.83902956234E+01  0.45112352417E+02 -0.14280540781E+03  0.15006997002E+03  0.47000000000E+01 0. -1.
        -13    1    4    4    0    0 -0.13049916432E+02 -0.14382495769E+02 -0.47499739597E+02  0.51316486291E+02  0.00000000000E+00 0.  1.
         14    1    4    4    0    0  0.94464589517E+02 -0.51553685508E+02 -0.11453054915E+03  0.15715784375E+03  0.00000000000E+00 0. -1.
         -5    1    5    5    0  501 -0.99800069061E+01  0.43885492848E+02  0.62438474757E+00  0.45255020458E+02  0.47000000000E+01 0.  1.
         13    1    6    6    0    0 -0.31599178542E+02  0.44572807420E+00 -0.17995668056E+02  0.36366891905E+02  0.00000000000E+00 0. -1.
        -14    1    6    6    0    0 -0.31445192014E+02 -0.23507392062E+02 -0.20910554848E+03  0.21275931939E+03  0.00000000000E+00 0.  1.
</event>
<event>
12    1  0.1348628E-002  0.1895537E+03  0.7818608E-02  0.1158864E+00
         -1   -1    0    0    0  501 -0.00000000000E+00  0.00000000000E+00  0.16962224485E+03  0.16962224485E+03  0.00000000000E+00 0. -1.
          1   -1    0    0  502    0  0.00000000000E+00 -0.00000000000E+00 -0.23177602280E+03  0.23177602280E+03  0.00000000000E+00 0.  1.
          6    2    1    2  502    0 -0.68105321651E+02  0.39146130409E+02  0.27823302097E+02  0.19145240232E+03  0.17236337155E+03 0.  0.
         24    2    3    3    0    0  0.10785186902E+02 -0.16241008583E+02 -0.19468205249E+02  0.83981363563E+02  0.79333270410E+02 0.  0.
         -6    2    1    2    0  501  0.68105321651E+02 -0.39146130409E+02 -0.89977080047E+02  0.20994586533E+03  0.17265757172E+03 0.  0.
        -24    2    5    5    0    0  0.10919510050E+03 -0.22471431714E+02 -0.39720364009E+02  0.14275774876E+03  0.79834405473E+02 0.  0.
          5    1    3    3  502    0 -0.78890508553E+02  0.55387138992E+02  0.47291507345E+02  0.10747103876E+03  0.47000000000E+01 0. -1.
        -13    1    4    4    0    0 -0.94110563807E+01 -0.38746508745E+02  0.10682748456E+02  0.41279305187E+02  0.00000000000E+00 0.  1.
         14    1    4    4    0    0  0.20196243283E+02  0.22505500161E+02 -0.30150953705E+02  0.42702058376E+02  0.00000000000E+00 0. -1.
         -5    1    5    5    0  501 -0.41089778846E+02 -0.16674698695E+02 -0.50256716038E+02  0.67188116576E+02  0.47000000000E+01 0.  1.
         13    1    6    6    0    0  0.58411599736E+01  0.21246254587E+02  0.38651337237E+01  0.22371002269E+02  0.00000000000E+00 0. -1.
        -14    1    6    6    0    0  0.10335394052E+03 -0.43717686301E+02 -0.43585497733E+02  0.12038674649E+03  0.00000000000E+00 0.  1.
</event>
<event>
12    1  0.1348628E-002  0.1959509E+03  0.7818608E-02  0.1153201E+00
         -2   -1    0    0    0  501 -0.00000000000E+00  0.00000000000E+00  0.24293710418E+02  0.24293710418E+02  0.00000000000E+00 0.  1.
          2   -1    0    0  502    0  0.00000000000E+00 -0.00000000000E+00 -0.18095810686E+04  0.18095810686E+04  0.00000000000E+00 0. -1.
          6    2    1    2  502    0 -0.34821682923E+02  0.86890762992E+02 -0.12190257620E+04  0.12346803570E+04  0.17218949292E+03 0.  0.
         24    2    3    3    0    0 -0.95556507841E+01  0.68469903841E+02 -0.11789923718E+04  0.11836660183E+04  0.79137803176E+02 0.  0.
         -6    2    1    2    0  501  0.34821682923E+02 -0.86890762992E+02 -0.56626159620E+03  0.59919442195E+03  0.17210231162E+03 0.  0.
        -24    2    5    5    0    0  0.21505734275E+02  0.23858043199E+02 -0.18073455439E+03  0.19782700607E+03  0.73748507424E+02 0.  0.
          5    1    3    3  502    0 -0.25266032139E+02  0.18420859150E+02 -0.40033390159E+02  0.51014338764E+02  0.47000000000E+01 0. -1.
        -11    1    4    4    0    0 -0.40026344534E+00 -0.18036635871E+02 -0.21684226774E+03  0.21759147392E+03  0.00000000000E+00 0.  1.
         12    1    4    4    0    0 -0.91553873388E+01  0.86506539712E+02 -0.96215010406E+03  0.96607454436E+03  0.00000000000E+00 0. -1.
         -5    1    5    5    0  501  0.13315948649E+02 -0.11074880619E+03 -0.38552704181E+03  0.40136741588E+03  0.47000000000E+01 0.  1.
         11    1    6    6    0    0 -0.12540355740E+02 -0.36148601196E+00 -0.13614177945E+03  0.13671859897E+03  0.00000000000E+00 0. -1.
        -12    1    6    6    0    0  0.34046090015E+02  0.24219529211E+02 -0.44592774943E+02  0.61108407095E+02  0.00000000000E+00 0.  1.
</event>
<event>
12    1  0.1348628E-002  0.1951305E+03  0.7818608E-02  0.1153914E+00
          2   -1    0    0  502    0  0.00000000000E+00  0.00000000000E+00  0.14106519189E+04  0.14106519189E+04  0.00000000000E+00 0.  1.
         -2   -1    0    0    0  501 -0.00000000000E+00 -0.00000000000E+00 -0.27381095787E+02  0.27381095787E+02  0.00000000000E+00 0. -1.
          6    2    1    2  502    0  0.25123059289E+02 -0.89335657528E+02  0.60770239819E+03  0.63841882567E+03  0.17223345897E+03 0.  0.
         24    2    3    3    0    0  0.26217791105E+02 -0.97800577196E+02  0.61360622866E+03  0.62702591046E+03  0.79978516335E+02 0.  0.
         -6    2    1    2    0  501 -0.25123059289E+02  0.89335657528E+02  0.77556842495E+03  0.79961418904E+03  0.17106852933E+03 0.  0.
        -24    2    5    5    0    0 -0.77687180025E+02  0.56450853477E+02  0.39272880851E+03  0.41175769620E+03  0.78015937775E+02 0.  0.
          5    1    3    3  502    0 -0.10947318159E+01  0.84649196682E+01 -0.59038304661E+01  0.11392915207E+02  0.47000000000E+01 0. -1.
        -13    1    4    4    0    0  0.10438698319E+02 -0.37071514971E+02  0.45244188185E+03  0.45407809912E+03  0.00000000000E+00 0.  1.
         14    1    4    4    0    0  0.15779092786E+02 -0.60729062225E+02  0.16116434680E+03  0.17294781134E+03  0.00000000000E+00 0. -1.
         -5    1    5    5    0  501  0.52564120736E+02  0.32884804051E+02  0.38283961643E+03  0.38785649284E+03  0.47000000000E+01 0.  1.
         13    1    6    6    0    0 -0.31499586651E+02  0.68978375312E+02  0.23560024109E+03  0.24750295720E+03  0.00000000000E+00 0. -1.
        -14    1    6    6    0    0 -0.46187593374E+02 -0.12527521834E+02  0.15712856742E+03  0.16425473900E+03  0.00000000000E+00 0.  1.
</event>
<event>
12    1  0.1348628E-002  0.2786334E+03  0.7818608E-02  0.1096438E+00
          1   -1    0    0  502    0  0.00000000000E+00  0.00000000000E+00  0.30328987182E+03  0.30328987182E+03  0.00000000000E+00 0.  1.
         -1   -1    0    0    0  501 -0.00000000000E+00 -0.00000000000E+00 -0.33623369440E+03  0.33623369440E+03  0.00000000000E+00 0. -1.
          6    2    1    2  502    0  0.21903666229E+03  0.15805787530E+02 -0.17271711870E+03  0.32834100473E+03  0.17248110027E+03 0.  0.
         24    2    3    3    0    0  0.22708327906E+02  0.48666929903E+01 -0.32770576345E+02  0.86945885915E+02  0.77112408512E+02 0.  0.
         -6    2    1    2    0  501 -0.21903666229E+03 -0.15805787530E+02  0.13977329612E+03  0.31118256149E+03  0.17050258040E+03 0.  0.
        -24    2    5    5    0    0 -0.40809830962E+02  0.25229296012E+02  0.33798773566E+02  0.99755574291E+02  0.80665096710E+02 0.  0.
          5    1    3    3  502    0  0.19632833438E+03  0.10939094539E+02 -0.13994654236E+03  0.24139511882E+03  0.47000000000E+01 0. -1.
        -11    1    4    4    0    0 -0.53202410527E+01  0.36259577724E+02 -0.61816100856E+01  0.37165498044E+02  0.00000000000E+00 0.  1.
         12    1    4    4    0    0  0.28028568959E+02 -0.31392884734E+02 -0.26588966259E+02  0.49780387871E+02  0.00000000000E+00 0. -1.
         -5    1    5    5    0  501 -0.17822683132E+03 -0.41035083541E+02  0.10597452256E+03  0.21142698720E+03  0.47000000000E+01 0.  1.
         13    1    6    6    0    0 -0.15622491965E+02  0.17676541711E+02 -0.25590640584E+02  0.34805218970E+02  0.00000000000E+00 0. -1.
        -14    1    6    6    0    0 -0.25187338997E+02  0.75527543012E+01  0.59389414150E+02  0.64950355321E+02  0.00000000000E+00 0.  1.
</event>
<event>
12    1  0.1348628E-002  0.3754935E+03  0.7818608E-02  0.1052612E+00
         -2   -1    0    0    0  501 -0.00000000000E+00  0.00000000000E+00  0.45047702866E+03  0.45047702866E+03  0.00000000000E+00 0. -1.
          2   -1    0    0  502    0  0.00000000000E+00 -0.00000000000E+00 -0.50565575705E+03  0.50565575705E+03  0.00000000000E+00 0.  1.
          6    2    1    2  502    0 -0.33253371564E+03  0.29060910700E+02  0.26750812641E+03  0.46099001904E+03  0.17183710715E+03 0.  0.
         24    2    3    3    0    0 -0.17508570434E+03 -0.49108757447E+02  0.15802556761E+03  0.25384539815E+03  0.79992076008E+02 0.  0.
         -6    2    1    2    0  501  0.33253371564E+03 -0.29060910700E+02 -0.32268685480E+03  0.49514276667E+03  0.17209399920E+03 0.  0.
        -24    2    5    5    0    0  0.11216436848E+03 -0.60819365690E+02 -0.95689115542E+02  0.17714699271E+03  0.77102590053E+02 0.  0.
          5    1    3    3  502    0 -0.15744801130E+03  0.78169668147E+02  0.10948255880E+03  0.20714462089E+03  0.47000000000E+01 0. -1.
        -11    1    4    4    0    0 -0.10010965625E+03 -0.31741835246E+02  0.38843870331E+02  0.11197470090E+03  0.00000000000E+00 0.  1.
         12    1    4    4    0    0 -0.74976048092E+02 -0.17366922201E+02  0.11918169728E+03  0.14187069726E+03  0.00000000000E+00 0. -1.
         -5    1    5    5    0  501  0.22036934716E+03  0.31758454990E+02 -0.22699773925E+03  0.31799577396E+03  0.47000000000E+01 0.  1.
         13    1    6    6    0    0  0.29772888764E+02 -0.22436466153E+01  0.94253501360E+01  0.31309680303E+02  0.00000000000E+00 0. -1.
        -14    1    6    6    0    0  0.82391479721E+02 -0.58575719075E+02 -0.10511446568E+03  0.14583731241E+03  0.00000000000E+00 0.  1.
</event>
<event>
12    1  0.1348628E-002  0.2590102E+03  0.7818608E-02  0.1107739E+00
         -1   -1    0    0    0  501 -0.00000000000E+00  0.00000000000E+00  0.62706802887E+02  0.62706802887E+02  0.00000000000E+00 0. -1.
          1   -1    0    0  502    0  0.00000000000E+00 -0.00000000000E+00 -0.10937362799E+04  0.10937362799E+04  0.00000000000E+00 0.  1.
          6    2    1    2  502    0  0.14340861540E+03 -0.12067348968E+03 -0.61097111480E+03  0.66583599377E+03  0.18687895924E+03 0.  0.
         24    2    3    3    0    0  0.37330671807E+02 -0.11662868453E+03 -0.45053326455E+03  0.47340085053E+03  0.78309090795E+02 0.  0.
         -6    2    1    2    0  501 -0.14340861540E+03  0.12067348968E+03 -0.42005836221E+03  0.49060708900E+03  0.17064045839E+03 0.  0.
        -24    2    5    5    0    0 -0.99874559950E+02  0.41820608206E+02 -0.35446170768E+03  0.37908129833E+03  0.79596718123E+02 0.  0.
          5    1    3    3  502    0  0.10607794359E+03 -0.40448051539E+01 -0.16043785024E+03  0.19243514324E+03  0.47000000000E+01 0. -1.
        -11    1    4    4    0    0  0.49843743105E+01 -0.41507868914E+02 -0.29234991105E+03  0.29532391989E+03  0.00000000000E+00 0.  1.
         12    1    4    4    0    0  0.32346297497E+02 -0.75120815613E+02 -0.15818335351E+03  0.17807693064E+03  0.00000000000E+00 0. -1.
         -5    1    5    5    0  501 -0.43534055447E+02  0.78852881475E+02 -0.65596654528E+02  0.11152579068E+03  0.47000000000E+01 0.  1.
         13    1    6    6    0    0 -0.32829133366E+02 -0.14267930451E+02 -0.44943442682E+02  0.57456408494E+02  0.00000000000E+00 0. -1.
        -14    1    6    6    0    0 -0.67045426584E+02  0.56088538657E+02 -0.30951826500E+03  0.32162488983E+03  0.00000000000E+00 0.  1.
</event>
<event>
12    1  0.1348628E-002  0.2062321E+03  0.7818608E-02  0.1144585E+00
         -2   -1    0    0    0  501 -0.00000000000E+00  0.00000000000E+00  0.19938705802E+03  0.19938705802E+03  0.00000000000E+00 0.  1.
          2   -1    0    0  502    0  0.00000000000E+00 -0.00000000000E+00 -0.22222197022E+03  0.22222197022E+03  0.00000000000E+00 0. -1.
          6    2    1    2  502    0  0.23679829764E+02  0.10856039566E+03  0.30843294612E+02  0.20715748060E+03  0.17209537793E+03 0.  0.
         24    2    3    3    0    0  0.18787457304E+01  0.10387999048E+02  0.46782350141E+02  0.10522980913E+03  0.93665811450E+02 0.  0.
         -6    2    1    2    0  501 -0.23679829764E+02 -0.10856039566E+03 -0.53678206810E+02  0.21445154763E+03  0.17539105608E+03 0.  0.
        -24    2    5    5    0    0  0.13489633605E+02 -0.99413581158E+02  0.21129087190E+02  0.13028828689E+03  0.80396324805E+02 0.  0.
          5    1    3    3  502    0  0.21801084033E+02  0.98172396611E+02 -0.15939055529E+02  0.10192767148E+03  0.47000000000E+01 0. -1.
        -13    1    4    4    0    0  0.29043854704E+01  0.51119351354E+02  0.14410431963E+02  0.53191015098E+02  0.00000000000E+00 0.  1.
         14    1    4    4    0    0 -0.10256397400E+01 -0.40731352306E+02  0.32371918179E+02  0.52038794030E+02  0.00000000000E+00 0. -1.
         -5    1    5    5    0  501 -0.37169463369E+02 -0.91468145009E+01 -0.74807294000E+02  0.84163260739E+02  0.47000000000E+01 0.  1.
         13    1    6    6    0    0  0.12895106713E+01 -0.47837001951E+02 -0.30135034663E+02  0.56552293566E+02  0.00000000000E+00 0. -1.
        -14    1    6    6    0    0  0.12200122933E+02 -0.51576579207E+02  0.51264121853E+02  0.73735993325E+02  0.00000000000E+00 0.  1.
</event>
<event>
12    1  0.1348628E-002  0.2471879E+03  0.7818608E-02  0.1115095E+00
         -2   -1    0    0    0  501 -0.00000000000E+00  0.00000000000E+00  0.44799993418E+03  0.44799993418E+03  0.00000000000E+00 0. -1.
          2   -1    0    0  502    0  0.00000000000E+00 -0.00000000000E+00 -0.14485671281E+03  0.14485671281E+03  0.00000000000E+00 0.  1.
          6    2    1    2  502    0 -0.61943167537E+02  0.17044505198E+03  0.81356288990E+02  0.26254645358E+03  0.17153227911E+03 0.  0.
         24    2    3    3    0    0 -0.62465976118E+02  0.83795266235E+02  0.10949494760E+03  0.17131963292E+03  0.80234831956E+02 0.  0.
         -6    2    1    2    0  501  0.61943167537E+02 -0.17044505198E+03  0.22178693238E+03  0.33031019342E+03  0.16439862759E+03 0.  0.
        -24    2    5    5    0    0  0.10404755502E+03 -0.12116467349E+03  0.17590682545E+03  0.25075889323E+03  0.80187527017E+02 0.  0.
          5    1    3    3  502    0  0.52280858084E+00  0.86649785744E+02 -0.28138658608E+02  0.91226820653E+02  0.47000000000E+01 0. -1.
        -11    1    4    4    0    0 -0.53968382428E+02  0.47401411293E+02  0.20348364798E+02  0.74656118600E+02  0.00000000000E+00 0.  1.
         12    1    4    4    0    0 -0.84975936901E+01  0.36393854943E+02  0.89146582800E+02  0.96663514322E+02  0.00000000000E+00 0. -1.
         -5    1    5    5    0  501 -0.42104387483E+02 -0.49280378489E+02  0.45880106932E+02  0.79551300187E+02  0.47000000000E+01 0.  1.
         13    1    6    6    0    0  0.48280447980E+02 -0.82373304332E+02  0.15049883218E+03  0.17823092159E+03  0.00000000000E+00 0. -1.
        -14    1    6    6    0    0  0.55767107040E+02 -0.38791369159E+02  0.25407993268E+02  0.72527971643E+02  0.00000000000E+00 0.  1.
</event>
<event>
12    1  0.1348628E-002  0.1985586E+03  0.7818608E-02  0.1150961E+00
         -2   -1    0    0    0  501 -0.00000000000E+00  0.00000000000E+00  0.26484906359E+02  0.26484906359E+02  0.00000000000E+00 0. -1.
          2   -1    0    0  502    0  0.00000000000E+00 -0.00000000000E+00 -0.15420379152E+04  0.15420379152E+04  0.00000000000E+00 0.  1.
          6    2    1    2  502    0 -0.93126061831E+02  0.37133197948E+02 -0.90361033506E+03  0.92515958109E+03  0.17133964827E+03 0.  0.
         24    2    3    3    0    0 -0.10971967139E+03  0.63926957926E+02 -0.84686944275E+03  0.86008368454E+03  0.80193697377E+02 0.  0.
         -6    2    1    2    0  501  0.93126061831E+02 -0.37133197948E+02 -0.61194267376E+03  0.64336324045E+03  0.17143828456E+03 0.  0.
        -24    2    5    5    0    0  0.52240737333E+01 -0.37348015535E+02 -0.45774263362E+03  0.46580607209E+03  0.77619668570E+02 0.  0.
          5    1    3    3  502    0  0.16593609562E+02 -0.26793759978E+02 -0.56740892306E+02  0.65075896550E+02  0.47000000000E+01 0. -1.
        -11    1    4    4    0    0 -0.47394798677E+02  0.16745929774E+02 -0.57518792216E+03  0.57738015112E+03  0.00000000000E+00 0.  1.
         12    1    4    4    0    0 -0.62324872717E+02  0.47181028152E+02 -0.27168152059E+03  0.28270353342E+03  0.00000000000E+00 0. -1.
         -5    1    5    5    0  501  0.87901988098E+02  0.21481758673E+00 -0.15420004014E+03  0.17755716837E+03  0.47000000000E+01 0.  1.
         11    1    6    6    0    0 -0.61199651488E+01 -0.56380864908E+02 -0.22601436071E+03  0.23302091568E+03  0.00000000000E+00 0. -1.
        -12    1    6    6    0    0  0.11344038882E+02  0.19032849374E+02 -0.23172827292E+03  0.23278515640E+03  0.00000000000E+00 0.  1.
</event>
<event>
12    1  0.1348628E-002  0.1880059E+03  0.7818608E-02  0.1160272E+00
          2   -1    0    0  502    0  0.00000000000E+00  0.00000000000E+00  0.16372627923E+04  0.16372627923E+04  0.00000000000E+00 0.  1.
         -2   -1    0    0    0  501 -0.00000000000E+00 -0.00000000000E+00 -0.21658449152E+02  0.21658449152E+02  0.00000000000E+00 0. -1.
          6    2    1    2  502    0 -0.49471690709E+02 -0.64312579649E+02  0.85874194335E+03  0.87928294629E+03  0.17063768132E+03 0.  0.
         24    2    3    3    0    0 -0.98517754952E+02 -0.37666634926E+02  0.58372806868E+03  0.59862257493E+03  0.80535741322E+02 0.  0.
         -6    2    1    2    0  501  0.49471690709E+02  0.64312579649E+02  0.75686239980E+03  0.77963829516E+03  0.16855747676E+03 0.  0.
        -24    2    5    5    0    0  0.39730444159E+02  0.92080605814E+02  0.72412635966E+03  0.73536986979E+03  0.79702662879E+02 0.  0.
          5    1    3    3  502    0  0.49046064242E+02 -0.26645944723E+02  0.27501387468E+03  0.28066037136E+03  0.47000000000E+01 0. -1.
        -11    1    4    4    0    0 -0.81049795882E+02 -0.62491419076E+02  0.45264324721E+03  0.46406912859E+03  0.00000000000E+00 0.  1.
         12    1    4    4    0    0 -0.17467959069E+02  0.24824784150E+02  0.13108482147E+03  0.13455344634E+03  0.00000000000E+00 0. -1.
         -5    1    5    5    0  501  0.97412465500E+01 -0.27768026165E+02  0.32736040131E+02  0.44268425372E+02  0.47000000000E+01 0.  1.
         13    1    6    6    0    0  0.44192995965E+02  0.27083044282E+02  0.17866430451E+03  0.18603076597E+03  0.00000000000E+00 0. -1.
        -14    1    6    6    0    0 -0.44625518059E+01  0.64997561532E+02  0.54546205515E+03  0.54933910382E+03  0.00000000000E+00 0.  1.
</event>
<event>
12    1  0.1348628E-002  0.1942610E+03  0.7818608E-02  0.1154673E+00
         -2   -1    0    0    0  501 -0.00000000000E+00  0.00000000000E+00  0.11350441966E+03  0.11350441966E+03  0.00000000000E+00 0.  1.
          2   -1    0    0  502    0  0.00000000000E+00 -0.00000000000E+00 -0.38875636002E+03  0.38875636002E+03  0.00000000000E+00 0. -1.
          6    2    1    2  502    0  0.80551992271E+02  0.40009041822E+02 -0.42010922393E+02  0.19865148083E+03  0.17207017856E+03 0.  0.
         24    2    3    3    0    0  0.10758871431E+03  0.71124407015E+02 -0.41771501421E+02  0.15716295698E+03  0.79506754397E+02 0.  0.
         -6    2    1    2    0  501 -0.80551992271E+02 -0.40009041822E+02 -0.23324101797E+03  0.30360929884E+03  0.17230173241E+03 0.  0.
        -24    2    5    5    0    0  0.10710236440E+02  0.15082158589E+02 -0.69258632786E+02  0.10796639096E+03  0.80732909584E+02 0.  0.
          5    1    3    3  502    0 -0.27036722036E+02 -0.31115365192E+02 -0.23942097128E+00  0.41488523858E+02  0.47000000000E+01 0. -1.
        -13    1    4    4    0    0  0.68031868016E+02  0.82904655751E+02 -0.15812723366E+02  0.10840460890E+03  0.00000000000E+00 0.  1.
         14    1    4    4    0    0  0.39556846291E+02 -0.11780248736E+02 -0.25958778055E+02  0.48758348073E+02  0.00000000000E+00 0. -1.
         -5    1    5    5    0  501 -0.91262228711E+02 -0.55091200412E+02 -0.16398238518E+03  0.19564290788E+03  0.47000000000E+01 0.  1.
         11    1    6    6    0    0 -0.28789360610E+02  0.48199424966E+01 -0.59091616020E+02  0.65908104311E+02  0.00000000000E+00 0. -1.
        -12    1    6    6    0    0  0.39499597049E+02  0.10262216093E+02 -0.10167016765E+02  0.42058286652E+02  0.00000000000E+00 0.  1.
</event>
<event>
12    1  0.1348628E-002  0.1982557E+03  0.7818608E-02  0.1151219E+00
         -1   -1    0    0    0  501 -0.00000000000E+00  0.00000000000E+00  0.61528864699E+03  0.61528864699E+03  0.00000000000E+00 0.  1.
          1   -1    0    0  502    0  0.00000000000E+00 -0.00000000000E+00 -0.10976351410E+03  0.10976351410E+03  0.00000000000E+00 0. -1.
          6    2    1    2  502    0  0.65935436493E+02 -0.71874936387E+02  0.48738808305E+03  0.52628932758E+03  0.17297347935E+03 0.  0.
         24    2    3    3    0    0  0.24261089746E+02 -0.70495698310E+02  0.14737841867E+03  0.18370019269E+03  0.80418396826E+02 0.  0.
         -6    2    1    2    0  501 -0.65935436493E+02  0.71874936387E+02  0.18137049837E+02  0.19876283351E+03  0.17223304893E+03 0.  0.
        -24    2    5    5    0    0  0.24484791892E+01  0.91648295736E+02 -0.20314012625E+00  0.12510281565E+03  0.85119140360E+02 0.  0.
          5    1    3    3  502    0  0.41674346746E+02 -0.13792380763E+01  0.34000966438E+03  0.34258913490E+03  0.47000000000E+01 0. -1.
        -13    1    4    4    0    0 -0.23854877578E+02 -0.36694767633E+02  0.96426221362E+02  0.10589417983E+03  0.00000000000E+00 0.  1.
         14    1    4    4    0    0  0.48115967324E+02 -0.33800930677E+02  0.50952197309E+02  0.77806012857E+02  0.00000000000E+00 0. -1.
         -5    1    5    5    0  501 -0.68383915682E+02 -0.19773359349E+02  0.18340189963E+02  0.73660017865E+02  0.47000000000E+01 0.  1.
         13    1    6    6    0    0  0.14194048672E+02  0.70929458468E+02  0.36752930861E+02  0.81137149464E+02  0.00000000000E+00 0. -1.
        -14    1    6    6    0    0 -0.11745569483E+02  0.20718837268E+02 -0.36956070987E+02  0.43965666184E+02  0.00000000000E+00 0.  1.
</event>
<event>
12    1  0.1348628E-002  0.2143751E+03  0.7818608E-02  0.1138148E+00
          2   -1    0    0  502    0  0.00000000000E+00  0.00000000000E+00  0.76078647077E+03  0.76078647077E+03  0.00000000000E+00 0.  1.
         -2   -1    0    0    0  501 -0.00000000000E+00 -0.00000000000E+00 -0.77929925590E+02  0.77929925590E+02  0.00000000000E+00 0. -1.
          6    2    1    2  502    0 -0.12349590921E+03  0.57067734230E+02  0.13356099201E+03  0.24616128853E+03  0.15572050444E+03 0.  0.
         24    2    3    3    0    0 -0.23478663387E+01  0.17011000239E+02  0.63384449074E+02  0.10046218967E+03  0.76027472425E+02 0.  0.
         -6    2    1    2    0  501  0.12349590921E+03 -0.57067734230E+02  0.54929555317E+03  0.59255510783E+03  0.17574978009E+03 0.  0.
        -24    2    5    5    0    0  0.34850105353E+02  0.33419708656E+01  0.10791760607E+03  0.13830408340E+03  0.79095582507E+02 0.  0.
          5    1    3    3  502    0 -0.12114804287E+03  0.40056733992E+02  0.70176542933E+02  0.14569909886E+03  0.47000000000E+01 0. -1.
        -13    1    4    4    0    0 -0.37277971267E+02 -0.34606156025E+01  0.29392034110E+02  0.47597422948E+02  0.00000000000E+00 0.  1.
         14    1    4    4    0    0  0.34930104929E+02  0.20471615841E+02  0.33992414963E+02  0.52864766721E+02  0.00000000000E+00 0. -1.
         -5    1    5    5    0  501  0.88645803859E+02 -0.60409705096E+02  0.44137794710E+03  0.45425102443E+03  0.47000000000E+01 0.  1.
         11    1    6    6    0    0  0.91818577395E+01 -0.31600818729E+02  0.80598616813E+02  0.87057769831E+02  0.00000000000E+00 0. -1.
        -12    1    6    6    0    0  0.25668247613E+02  0.34942789594E+02  0.27318989260E+02  0.51246313568E+02  0.00000000000E+00 0.  1.
</event>
<event>
12    1  0.1348628E-002  0.2260118E+03  0.7818608E-02  0.1129479E+00
         -1   -1    0    0    0  501 -0.00000000000E+00  0.00000000000E+00  0.51246710391E+03  0.51246710391E+03  0.00000000000E+00 0.  1.
          1   -1    0    0  502    0  0.00000000000E+00 -0.00000000000E+00 -0.16134139991E+03  0.16134139991E+03  0.00000000000E+00 0. -1.
          6    2    1    2  502    0 -0.11531409756E+03 -0.91043501274E+02 -0.32956851716E+02  0.22790826853E+03  0.17108408625E+03 0.  0.
         24    2    3    3    0    0 -0.11382024620E+03 -0.10984494281E+03 -0.66320880053E+02  0.18929513369E+03  0.80082636063E+02 0.  0.
         -6    2    1    2    0  501  0.11531409756E+03  0.91043501274E+02  0.38408255572E+03  0.44590023529E+03  0.17239881090E+03 0.  0.
        -24    2    5    5    0    0  0.11882073239E+03  0.11633395141E+03  0.23236735401E+03  0.29197981499E+03  0.60047235192E+02 0.  0.
          5    1    3    3  502    0 -0.14938513550E+01  0.18801441537E+02  0.33364028337E+02  0.38613134846E+02  0.47000000000E+01 0. -1.
        -13    1    4    4    0    0  0.10214321790E+02 -0.24130231509E+02 -0.58358554729E+01  0.26845067543E+02  0.00000000000E+00 0.  1.
         14    1    4    4    0    0 -0.12403456799E+03 -0.85714711301E+02 -0.60485024580E+02  0.16245006614E+03  0.00000000000E+00 0. -1.
         -5    1    5    5    0  501 -0.35066348285E+01 -0.25290450133E+02  0.15171520171E+03  0.15392042030E+03  0.47000000000E+01 0.  1.
         11    1    6    6    0    0 -0.10732093356E+01 -0.65019773815E+00 -0.29064016390E+01  0.31657077982E+01  0.00000000000E+00 0. -1.
        -12    1    6    6    0    0  0.11989394172E+03  0.11698414914E+03  0.23527375565E+03  0.28881410719E+03  0.00000000000E+00 0.  1.
</event>
<event>
12    1  0.1348628E-002  0.4200788E+03  0.7818608E-02  0.1037041E+00
          2   -1    0    0  502    0  0.00000000000E+00  0.00000000000E+00  0.13149040985E+04  0.13149040985E+04  0.00000000000E+00 0.  1.
         -2   -1    0    0    0  501 -0.00000000000E+00 -0.00000000000E+00 -0.13470914588E+03  0.13470914588E+03  0.00000000000E+00 0. -1.
          6    2    1    2  502    0 -0.29225592744E+03  0.24713759581E+03  0.54472860128E+03  0.68744320757E+03  0.17134291988E+03 0.  0.
         24    2    3    3    0    0 -0.60691612724E+02  0.11244467353E+03  0.16801260573E+03  0.22516488613E+03  0.78381846141E+02 0.  0.
         -6    2    1    2    0  501  0.29225592744E+03 -0.24713759581E+03  0.63546635133E+03  0.76217003681E+03  0.17491473048E+03 0.  0.
        -24    2    5    5    0    0  0.17998836567E+03 -0.82631972474E+02  0.40279476622E+03  0.45586257354E+03  0.79644256563E+02 0.  0.
          5    1    3    3  502    0 -0.23156431472E+03  0.13469292228E+03  0.37671599555E+03  0.46227832144E+03  0.47000000000E+01 0. -1.
        -13    1    4    4    0    0 -0.68403672625E+02  0.11522144479E+03  0.17026107696E+03  0.21666535971E+03  0.00000000000E+00 0.  1.
         14    1    4    4    0    0  0.77120599019E+01 -0.27767712627E+01 -0.22484712360E+01  0.84995264265E+01  0.00000000000E+00 0. -1.
         -5    1    5    5    0  501  0.11226756177E+03 -0.16450562334E+03  0.23267158511E+03  0.30630746327E+03  0.47000000000E+01 0.  1.
         13    1    6    6    0    0  0.10933803836E+03 -0.91072222878E+02  0.27088026681E+03  0.30598214876E+03  0.00000000000E+00 0. -1.
        -14    1    6    6    0    0  0.70650327317E+02  0.84402504039E+01  0.13191449941E+03  0.14988042478E+03  0.00000000000E+00 0.  1.
</event>
<event>
12    1  0.1348628E-002  0.1904611E+03  0.7818608E-02  0.1158046E+00
          2   -1    0    0  502    0  0.00000000000E+00  0.00000000000E+00  0.84089975998E+03  0.84089975998E+03  0.00000000000E+00 0. -1.
         -2   -1    0    0    0  501 -0.00000000000E+00 -0.00000000000E+00 -0.43901377299E+02  0.43901377299E+02  0.00000000000E+00 0.  1.
          6    2    1    2  502    0 -0.56810628038E+02 -0.62120567723E+02  0.45955236033E+03  0.49798902687E+03  0.17238992607E+03 0.  0.
         24    2    3    3    0    0  0.92159200681E+01 -0.57769159587E+01  0.34449843426E+03  0.35378913765E+03  0.79807748798E+02 0.  0.
         -6    2    1    2    0  501  0.56810628038E+02  0.62120567723E+02  0.33744602235E+03  0.38681211041E+03  0.16931443637E+03 0.  0.
        -24    2    5    5    0    0 -0.21107817907E+02  0.51101300687E+02  0.11030224974E+03  0.14637689689E+03  0.78757391625E+02 0.  0.
          5    1    3    3  502    0 -0.66026548107E+02 -0.56343651764E+02  0.11505392607E+03  0.14419988922E+03  0.47000000000E+01 0. -1.
        -13    1    4    4    0    0  0.39471898509E+01 -0.42655756792E+02  0.16540992737E+03  0.17086701837E+03  0.00000000000E+00 0.  1.
         14    1    4    4    0    0  0.52687302172E+01  0.36878840833E+02  0.17908850689E+03  0.18292211928E+03  0.00000000000E+00 0. -1.
         -5    1    5    5    0  501  0.77918445945E+02  0.11019267035E+02  0.22714377261E+03  0.24043521352E+03  0.47000000000E+01 0.  1.
         13    1    6    6    0    0 -0.85753408597E+01  0.71268968854E+02  0.90115738678E+02  0.11521132214E+03  0.00000000000E+00 0. -1.
        -14    1    6    6    0    0 -0.12532477047E+02 -0.20167668167E+02  0.20186511066E+02  0.31165574746E+02  0.00000000000E+00 0.  1.
</event>
<event>
12    1  0.1348628E-002  0.1748642E+03  0.7818608E-02  0.1172868E+00
          2   -1    0    0  502    0  0.00000000000E+00  0.00000000000E+00  0.43362571352E+03  0.43362571352E+03  0.00000000000E+00 0. -1.
         -2   -1    0    0    0  501 -0.00000000000E+00 -0.00000000000E+00 -0.14603822459E+03  0.14603822459E+03  0.00000000000E+00 0.  1.
          6    2    1    2  502    0  0.21058994678E+02  0.15416594101E+01  0.35201080626E+03  0.39281958661E+03  0.17305999516E+03 0.  0.
         24    2    3    3    0    0  0.42041801982E+02  0.33952445754E+02  0.10234355622E+03  0.14014081223E+03  0.79025072398E+02 0.  0.
         -6    2    1    2    0  501 -0.21058994678E+02 -0.15416594101E+01 -0.64423317341E+02  0.18684435150E+03  0.17411085521E+03 0.  0.
        -24    2    5    5    0    0  0.28614679701E+02 -0.44471357070E+02 -0.73298220376E+02  0.12042683295E+03  0.79583236231E+02 0.  0.
          5    1    3    3  502    0 -0.20982807304E+02 -0.32410786343E+02  0.24966725005E+03  0.25267877437E+03  0.47000000000E+01 0. -1.
        -11    1    4    4    0    0 -0.23096240905E+02  0.20573175710E+01  0.26029113678E+02  0.34859484482E+02  0.00000000000E+00 0.  1.
         12    1    4    4    0    0  0.65138042886E+02  0.31895128183E+02  0.76314442540E+02  0.10528132775E+03  0.00000000000E+00 0. -1.
         -5    1    5    5    0  501 -0.49673674379E+02  0.42929697660E+02  0.88749030353E+01  0.66417518558E+02  0.47000000000E+01 0.  1.
         13    1    6    6    0    0  0.47805072421E+02 -0.17077758543E+02 -0.14521573945E+02  0.52800103181E+02  0.00000000000E+00 0. -1.
        -14    1    6    6    0    0 -0.19190392720E+02 -0.27393598527E+02 -0.58776646432E+02  0.67626729765E+02  0.00000000000E+00 0.  1.
</event>
<event>
12    1  0.1348628E-002  0.2307628E+03  0.7818608E-02  0.1126104E+00
         -2   -1    0    0    0  501 -0.00000000000E+00  0.00000000000E+00  0.11887980907E+03  0.11887980907E+03  0.00000000000E+00 0. -1.
          2   -1    0    0  502    0  0.00000000000E+00 -0.00000000000E+00 -0.62131082164E+03  0.62131082164E+03  0.00000000000E+00 0.  1.
          6    2    1    2  502    0 -0.15704865039E+02 -0.15273877212E+03 -0.55667608448E+02  0.23732046115E+03  0.17218113530E+03 0.  0.
         24    2    3    3    0    0 -0.10999558451E+02 -0.37572874822E+02 -0.80084792256E+02  0.11940687976E+03  0.79446320085E+02 0.  0.
         -6    2    1    2    0  501  0.15704865039E+02  0.15273877212E+03 -0.44676340413E+03  0.50287016957E+03  0.17235165471E+03 0.  0.
        -24    2    5    5    0    0  0.94921814457E+00  0.41255839413E+01 -0.18750757144E+03  0.20363901210E+03  0.79321097100E+02 0.  0.
          5    1    3    3  502    0 -0.47053065877E+01 -0.11516589729E+03  0.24417183809E+02  0.11791358138E+03  0.47000000000E+01 0. -1.
        -13    1    4    4    0    0  0.15464784471E+02 -0.47631137039E+02 -0.21816148978E+02  0.54624437120E+02  0.00000000000E+00 0.  1.
         14    1    4    4    0    0 -0.26464342921E+02  0.10058262218E+02 -0.58268643278E+02  0.64782442642E+02  0.00000000000E+00 0. -1.
         -5    1    5    5    0  501  0.14755646894E+02  0.14861318818E+03 -0.25925583269E+03  0.29923115746E+03  0.47000000000E+01 0.  1.
         11    1    6    6    0    0 -0.32630521055E+02 -0.15387243946E+02 -0.56844535155E+02  0.67326215976E+02  0.00000000000E+00 0. -1.
        -12    1    6    6    0    0  0.33579739200E+02  0.19512827887E+02 -0.13066303629E+03  0.13631279613E+03  0.00000000000E+00 0.  1.
</event>
<event>
12    1  0.1348628E-002  0.2449789E+03  0.7818608E-02  0.1116520E+00
         -2   -1    0    0    0  501 -0.00000000000E+00  0.00000000000E+00  0.37612993186E+02  0.37612993186E+02  0.00000000000E+00 0.  1.
          2   -1    0    0  502    0  0.00000000000E+00 -0.00000000000E+00 -0.16817002624E+04  0.16817002624E+04  0.00000000000E+00 0. -1.
          6    2    1    2  502    0  0.89662208847E+02 -0.15043947148E+03 -0.10157200595E+04  0.10447825251E+04  0.17091500578E+03 0.  0.
         24    2    3    3    0    0  0.11680045684E+03 -0.12317462231E+03 -0.95091197104E+03  0.96927070593E+03  0.80235842401E+02 0.  0.
         -6    2    1    2    0  501 -0.89662208847E+02  0.15043947148E+03 -0.62836720970E+03  0.67453073048E+03  0.17168287585E+03 0.  0.
        -24    2    5    5    0    0  0.17594839664E+02  0.57576427483E+02 -0.18702025207E+03  0.21091791098E+03  0.76714842779E+02 0.  0.
          5    1    3    3  502    0 -0.27138247997E+02 -0.27264849169E+02 -0.64808088496E+02  0.75511819201E+02  0.47000000000E+01 0. -1.
        -11    1    4    4    0    0  0.51016761639E+02 -0.63317901742E+02 -0.25379019973E+03  0.26649827790E+03  0.00000000000E+00 0.  1.
         12    1    4    4    0    0  0.65783695205E+02 -0.59856720567E+02 -0.69712177132E+03  0.70277242803E+03  0.00000000000E+00 0. -1.
         -5    1    5    5    0  501 -0.10725704851E+03  0.92863043996E+02 -0.44134695764E+03  0.46361281951E+03  0.47000000000E+01 0.  1.
         11    1    6    6    0    0  0.24563141865E+02  0.60349815076E+01 -0.11374437317E+02  0.27733495350E+02  0.00000000000E+00 0. -1.
        -12    1    6    6    0    0 -0.69683022004E+01  0.51541445975E+02 -0.17564581475E+03  0.18318441563E+03  0.00000000000E+00 0.  1.
</event>
<event>
12    1  0.1348628E-002  0.2710081E+03  0.7818608E-02  0.1100704E+00
         -2   -1    0    0    0  501 -0.00000000000E+00  0.00000000000E+00  0.18727342431E+02  0.18727342431E+02  0.00000000000E+00 0.  1.
          2   -1    0    0  502    0  0.00000000000E+00 -0.00000000000E+00 -0.41009295618E+04  0.41009295618E+04  0.00000000000E+00 0. -1.
          6    2    1    2  502    0  0.19833360313E+03  0.67239443169E+02 -0.24729565704E+04  0.24877830274E+04  0.17231608034E+03 0.  0.
         24    2    3    3    0    0  0.15088326447E+03  0.25152266902E+02 -0.11470272333E+04  0.11603292384E+04  0.85405336299E+02 0.  0.
         -6    2    1    2    0  501 -0.19833360313E+03 -0.67239443169E+02 -0.16092456490E+04  0.16318738769E+04  0.17170739727E+03 0.  0.
        -24    2    5    5    0    0 -0.12932673629E+03 -0.44654916608E+02 -0.61593576808E+03  0.63590268347E+03  0.79220490712E+02 0.  0.
          5    1    3    3  502    0  0.47450338659E+02  0.42087176267E+02 -0.13259293371E+04  0.13274537890E+04  0.47000000000E+01 0. -1.
        -13    1    4    4    0    0  0.95613656474E+02 -0.20329750771E+02 -0.50915039987E+03  0.51844903294E+03  0.00000000000E+00 0.  1.
         14    1    4    4    0    0  0.55269607994E+02  0.45482017674E+02 -0.63787683343E+03  0.64188020543E+03  0.00000000000E+00 0. -1.
         -5    1    5    5    0  501 -0.69006866838E+02 -0.22584526562E+02 -0.99330988094E+03  0.99597119340E+03  0.47000000000E+01 0.  1.
         11    1    6    6    0    0 -0.39397762851E+02  0.21556719440E+02 -0.21896377842E+03  0.22352183815E+03  0.00000000000E+00 0. -1.
        -12    1    6    6    0    0 -0.89928973437E+02 -0.66211636047E+02 -0.39697198966E+03  0.41238084532E+03  0.00000000000E+00 0.  1.
</event>
<event>
12    1  0.1348628E-002  0.2644919E+03  0.7818608E-02  0.1104474E+00
          2   -1    0    0  502    0  0.00000000000E+00  0.00000000000E+00  0.31554227216E+03  0.31554227216E+03  0.00000000000E+00 0.  1.
         -2   -1    0    0    0  501 -0.00000000000E+00 -0.00000000000E+00 -0.27164839149E+03  0.27164839149E+03  0.00000000000E+00 0. -1.
          6    2    1    2  502    0  0.43232797412E+02 -0.19714041137E+03 -0.10391567912E+03  0.28458463447E+03  0.17162904546E+03 0.  0.
         24    2    3    3    0    0  0.59548493785E+02 -0.21812125764E+03 -0.93288005542E+02  0.25557713021E+03  0.74122273049E+02 0.  0.
         -6    2    1    2    0  501 -0.43232797412E+02  0.19714041137E+03  0.14780955979E+03  0.30260602917E+03  0.17026252188E+03 0.  0.
        -24    2    5    5    0    0 -0.22683822115E+01  0.31784863855E+02  0.83189366426E+02  0.12034687358E+03  0.80916476474E+02 0.  0.
          5    1    3    3  502    0 -0.16315696373E+02  0.20980846265E+02 -0.10627673575E+02  0.29007504266E+02  0.47000000000E+01 0. -1.
        -13    1    4    4    0    0  0.75691726752E+02 -0.19498454459E+03 -0.76286517260E+02  0.22263836786E+03  0.00000000000E+00 0.  1.
         14    1    4    4    0    0 -0.16143232967E+02 -0.23136713051E+02 -0.17001488282E+02  0.32938762352E+02  0.00000000000E+00 0. -1.
         -5    1    5    5    0  501 -0.40964415201E+02  0.16535554752E+03  0.64620193366E+02  0.18225915560E+03  0.47000000000E+01 0.  1.
         11    1    6    6    0    0  0.33053769081E+02  0.38734757736E+02  0.50628285292E+02  0.71806381185E+02  0.00000000000E+00 0. -1.
        -12    1    6    6    0    0 -0.35322151292E+02 -0.69498938808E+01  0.32561081134E+02  0.48540492390E+02  0.00000000000E+00 0.  1.
</event>
<event>
12    1  0.1348628E-002  0.2201507E+03  0.7818608E-02  0.1133771E+00
          2   -1    0    0  502    0  0.00000000000E+00  0.00000000000E+00  0.13910942999E+04  0.13910942999E+04  0.00000000000E+00 0.  1.
         -2   -1    0    0    0  501 -0.00000000000E+00 -0.00000000000E+00 -0.34870933099E+02  0.34870933099E+02  0.00000000000E+00 0. -1.
          6    2    1    2  502    0  0.13835404861E+03 -0.37580367991E+01  0.65582395248E+03  0.69165988614E+03  0.17068208997E+03 0.  0.
         24    2    3    3    0    0  0.98241836362E+02 -0.54270148550E+02  0.29521727977E+03  0.32529978268E+03  0.77910197652E+02 0.  0.
         -6    2    1    2    0  501 -0.13835404861E+03  0.37580367991E+01  0.70039941430E+03  0.73430534684E+03  0.17172372359E+03 0.  0.
        -24    2    5    5    0    0 -0.61689307320E+01 -0.22935442212E+02  0.22811504582E+03  0.24312303657E+03  0.80673704316E+02 0.  0.
          5    1    3    3  502    0  0.40112212247E+02  0.50512111751E+02  0.36060667271E+03  0.36636010346E+03  0.47000000000E+01 0. -1.
        -13    1    4    4    0    0  0.48608271081E+01 -0.33059001111E+02  0.13107043468E+03  0.13526264837E+03  0.00000000000E+00 0.  1.
         14    1    4    4    0    0  0.93381009253E+02 -0.21211147440E+02  0.16414684509E+03  0.19003713431E+03  0.00000000000E+00 0. -1.
         -5    1    5    5    0  501 -0.13218511788E+03  0.26693479011E+02  0.47228436848E+03  0.49118231027E+03  0.47000000000E+01 0.  1.
         11    1    6    6    0    0 -0.34647969416E+02 -0.38274571689E+02  0.13379284937E+03  0.14340833716E+03  0.00000000000E+00 0. -1.
        -12    1    6    6    0    0  0.28479038684E+02  0.15339129478E+02  0.94322196445E+02  0.99714699416E+02  0.00000000000E+00 0.  1.
</event>
<event>
12    1  0.1348628E-002  0.1957748E+03  0.7818608E-02  0.1153354E+00
         -2   -1    0    0    0  501 -0.00000000000E+00  0.00000000000E+00  0.22191515845E+02  0.22191515845E+02  0.00000000000E+00 0.  1.
          2   -1    0    0  502    0  0.00000000000E+00 -0.00000000000E+00 -0.18624453033E+04  0.18624453033E+04  0.00000000000E+00 0. -1.
          6    2    1    2  502    0  0.45560196603E+02  0.79332943231E+02 -0.11767262113E+04  0.11929999448E+04  0.17376663832E+03 0.  0.
         24    2    3    3    0    0  0.12885492772E+02  0.10343791832E+03 -0.10795544810E+04  0.10875811549E+04  0.80805025915E+02 0.  0.
         -6    2    1    2    0  501 -0.45560196603E+02 -0.79332943231E+02 -0.66352757624E+03  0.69163687441E+03  0.17240439151E+03 0.  0.
        -24    2    5    5    0    0 -0.19487516613E+02 -0.50161143407E+02 -0.63674541795E+03  0.64399075652E+03  0.79896580607E+02 0.  0.
          5    1    3    3  502    0  0.32674703831E+02 -0.24104975093E+02 -0.97171730231E+02  0.10541878984E+03  0.47000000000E+01 0. -1.
        -13    1    4    4    0    0  0.15902555062E+02  0.40336497200E+02 -0.15731998230E+03  0.16318548065E+03  0.00000000000E+00 0.  1.
         14    1    4    4    0    0 -0.30170622906E+01  0.63101421125E+02 -0.92223449872E+03  0.92439567429E+03  0.00000000000E+00 0. -1.
         -5    1    5    5    0  501 -0.26072679990E+02 -0.29171799825E+02 -0.26782158292E+02  0.47646117887E+02  0.47000000000E+01 0.  1.
         13    1    6    6    0    0 -0.40160053692E+02 -0.13313231234E+02 -0.47277518699E+03  0.47466456522E+03  0.00000000000E+00 0. -1.
        -14    1    6    6    0    0  0.20672537079E+02 -0.36847912172E+02 -0.16397023096E+03  0.16932619131E+03  0.00000000000E+00 0.  1.
</event>
<event>
12    1  0.1348628E-002  0.2262658E+03  0.7818608E-02  0.1129296E+00
          2   -1    0    0  502    0  0.00000000000E+00  0.00000000000E+00  0.98615561730E+03  0.98615561730E+03  0.00000000000E+00 0. -1.
         -2   -1    0    0    0  501 -0.00000000000E+00 -0.00000000000E+00 -0.56984782893E+02  0.56984782893E+02  0.00000000000E+00 0.  1.
          6    2    1    2  502    0  0.78268670811E+02  0.13017730129E+03  0.62566988938E+03  0.66636976409E+03  0.17179562685E+03 0.  0.
         24    2    3    3    0    0 -0.21818630300E+02  0.25600721957E+02  0.24362780258E+03  0.25779666796E+03  0.77286261579E+02 0.  0.
         -6    2    1    2    0  501 -0.78268670811E+02 -0.13017730129E+03  0.30350094502E+03  0.37677063610E+03  0.16361899034E+03 0.  0.
        -24    2    5    5    0    0 -0.37022760163E+01 -0.11501358000E+03  0.15520396899E+03  0.21002481524E+03  0.82342702134E+02 0.  0.
          5    1    3    3  502    0  0.10008730111E+03  0.10457657933E+03  0.38204208681E+03  0.40857309613E+03  0.47000000000E+01 0. -1.
        -11    1    4    4    0    0  0.18960072946E+02 -0.84823812593E+01  0.13797507260E+03  0.13952976678E+03  0.00000000000E+00 0.  1.
         12    1    4    4    0    0 -0.40778703246E+02  0.34083103217E+02  0.10565272997E+03  0.11826690118E+03  0.00000000000E+00 0. -1.
         -5    1    5    5    0  501 -0.74566394795E+02 -0.15163721290E+02  0.14829697603E+03  0.16674582087E+03  0.47000000000E+01 0.  1.
         11    1    6    6    0    0 -0.31923192076E+02 -0.32322200207E+02  0.90628889067E+02  0.10137756336E+03  0.00000000000E+00 0. -1.
        -12    1    6    6    0    0  0.28220916059E+02 -0.82691379789E+02  0.64575079923E+02  0.10864725188E+03  0.00000000000E+00 0.  1.
</event>
<event>
12    1  0.1348628E-002  0.1740812E+03  0.7818608E-02  0.1173657E+00
          1   -1    0    0  502    0  0.00000000000E+00  0.00000000000E+00  0.17145456070E+04  0.17145456070E+04  0.00000000000E+00 0. -1.
         -1   -1    0    0    0  501 -0.00000000000E+00 -0.00000000000E+00 -0.60751540565E+02  0.60751540565E+02  0.00000000000E+00 0.  1.
          6    2    1    2  502    0 -0.87516558684E+01  0.35792329625E+02  0.77211520211E+02  0.18895215350E+03  0.16847437525E+03 0.  0.
         24    2    3    3    0    0  0.12128524889E+02  0.60197734497E+02 -0.53580541837E+01  0.10023107172E+03  0.79036008500E+02 0.  0.
         -6    2    1    2    0  501  0.87516558684E+01 -0.35792329625E+02  0.15765825462E+04  0.15863449941E+04  0.17181453025E+03 0.  0.
        -24    2    5    5    0    0 -0.43968906882E+01 -0.61137104983E+02  0.15148942178E+04  0.15182070327E+04  0.79315980735E+02 0.  0.
          5    1    3    3  502    0 -0.20880180757E+02 -0.24405404872E+02  0.82569574395E+02  0.88721081774E+02  0.47000000000E+01 0. -1.
        -13    1    4    4    0    0  0.37167971151E+02  0.25663833033E+02  0.21291690689E+02  0.49934221711E+02  0.00000000000E+00 0.  1.
         14    1    4    4    0    0 -0.25039446262E+02  0.34533901463E+02 -0.26649744873E+02  0.50296850013E+02  0.00000000000E+00 0. -1.
         -5    1    5    5    0  501  0.13148546557E+02  0.25344775357E+02  0.61688328473E+02  0.68137961404E+02  0.47000000000E+01 0.  1.
         13    1    6    6    0    0 -0.24913163002E+02 -0.50431885620E+02  0.51815887367E+03  0.52120308819E+03  0.00000000000E+00 0. -1.
        -14    1    6    6    0    0  0.20516272314E+02 -0.10705219362E+02  0.99673534409E+03  0.99700394448E+03  0.00000000000E+00 0.  1.
</event>
<event>
12    1  0.1348628E-002  0.1743315E+03  0.7818608E-02  0.1173405E+00
          4   -1    0    0  502    0  0.00000000000E+00  0.00000000000E+00  0.93406178476E+02  0.93406178476E+02  0.00000000000E+00 0.  1.
         -4   -1    0    0    0  501 -0.00000000000E+00 -0.00000000000E+00 -0.32691663196E+03  0.32691663196E+03  0.00000000000E+00 0. -1.
          6    2    1    2  502    0  0.49912583724E+01  0.36573948874E+02 -0.10097732159E+03  0.19938466036E+03  0.16791443332E+03 0.  0.
         24    2    3    3    0    0  0.91492660476E+01 -0.19611246521E+02  0.18577636017E+01  0.82033861665E+02  0.79106214134E+02 0.  0.
         -6    2    1    2    0  501 -0.49912583724E+01 -0.36573948874E+02 -0.13253313190E+03  0.22093815007E+03  0.17287587660E+03 0.  0.
        -24    2    5    5    0    0  0.58926091878E+02 -0.49166456635E+02 -0.92080659529E+02  0.14411047644E+03  0.79995979894E+02 0.  0.
          5    1    3    3  502    0 -0.41580076753E+01  0.56185195395E+02 -0.10283508519E+03  0.11735079870E+03  0.47000000000E+01 0. -1.
        -11    1    4    4    0    0  0.18111746044E+02 -0.48431519525E+02 -0.10016677830E+01  0.51717025887E+02  0.00000000000E+00 0.  1.
         12    1    4    4    0    0 -0.89624799967E+01  0.28820273004E+02  0.28594313847E+01  0.30316835777E+02  0.00000000000E+00 0. -1.
         -5    1    5    5    0  501 -0.63917350250E+02  0.12592507761E+02 -0.40452472370E+02  0.76827673631E+02  0.47000000000E+01 0.  1.
         11    1    6    6    0    0  0.30080884568E+02 -0.26155266512E+02 -0.98859687505E+02  0.10659359923E+03  0.00000000000E+00 0. -1.
        -12    1    6    6    0    0  0.28845207310E+02 -0.23011190123E+02  0.67790279766E+01  0.37516877215E+02  0.00000000000E+00 0.  1.
</event>
<event>
12    1  0.1348628E-002  0.2536178E+03  0.7818608E-02  0.1111040E+00
          1   -1    0    0  502    0  0.00000000000E+00  0.00000000000E+00  0.75539979579E+03  0.75539979579E+03  0.00000000000E+00 0.  1.
         -1   -1    0    0    0  501 -0.00000000000E+00 -0.00000000000E+00 -0.86072992487E+02  0.86072992487E+02  0.00000000000E+00 0. -1.
          6    2    1    2  502    0 -0.17419190903E+03  0.65247044013E+02  0.37842986905E+03  0.45563637643E+03  0.17261327821E+03 0.  0.
         24    2    3    3    0    0 -0.16707956648E+03 -0.19998848183E+01  0.25784970830E+03  0.31730922790E+03  0.79240727943E+02 0.  0.
         -6    2    1    2    0  501  0.17419190903E+03 -0.65247044013E+02  0.29089693426E+03  0.38583641185E+03  0.17218801476E+03 0.  0.
        -24    2    5    5    0    0  0.57160987415E+02 -0.81353933791E+02  0.10707131565E+03  0.16727379710E+03  0.81427363556E+02 0.  0.
          5    1    3    3  502    0 -0.71123425455E+01  0.67246928832E+02  0.12058016075E+03  0.13832714853E+03  0.47000000000E+01 0. -1.
        -11    1    4    4    0    0 -0.24541407313E+02 -0.27493664738E+02  0.79139017887E+02  0.87299292241E+02  0.00000000000E+00 0.  1.
         12    1    4    4    0    0 -0.14253815917E+03  0.25493779920E+02  0.17871069041E+03  0.23000993566E+03  0.00000000000E+00 0. -1.
         -5    1    5    5    0  501  0.11703092161E+03  0.16106889777E+02  0.18382561860E+03  0.21856261475E+03  0.47000000000E+01 0.  1.
         13    1    6    6    0    0  0.21697938314E+02  0.11805076344E+02  0.40395361968E+02  0.47349188199E+02  0.00000000000E+00 0. -1.
        -14    1    6    6    0    0  0.35463049101E+02 -0.93159010135E+02  0.66675953685E+02  0.11992460890E+03  0.00000000000E+00 0.  1.
</event>
<event>
12    1  0.1348628E-002  0.2998228E+03  0.7818608E-02  0.1085329E+00
          2   -1    0    0  502    0  0.00000000000E+00  0.00000000000E+00  0.10671334440E+04  0.10671334440E+04  0.00000000000E+00 0.  1.
         -2   -1    0    0    0  501 -0.00000000000E+00 -0.00000000000E+00 -0.18709960504E+03  0.18709960504E+03  0.00000000000E+00 0. -1.
          6    2    1    2  502    0  0.18360329798E+03  0.16261732783E+03  0.90482492696E+03  0.95312283897E+03  0.17198962581E+03 0.  0.
         24    2    3    3    0    0  0.89891713325E+02  0.16657919890E+03  0.58775714194E+03  0.62243926239E+03  0.78377470228E+02 0.  0.
         -6    2    1    2    0  501 -0.18360329798E+03 -0.16261732783E+03 -0.24791088009E+02  0.30111021007E+03  0.17291094304E+03 0.  0.
        -24    2    5    5    0    0 -0.13499639715E+03 -0.15502736607E+03  0.35523769253E+02  0.22313450658E+03  0.79180542878E+02 0.  0.
          5    1    3    3  502    0  0.93711584652E+02 -0.39618710697E+01  0.31706778502E+03  0.33068357658E+03  0.47000000000E+01 0. -1.
        -13    1    4    4    0    0 -0.42437097483E+01  0.57521755823E+02  0.12273316363E+03  0.13561043809E+03  0.00000000000E+00 0.  1.
         14    1    4    4    0    0  0.94135423073E+02  0.10905744308E+03  0.46502397831E+03  0.48682882430E+03  0.00000000000E+00 0. -1.
         -5    1    5    5    0  501 -0.48606900830E+02 -0.75899617631E+01 -0.60314857262E+02  0.77975703488E+02  0.47000000000E+01 0.  1.
         13    1    6    6    0    0 -0.32509358365E+02 -0.77476819852E+02 -0.14421738894E+02  0.85249648377E+02  0.00000000000E+00 0. -1.
        -14    1    6    6    0    0 -0.10248703878E+03 -0.77550546220E+02  0.49945508147E+02  0.13788485820E+03  0.00000000000E+00 0.  1.
</event>
<event>
12    1  0.1348628E-002  0.1768746E+03  0.7818608E-02  0.1170863E+00
          1   -1    0    0  502    0  0.00000000000E+00  0.00000000000E+00  0.50689344302E+03  0.50689344302E+03  0.00000000000E+00 0.  1.
         -1   -1    0    0    0  501 -0.00000000000E+00 -0.00000000000E+00 -0.13626016920E+03  0.13626016920E+03  0.00000000000E+00 0. -1.
          6    2    1    2  502    0  0.60357258078E+01 -0.38518650170E+02 -0.52316037605E+02  0.18488393289E+03  0.17298839399E+03 0.  0.
         24    2    3    3    0    0 -0.13961378469E+02 -0.16156995805E+02  0.37087485916E+02  0.90464613983E+02  0.79701920738E+02 0.  0.
         -6    2    1    2    0  501 -0.60357258078E+01  0.38518650170E+02  0.42294931142E+03  0.45826967933E+03  0.17206063629E+03 0.  0.
        -24    2    5    5    0    0  0.24159237389E+02  0.86075714625E+02  0.27960051973E+03  0.30417757615E+03  0.79717311784E+02 0.  0.
          5    1    3    3  502    0  0.19997104277E+02 -0.22361654365E+02 -0.89403523521E+02  0.94419318910E+02  0.47000000000E+01 0. -1.
        -11    1    4    4    0    0  0.15683274144E+02 -0.37050097869E+02  0.24393209126E+01  0.40306638740E+02  0.00000000000E+00 0.  1.
         12    1    4    4    0    0 -0.29644652614E+02  0.20893102064E+02  0.34648165004E+02  0.50157975244E+02  0.00000000000E+00 0. -1.
         -5    1    5    5    0  501 -0.30194963197E+02 -0.47557064455E+02  0.14334879169E+03  0.15409210318E+03  0.47000000000E+01 0.  1.
         13    1    6    6    0    0  0.26478354312E+02  0.66171722047E+02  0.96410814217E+02  0.11989514229E+03  0.00000000000E+00 0. -1.
        -14    1    6    6    0    0 -0.23191169224E+01  0.19903992578E+02  0.18318970552E+03  0.18428243386E+03  0.00000000000E+00 0.  1.
</event>
<event>
12    1  0.1348628E-002  0.2059542E+03  0.7818608E-02  0.1144810E+00
         -1   -1    0    0    0  501 -0.00000000000E+00  0.00000000000E+00  0.89259669130E+02  0.89259669130E+02  0.00000000000E+00 0. -1.
          1   -1    0    0  502    0  0.00000000000E+00 -0.00000000000E+00 -0.60576198768E+03  0.60576198768E+03  0.00000000000E+00 0.  1.
          6    2    1    2  502    0 -0.97396004996E+02 -0.56138671681E+02 -0.41960806373E+03  0.46744032965E+03  0.17260359900E+03 0.  0.
         24    2    3    3    0    0 -0.16492104095E+02 -0.62908732358E+01 -0.31664925703E+03  0.32725170647E+03  0.80717797472E+02 0.  0.
         -6    2    1    2    0  501  0.97396004996E+02  0.56138671681E+02 -0.96894254826E+02  0.22758132717E+03  0.17253182782E+03 0.  0.
        -24    2    5    5    0    0  0.27881694862E+02  0.75593991994E+01  0.20922750618E+02  0.82339729133E+02  0.74212775690E+02 0.  0.
          5    1    3    3  502    0 -0.80903900900E+02 -0.49847798445E+02 -0.10295880670E+03  0.14018862318E+03  0.47000000000E+01 0. -1.
        -13    1    4    4    0    0  0.49142915913E+00 -0.39879494128E+02 -0.21895893449E+03  0.22256152081E+03  0.00000000000E+00 0.  1.
         14    1    4    4    0    0 -0.16983533255E+02  0.33588620892E+02 -0.97690322536E+02  0.10469018566E+03  0.00000000000E+00 0. -1.
         -5    1    5    5    0  501  0.69514310134E+02  0.48579272482E+02 -0.11781700544E+03  0.14524159804E+03  0.47000000000E+01 0.  1.
         11    1    6    6    0    0  0.69632169142E+01 -0.25808426710E+02  0.31741581780E+02  0.41498063725E+02  0.00000000000E+00 0. -1.
        -12    1    6    6    0    0  0.20918477948E+02  0.33367825909E+02 -0.10818831162E+02  0.40841665408E+02  0.00000000000E+00 0.  1.
</event>
<event>
12    1  0.1348628E-002  0.2562183E+03  0.7818608E-02  0.1109437E+00
         -3   -1    0    0    0  501 -0.00000000000E+00  0.00000000000E+00  0.19565113702E+03  0.19565113702E+03  0.00000000000E+00 0. -1.
          3   -1    0    0  502    0  0.00000000000E+00 -0.00000000000E+00 -0.52914559602E+03  0.52914559602E+03  0.00000000000E+00 0.  1.
          6    2    1    2  502    0  0.18498141184E+03  0.46429603023E+02 -0.38571063392E+03  0.46272577627E+03  0.17020170428E+03 0.  0.
         24    2    3    3    0    0  0.10973178372E+03  0.82303665703E+02 -0.32094893580E+03  0.35705826731E+03  0.75282329380E+02 0.  0.
         -6    2    1    2    0  501 -0.18498141184E+03 -0.46429603023E+02  0.52216174924E+02  0.26207095677E+03  0.17199077502E+03 0.  0.
        -24    2    5    5    0    0 -0.13874861565E+03 -0.51654658870E+02 -0.26643694921E+02  0.17038812454E+03  0.80017775399E+02 0.  0.
          5    1    3    3  502    0  0.75249628123E+02 -0.35874062680E+02 -0.64761698117E+02  0.10566750896E+03  0.47000000000E+01 0. -1.
        -13    1    4    4    0    0 -0.45673542696E+01 -0.86508060351E+01 -0.29006142351E+02  0.30611329017E+02  0.00000000000E+00 0.  1.
         14    1    4    4    0    0  0.11429913799E+03  0.90954471738E+02 -0.29194279345E+03  0.32644693830E+03  0.00000000000E+00 0. -1.
         -5    1    5    5    0  501 -0.46232796199E+02  0.52250558468E+01  0.78859869844E+02  0.91682832225E+02  0.47000000000E+01 0.  1.
         11    1    6    6    0    0 -0.90600267019E+02 -0.31586922038E+02  0.22685890446E+02  0.98594075142E+02  0.00000000000E+00 0. -1.
        -12    1    6    6    0    0 -0.48148348626E+02 -0.20067736833E+02 -0.49329585367E+02  0.71794049401E+02  0.00000000000E+00 0.  1.
</event>
<event>
12    1  0.1348628E-002  0.1987846E+03  0.7818608E-02  0.1150769E+00
         -2   -1    0    0    0  501 -0.00000000000E+00  0.00000000000E+00  0.10160214814E+03  0.10160214814E+03  0.00000000000E+00 0. -1.
          2   -1    0    0  502    0  0.00000000000E+00 -0.00000000000E+00 -0.41611633397E+03  0.41611633397E+03  0.00000000000E+00 0.  1.
          6    2    1    2  502    0 -0.66897310257E+02 -0.69019903852E+02 -0.22231127843E+03  0.29724426678E+03  0.17231614077E+03 0.  0.
         24    2    3    3    0    0  0.43277085570E+01 -0.86407892603E+02 -0.16940840414E+03  0.20671167836E+03  0.80904002449E+02 0.  0.
         -6    2    1    2    0  501  0.66897310257E+02  0.69019903852E+02 -0.92202907403E+02  0.22047421533E+03  0.17569435462E+03 0.  0.
        -24    2    5    5    0    0 -0.10747251370E+02  0.55483474825E+02 -0.16052126388E+02  0.11077943738E+03  0.93917482898E+02 0.  0.
          5    1    3    3  502    0 -0.71225018814E+02  0.17387988751E+02 -0.52902874294E+02  0.90532588423E+02  0.47000000000E+01 0. -1.
        -13    1    4    4    0    0  0.32807250758E+02 -0.76614737211E+01 -0.61504398646E+02  0.70127062784E+02  0.00000000000E+00 0.  1.
         14    1    4    4    0    0 -0.28479542201E+02 -0.78746418882E+02 -0.10790400549E+03  0.13658461557E+03  0.00000000000E+00 0. -1.
         -5    1    5    5    0  501  0.77644561627E+02  0.13536429027E+02 -0.76150781015E+02  0.10969477795E+03  0.47000000000E+01 0.  1.
         13    1    6    6    0    0 -0.15311514322E+02  0.12979500316E+02  0.37333551505E+02  0.42387544954E+02  0.00000000000E+00 0. -1.
        -14    1    6    6    0    0  0.45642629517E+01  0.42503974509E+02 -0.53385677893E+02  0.68391892425E+02  0.00000000000E+00 0.  1.
</event>
<event>
12    1  0.1348628E-002  0.2656486E+03  0.7818608E-02  0.1103796E+00
         -2   -1    0    0    0  501 -0.00000000000E+00  0.00000000000E+00  0.26979808627E+02  0.26979808627E+02  0.00000000000E+00 0. -1.
          2   -1    0    0  502    0  0.00000000000E+00 -0.00000000000E+00 -0.26665107003E+04  0.26665107003E+04  0.00000000000E+00 0.  1.
          6    2    1    2  502    0  0.10201034877E+03 -0.17468436721E+03 -0.11306887004E+04  0.11613320232E+04  0.17121446058E+03 0.  0.
         24    2    3    3    0    0  0.15277801317E+02 -0.10118827943E+03 -0.81643952292E+03  0.82711825142E+03  0.84134583483E+02 0.  0.
         -6    2    1    2    0  501 -0.10201034877E+03  0.17468436721E+03 -0.15088421912E+04  0.15321584856E+04  0.17315925557E+03 0.  0.
        -24    2    5    5    0    0  0.22915766353E+02  0.61407971727E+02 -0.63171101919E+03  0.63895119788E+03  0.70026781747E+02 0.  0.
          5    1    3    3  502    0  0.86732547457E+02 -0.73496087786E+02 -0.31424917752E+03  0.33421377183E+03  0.47000000000E+01 0. -1.
        -13    1    4    4    0    0  0.44727657350E+02 -0.26056520516E+02 -0.32595273296E+03  0.33003740654E+03  0.00000000000E+00 0.  1.
         14    1    4    4    0    0 -0.29449856033E+02 -0.75131758911E+02 -0.49048678996E+03  0.49708084488E+03  0.00000000000E+00 0. -1.
         -5    1    5    5    0  501 -0.12492611513E+03  0.11327639548E+03 -0.87713117200E+03  0.89320728776E+03  0.47000000000E+01 0.  1.
         11    1    6    6    0    0  0.41884368266E+01  0.64495091491E+02 -0.30922104823E+03  0.31590317583E+03  0.00000000000E+00 0. -1.
        -12    1    6    6    0    0  0.18727329527E+02 -0.30871197634E+01 -0.32248997096E+03  0.32304802205E+03  0.00000000000E+00 0.  1.
</event>
<event>
12    1  0.1348628E-002  0.2305549E+03  0.7818608E-02  0.1126250E+00
         -3   -1    0    0    0  501 -0.00000000000E+00  0.00000000000E+00  0.56311501646E+02  0.56311501646E+02  0.00000000000E+00 0. -1.
          3   -1    0    0  502    0  0.00000000000E+00 -0.00000000000E+00 -0.95022889338E+03  0.95022889338E+03  0.00000000000E+00 0.  1.
          6    2    1    2  502    0 -0.33471654308E+02  0.15569710512E+03 -0.49477015094E+03  0.54761474901E+03  0.17240206173E+03 0.  0.
         24    2    3    3    0    0  0.29578477740E+01  0.13960090705E+03 -0.23816569848E+03  0.28789541736E+03  0.81631545921E+02 0.  0.
         -6    2    1    2    0  501  0.33471654308E+02 -0.15569710512E+03 -0.39914724079E+03  0.45892564601E+03  0.16103505379E+03 0.  0.
        -24    2    5    5    0    0  0.72763363756E+02 -0.98026673949E+02 -0.16689925034E+03  0.21637475212E+03  0.63709792631E+02 0.  0.
          5    1    3    3  502    0 -0.36429502082E+02  0.16096198072E+02 -0.25660445246E+03  0.25971933166E+03  0.47000000000E+01 0. -1.
        -13    1    4    4    0    0  0.22888067227E+02  0.25167274336E+02 -0.10898907347E+03  0.11417474964E+03  0.00000000000E+00 0.  1.
         14    1    4    4    0    0 -0.19930219453E+02  0.11443363271E+03 -0.12917662501E+03  0.17372066772E+03  0.00000000000E+00 0. -1.
         -5    1    5    5    0  501 -0.39291709448E+02 -0.57670431172E+02 -0.23224799045E+03  0.24255089390E+03  0.47000000000E+01 0.  1.
         11    1    6    6    0    0  0.46621286025E+02 -0.97504602580E+02 -0.11241795421E+03  0.15594386254E+03  0.00000000000E+00 0. -1.
        -12    1    6    6    0    0  0.26142077731E+02 -0.52207136929E+00 -0.54481296131E+02  0.60430889574E+02  0.00000000000E+00 0.  1.
</event>
<event>
12    1  0.1348628E-002  0.1872942E+03  0.7818608E-02  0.1160925E+00
          3   -1    0    0  502    0  0.00000000000E+00  0.00000000000E+00  0.36964486794E+03  0.36964486794E+03  0.00000000000E+00 0.  1.
         -3   -1    0    0    0  501 -0.00000000000E+00 -0.00000000000E+00 -0.12483474742E+03  0.12483474742E+03  0.00000000000E+00 0. -1.
          6    2    1    2  502    0  0.43523404336E+02 -0.59764745710E+02  0.24339841744E+03  0.30702302398E+03  0.17191345523E+03 0.  0.
         24    2    3    3    0    0  0.94380796579E+02 -0.20013660929E+02  0.12090467139E+03  0.16848266557E+03  0.66784636311E+02 0.  0.
         -6    2    1    2    0  501 -0.43523404336E+02  0.59764745710E+02  0.14117030711E+01  0.18745659138E+03  0.17225524431E+03 0.  0.
        -24    2    5    5    0    0 -0.45634243745E+02  0.10557996321E+03 -0.43677722566E+01  0.14099174302E+03  0.81424697312E+02 0.  0.
          5    1    3    3  502    0 -0.50857392243E+02 -0.39751084781E+02  0.12249374606E+03  0.13854035842E+03  0.47000000000E+01 0. -1.
        -11    1    4    4    0    0 -0.29514903607E+01 -0.78232889384E+01  0.41344191142E+02  0.42181243301E+02  0.00000000000E+00 0.  1.
         12    1    4    4    0    0  0.97332286939E+02 -0.12190371990E+02  0.79560480245E+02  0.12630142227E+03  0.00000000000E+00 0. -1.
         -5    1    5    5    0  501  0.21108394090E+01 -0.45815217501E+02  0.57794753277E+01  0.46464848356E+02  0.47000000000E+01 0.  1.
         11    1    6    6    0    0  0.21216249777E+02  0.86264807060E+01 -0.38483484367E+01  0.23224022254E+02  0.00000000000E+00 0. -1.
        -12    1    6    6    0    0 -0.66850493522E+02  0.96953482505E+02 -0.51942381985E+00  0.11776772077E+03  0.00000000000E+00 0.  1.
</event>
<event>
12    1  0.1348628E-002  0.2284447E+03  0.7818608E-02  0.1127739E+00
         -2   -1    0    0    0  501 -0.00000000000E+00  0.00000000000E+00  0.21745636702E+02  0.21745636702E+02  0.00000000000E+00 0. -1.
          2   -1    0    0  502    0  0.00000000000E+00 -0.00000000000E+00 -0.27266010432E+04  0.27266010432E+04  0.00000000000E+00 0.  1.
          6    2    1    2  502    0 -0.36724268217E+02 -0.14551711743E+03 -0.87599207372E+03  0.90525301721E+03  0.17203781156E+03 0.  0.
         24    2    3    3    0    0 -0.88069046558E+02 -0.77755396392E+02 -0.51755915401E+03  0.53684538288E+03  0.80829626938E+02 0.  0.
         -6    2    1    2    0  501  0.36724268217E+02  0.14551711743E+03 -0.18288633328E+04  0.18430936627E+04  0.17242173914E+03 0.  0.
        -24    2    5    5    0    0  0.11960049930E+02  0.95228103350E-01 -0.70762232082E+03  0.71218062920E+03  0.79554056054E+02 0.  0.
          5    1    3    3  502    0  0.51344778341E+02 -0.67761721038E+02 -0.35843291971E+03  0.36840763433E+03  0.47000000000E+01 0. -1.
        -11    1    4    4    0    0 -0.32304131161E+02  0.12594029680E+02 -0.94280767789E+02  0.10045411713E+03  0.00000000000E+00 0.  1.
         12    1    4    4    0    0 -0.55764915397E+02 -0.90349426072E+02 -0.42327838622E+03  0.43639126575E+03  0.00000000000E+00 0. -1.
         -5    1    5    5    0  501  0.24764218287E+02  0.14542188933E+03 -0.11212410120E+04  0.11309130335E+04  0.47000000000E+01 0.  1.
         13    1    6    6    0    0  0.12918010170E+01  0.84379152211E+00  0.19730197178E+01  0.25047037364E+01  0.00000000000E+00 0. -1.
        -14    1    6    6    0    0  0.10668248913E+02 -0.74856341876E+00 -0.70959534053E+03  0.70967592547E+03  0.00000000000E+00 0.  1.
</event>
<event>
12    1  0.1348628E-002  0.1970036E+03  0.7818608E-02  0.1152292E+00
          1   -1    0    0  502    0  0.00000000000E+00  0.00000000000E+00  0.12272140353E+03  0.12272140353E+03  0.00000000000E+00 0. -1.
         -1   -1    0    0    0  501 -0.00000000000E+00 -0.00000000000E+00 -0.33023323150E+03  0.33023323150E+03  0.00000000000E+00 0.  1.
          6    2    1    2  502    0 -0.74624357500E+02  0.48690953071E+02 -0.14886221084E+03  0.24474026912E+03  0.17262166107E+03 0.  0.
         24    2    3    3    0    0 -0.78108714095E+02 -0.19382983749E+02 -0.13135386462E+03  0.17420776738E+03  0.81350090273E+02 0.  0.
         -6    2    1    2    0  501  0.74624357500E+02 -0.48690953071E+02 -0.58649617130E+02  0.20821436591E+03  0.17881230646E+03 0.  0.
        -24    2    5    5    0    0  0.53756459608E+02 -0.92981652520E+02 -0.35488601419E+01  0.13435423702E+03  0.80641936614E+02 0.  0.
          5    1    3    3  502    0  0.34843565956E+01  0.68073936820E+02 -0.17508346221E+02  0.70532501745E+02  0.47000000000E+01 0. -1.
        -11    1    4    4    0    0 -0.35849828362E+02  0.31500445639E+02 -0.63688486662E+02  0.79584619132E+02  0.00000000000E+00 0.  1.
         12    1    4    4    0    0 -0.42258885733E+02 -0.50883429388E+02 -0.67665377957E+02  0.94623148245E+02  0.00000000000E+00 0. -1.
         -5    1    5    5    0  501  0.20867897892E+02  0.44290699448E+02 -0.55100756988E+02  0.73860128897E+02  0.47000000000E+01 0.  1.
         13    1    6    6    0    0 -0.80174500629E+01  0.66451073310E+01  0.12241389970E+02  0.16071359163E+02  0.00000000000E+00 0. -1.
        -14    1    6    6    0    0  0.61773909671E+02 -0.99626759851E+02 -0.15790250112E+02  0.11828287785E+03  0.00000000000E+00 0.  1.
</event>
<event>
12    1  0.1348628E-002  0.1735478E+03  0.7818608E-02  0.1174198E+00
          2   -1    0    0  502    0  0.00000000000E+00  0.00000000000E+00  0.14034905421E+04  0.14034905421E+04  0.00000000000E+00 0.  1.
         -2   -1    0    0    0  501 -0.00000000000E+00 -0.00000000000E+00 -0.46024695633E+02  0.46024695633E+02  0.00000000000E+00 0. -1.
          6    2    1    2  502    0 -0.31871614806E+02  0.31277127470E+01  0.14734017973E+03  0.22685795365E+03  0.16949873201E+03 0.  0.
         24    2    3    3    0    0  0.15991372013E+02  0.53182927570E+02  0.63648815248E+02  0.11812560093E+03  0.82573229006E+02 0.  0.
         -6    2    1    2    0  501  0.31871614806E+02 -0.31277127470E+01  0.12101256668E+04  0.12226572841E+04  0.17164242664E+03 0.  0.
        -24    2    5    5    0    0  0.14706303617E+02  0.29510244398E+02  0.11405277846E+04  0.11437532959E+04  0.79251779455E+02 0.  0.
          5    1    3    3  502    0 -0.47862986820E+02 -0.50055214823E+02  0.83691364484E+02  0.10873235272E+03  0.47000000000E+01 0. -1.
        -13    1    4    4    0    0  0.38728472147E+01 -0.52166719155E+01  0.57835462033E+02  0.58199254978E+02  0.00000000000E+00 0.  1.
         14    1    4    4    0    0  0.12118524799E+02  0.58399599485E+02  0.58133532151E+01  0.59926345950E+02  0.00000000000E+00 0. -1.
         -5    1    5    5    0  501  0.17165311189E+02 -0.32637957145E+02  0.69597882178E+02  0.78903988230E+02  0.47000000000E+01 0.  1.
         11    1    6    6    0    0 -0.25430865187E+02  0.37039903473E+02  0.62046324794E+03  0.62208787594E+03  0.00000000000E+00 0. -1.
        -12    1    6    6    0    0  0.40137168804E+02 -0.75296590747E+01  0.52006453663E+03  0.52166541993E+03  0.00000000000E+00 0.  1.
</event>
<event>
12    1  0.1348628E-002  0.1827636E+03  0.7818608E-02  0.1165155E+00
          2   -1    0    0  502    0  0.00000000000E+00  0.00000000000E+00  0.75125206635E+03  0.75125206635E+03  0.00000000000E+00 0. -1.
         -2   -1    0    0    0  501 -0.00000000000E+00 -0.00000000000E+00 -0.57241430805E+02  0.57241430805E+02  0.00000000000E+00 0.  1.
          6    2    1    2  502    0  0.27348416580E+02 -0.56317219786E+02  0.53782968433E+03  0.56799587050E+03  0.17157789609E+03 0.  0.
         24    2    3    3    0    0 -0.37254513339E+02 -0.73527909611E+02  0.32464510902E+03  0.34452439682E+03  0.80674413165E+02 0.  0.
         -6    2    1    2    0  501 -0.27348416580E+02  0.56317219786E+02  0.15618095122E+03  0.24049762666E+03  0.17183437889E+03 0.  0.
        -24    2    5    5    0    0  0.29964796570E+02  0.46368003805E+02  0.30739712480E+02  0.10214522994E+03  0.80254827059E+02 0.  0.
          5    1    3    3  502    0  0.64602929919E+02  0.17210689826E+02  0.21318457531E+03  0.22347147368E+03  0.47000000000E+01 0. -1.
        -13    1    4    4    0    0  0.29386947275E+01  0.15988583841E+02  0.63633996059E+02  0.65677668917E+02  0.00000000000E+00 0.  1.
         14    1    4    4    0    0 -0.40193208067E+02 -0.89516493452E+02  0.26101111296E+03  0.27884672790E+03  0.00000000000E+00 0. -1.
         -5    1    5    5    0  501 -0.57313213149E+02  0.99492159806E+01  0.12544123874E+03  0.13835239672E+03  0.47000000000E+01 0.  1.
         11    1    6    6    0    0  0.41858932481E+02  0.62874452312E+02  0.31372647573E+02  0.81790036054E+02  0.00000000000E+00 0. -1.
        -12    1    6    6    0    0 -0.11894135911E+02 -0.16506448507E+02 -0.63293509271E+00  0.20355193888E+02  0.00000000000E+00 0.  1.
</event>
<event>
12    1  0.1348628E-002  0.3114864E+03  0.7818608E-02  0.1079636E+00
         -2   -1    0    0    0  501 -0.00000000000E+00  0.00000000000E+00  0.78274771446E+02  0.78274771446E+02  0.00000000000E+00 0. -1.
          2   -1    0    0  502    0  0.00000000000E+00 -0.00000000000E+00 -0.14318834421E+04  0.14318834421E+04  0.00000000000E+00 0.  1.
          6    2    1    2  502    0 -0.16162039400E+01  0.25961488995E+03 -0.95312839480E+03  0.10026644355E+04  0.17169662203E+03 0.  0.
         24    2    3    3    0    0  0.16163468481E+02  0.15232379766E+03 -0.32261632955E+03  0.36282457297E+03  0.64004512435E+02 0.  0.
         -6    2    1    2    0  501  0.16162039400E+01 -0.25961488995E+03 -0.40048027583E+03  0.50749377803E+03  0.17251950677E+03 0.  0.
        -24    2    5    5    0    0  0.13464386534E+02 -0.90130788094E+02 -0.70690466481E+02  0.13648347014E+03  0.72977715117E+02 0.  0.
          5    1    3    3  502    0 -0.17779672421E+02  0.10729109229E+03 -0.63051206525E+03  0.63983986251E+03  0.47000000000E+01 0. -1.
        -11    1    4    4    0    0  0.22394688887E+02  0.14152617916E+03 -0.31921985567E+03  0.34990355491E+03  0.00000000000E+00 0.  1.
         12    1    4    4    0    0 -0.62312204059E+01  0.10797618500E+02 -0.33964738717E+01  0.12921018063E+02  0.00000000000E+00 0. -1.
         -5    1    5    5    0  501 -0.11848182594E+02 -0.16948410186E+03 -0.32978980935E+03  0.37101030789E+03  0.47000000000E+01 0.  1.
         11    1    6    6    0    0 -0.81071008993E+01 -0.77960637963E+02 -0.21288664060E+02  0.81220646231E+02  0.00000000000E+00 0. -1.
        -12    1    6    6    0    0  0.21571487434E+02 -0.12170150130E+02 -0.49401802420E+02  0.55262823911E+02  0.00000000000E+00 0.  1.
</event>
<event>
12    1  0.1348628E-002  0.1731223E+03  0.7818608E-02  0.1174630E+00
          2   -1    0    0  502    0  0.00000000000E+00  0.00000000000E+00  0.21740368933E+03  0.21740368933E+03  0.00000000000E+00 0.  1.
         -2   -1    0    0    0  501 -0.00000000000E+00 -0.00000000000E+00 -0.17644470800E+03  0.17644470800E+03  0.00000000000E+00 0. -1.
          6    2    1    2  502    0  0.16812504320E+02 -0.37260627968E+02  0.11212562038E+03  0.20315326608E+03  0.16440218999E+03 0.  0.
         24    2    3    3    0    0 -0.49864462719E+02 -0.62791246397E+01  0.79517521273E+02  0.12258621569E+03  0.78603129951E+02 0.  0.
         -6    2    1    2    0  501 -0.16812504320E+02  0.37260627968E+02 -0.71166639045E+02  0.19069513125E+03  0.17213055473E+03 0.  0.
        -24    2    5    5    0    0 -0.29179720271E+02  0.26990401572E+02 -0.11356638466E+03  0.14510725996E+03  0.81110143121E+02 0.  0.
          5    1    3    3  502    0  0.66676967038E+02 -0.30981503328E+02  0.32608099107E+02  0.80567050394E+02  0.47000000000E+01 0. -1.
        -11    1    4    4    0    0  0.83498194036E+01 -0.16233567513E+02  0.56200060057E+02  0.59090565649E+02  0.00000000000E+00 0.  1.
         12    1    4    4    0    0 -0.58214282122E+02  0.99544428737E+01  0.23317461216E+02  0.63495650036E+02  0.00000000000E+00 0. -1.
         -5    1    5    5    0  501  0.12367215952E+02  0.10270226396E+02  0.42399745615E+02  0.45587871291E+02  0.47000000000E+01 0.  1.
         13    1    6    6    0    0 -0.37229569433E+02  0.50262660472E+02 -0.62548620991E+02  0.88457367504E+02  0.00000000000E+00 0. -1.
        -14    1    6    6    0    0  0.80498491618E+01 -0.23272258900E+02 -0.51017763669E+02  0.56649892459E+02  0.00000000000E+00 0.  1.
</event>
<event>
12    1  0.1348628E-002  0.2141599E+03  0.7818608E-02  0.1138314E+00
          2   -1    0    0  502    0  0.00000000000E+00  0.00000000000E+00  0.25120574495E+04  0.25120574495E+04  0.00000000000E+00 0. -1.
         -2   -1    0    0    0  501 -0.00000000000E+00 -0.00000000000E+00 -0.22128151348E+02  0.22128151348E+02  0.00000000000E+00 0.  1.
          6    2    1    2  502    0  0.37012092010E+02  0.12173567061E+03  0.71577763576E+03  0.74717336873E+03  0.17245564829E+03 0.  0.
         24    2    3    3    0    0 -0.25394350256E+02  0.17544936443E+02  0.21290056281E+03  0.22981690204E+03  0.80848382786E+02 0.  0.
         -6    2    1    2    0  501 -0.37012092010E+02 -0.12173567061E+03  0.17741516624E+04  0.17870122322E+04  0.17207303138E+03 0.  0.
        -24    2    5    5    0    0 -0.81592370076E+02 -0.53521775696E+02  0.85316659203E+03  0.86241711723E+03  0.79675309892E+02 0.  0.
          5    1    3    3  502    0  0.62406442267E+02  0.10419073417E+03  0.50287707295E+03  0.51735646668E+03  0.47000000000E+01 0. -1.
        -13    1    4    4    0    0 -0.78958639506E+00  0.18176411266E+02  0.29531303791E+01  0.18431667104E+02  0.00000000000E+00 0.  1.
         14    1    4    4    0    0 -0.24604763861E+02 -0.63147482300E+00  0.20994743243E+03  0.21138523494E+03  0.00000000000E+00 0. -1.
         -5    1    5    5    0  501  0.44580278065E+02 -0.68213894914E+02  0.92098507039E+03  0.92459511492E+03  0.47000000000E+01 0.  1.
         11    1    6    6    0    0 -0.24917983193E+02 -0.16483991163E+02  0.58750281562E+03  0.58826200474E+03  0.00000000000E+00 0. -1.
        -12    1    6    6    0    0 -0.56674386882E+02 -0.37037784532E+02  0.26566377640E+03  0.27415511249E+03  0.00000000000E+00 0.  1.
</event>
<event>
12    1  0.1348628E-002  0.1815266E+03  0.7818608E-02  0.1166334E+00
          1   -1    0    0  502    0  0.00000000000E+00  0.00000000000E+00  0.55864323165E+03  0.55864323165E+03  0.00000000000E+00 0.  1.
         -1   -1    0    0    0  501 -0.00000000000E+00 -0.00000000000E+00 -0.59007594617E+02  0.59007594617E+02  0.00000000000E+00 0. -1.
          6    2    1    2  502    0 -0.19607052288E+02 -0.62060509103E+02  0.25021037734E+03  0.31080930905E+03  0.17251449323E+03 0.  0.
         24    2    3    3    0    0  0.17016497212E+02 -0.40091379601E+01  0.22201642342E+03  0.23645720681E+03  0.79467502920E+02 0.  0.
         -6    2    1    2    0  501  0.19607052288E+02  0.62060509103E+02  0.24942525970E+03  0.30684151723E+03  0.16644162108E+03 0.  0.
        -24    2    5    5    0    0 -0.47759785645E+02  0.10317480626E+02  0.11843110502E+03  0.15064551725E+03  0.79250852986E+02 0.  0.
          5    1    3    3  502    0 -0.36623549500E+02 -0.58051371143E+02  0.28193953921E+02  0.74352102238E+02  0.47000000000E+01 0. -1.
        -13    1    4    4    0    0 -0.17559074184E+02  0.14615138701E+02  0.19108122387E+02  0.29783278977E+02  0.00000000000E+00 0.  1.
         14    1    4    4    0    0  0.34575571396E+02 -0.18624276661E+02  0.20290830103E+03  0.20667392783E+03  0.00000000000E+00 0. -1.
         -5    1    5    5    0  501  0.67366837933E+02  0.51743028477E+02  0.13099415468E+03  0.15619599997E+03  0.47000000000E+01 0.  1.
         11    1    6    6    0    0 -0.39234690896E+02 -0.13726736431E+02  0.15119837005E+02  0.44231139866E+02  0.00000000000E+00 0. -1.
        -12    1    6    6    0    0 -0.85250947484E+01  0.24044217057E+02  0.10331126802E+03  0.10641437738E+03  0.00000000000E+00 0.  1.
</event>
<event>
12    1  0.1348628E-002  0.2274841E+03  0.7818608E-02  0.1128423E+00
          2   -1    0    0  502    0  0.00000000000E+00  0.00000000000E+00  0.18081659540E+04  0.18081659540E+04  0.00000000000E+00 0.  1.
         -2   -1    0    0    0  501 -0.00000000000E+00 -0.00000000000E+00 -0.36905447135E+02  0.36905447135E+02  0.00000000000E+00 0. -1.
          6    2    1    2  502    0 -0.58413599385E+02  0.13700422556E+03  0.13228346141E+04  0.13422564291E+04  0.17198429772E+03 0.  0.
         24    2    3    3    0    0 -0.79036430206E+02  0.63247983341E+02  0.10781322270E+04  0.10858063703E+04  0.79745282272E+02 0.  0.
         -6    2    1    2    0  501  0.58413599385E+02 -0.13700422556E+03  0.44842589277E+03  0.50281497209E+03  0.17191511985E+03 0.  0.
        -24    2    5    5    0    0  0.95630116283E+02 -0.83992863115E+02  0.23080320157E+03  0.27570927113E+03  0.80904660811E+02 0.  0.
          5    1    3    3  502    0  0.20622830820E+02  0.73756242220E+02  0.24470238710E+03  0.25645005882E+03  0.47000000000E+01 0. -1.
        -11    1    4    4    0    0 -0.13295467670E+02  0.52626723959E+01  0.56923057968E+03  0.56941014921E+03  0.00000000000E+00 0.  1.
         12    1    4    4    0    0 -0.65740962536E+02  0.57985310946E+02  0.50890164734E+03  0.51639622104E+03  0.00000000000E+00 0. -1.
         -5    1    5    5    0  501 -0.37216516898E+02 -0.53011362446E+02  0.21762269121E+03  0.22710570095E+03  0.47000000000E+01 0.  1.
         13    1    6    6    0    0  0.57583009536E+02 -0.18300593129E+02  0.46055500778E+02  0.75972520348E+02  0.00000000000E+00 0. -1.
        -14    1    6    6    0    0  0.38047106748E+02 -0.65692269987E+02  0.18474770079E+03  0.19973675079E+03  0.00000000000E+00 0.  1.
</event>
<event>
12    1  0.1348628E-002  0.1904132E+03  0.7818608E-02  0.1158089E+00
          2   -1    0    0  502    0  0.00000000000E+00  0.00000000000E+00  0.10037881280E+04  0.10037881280E+04  0.00000000000E+00 0.  1.
         -2   -1    0    0    0  501 -0.00000000000E+00 -0.00000000000E+00 -0.37036152924E+02  0.37036152924E+02  0.00000000000E+00 0. -1.
          6    2    1    2  502    0 -0.33116131589E+02  0.74909093818E+02  0.40127498321E+03  0.44411453261E+03  0.17177908900E+03 0.  0.
         24    2    3    3    0    0  0.20182311589E+02 -0.10062218294E+02  0.11783020770E+03  0.14340889799E+03  0.78572133980E+02 0.  0.
         -6    2    1    2    0  501  0.33116131589E+02 -0.74909093818E+02  0.56547699189E+03  0.59670974833E+03  0.17201815281E+03 0.  0.
        -24    2    5    5    0    0  0.11087922507E+02  0.26333508967E+02  0.24729483482E+03  0.26204979900E+03  0.81847211969E+02 0.  0.
          5    1    3    3  502    0 -0.53298443177E+02  0.84971312111E+02  0.28344477552E+03  0.30070563462E+03  0.47000000000E+01 0. -1.
        -13    1    4    4    0    0  0.30215879230E+02 -0.16484563196E+01  0.12490989079E+03  0.12852314027E+03  0.00000000000E+00 0.  1.
         14    1    4    4    0    0 -0.10033567641E+02 -0.84137619743E+01 -0.70796830973E+01  0.14885757721E+02  0.00000000000E+00 0. -1.
         -5    1    5    5    0  501  0.22028209082E+02 -0.10124260278E+03  0.31818215706E+03  0.33465994933E+03  0.47000000000E+01 0.  1.
         13    1    6    6    0    0 -0.21061302649E+02 -0.39346635891E+01  0.16429669602E+02  0.26999890556E+02  0.00000000000E+00 0. -1.
        -14    1    6    6    0    0  0.32149225156E+02  0.30268172556E+02  0.23086516522E+03  0.23504990844E+03  0.00000000000E+00 0.  1.
</event>
<event>
12    1  0.1348628E-002  0.2773191E+03  0.7818608E-02  0.1097162E+00
          2   -1    0    0  502    0  0.00000000000E+00  0.00000000000E+00  0.85075886666E+03  0.85075886666E+03  0.00000000000E+00 0.  1.
         -2   -1    0    0    0  501 -0.00000000000E+00 -0.00000000000E+00 -0.10066817293E+03  0.10066817293E+03  0.00000000000E+00 0. -1.
          6    2    1    2  502    0  0.96208011089E+02  0.19554602572E+03  0.52699116371E+03  0.59550103128E+03  0.17148633197E+03 0.  0.
         24    2    3    3    0    0  0.52768104841E+02  0.27099183811E+02  0.24271859298E+03  0.26219284285E+03  0.79460259326E+02 0.  0.
         -6    2    1    2    0  501 -0.96208011089E+02 -0.19554602572E+03  0.22309953003E+03  0.35592600831E+03  0.17151003913E+03 0.  0.
        -24    2    5    5    0    0 -0.14232825641E+02 -0.50158140904E+02  0.14034517039E+03  0.16957166272E+03  0.79620157766E+02 0.  0.
          5    1    3    3  502    0  0.43439906248E+02  0.16844684191E+03  0.28427257072E+03  0.33330818843E+03  0.47000000000E+01 0. -1.
        -13    1    4    4    0    0  0.47592347324E+02  0.42407161186E+02  0.23639765497E+03  0.24484127536E+03  0.00000000000E+00 0.  1.
         14    1    4    4    0    0  0.51757575169E+01 -0.15307977375E+02  0.63209380129E+01  0.17351567495E+02  0.00000000000E+00 0. -1.
         -5    1    5    5    0  501 -0.81975185448E+02 -0.14538788482E+03  0.82754359637E+02  0.18635434559E+03  0.47000000000E+01 0.  1.
         13    1    6    6    0    0 -0.15431480753E+02 -0.94288667499E+01 -0.48861220439E+01  0.18732546945E+02  0.00000000000E+00 0. -1.
        -14    1    6    6    0    0  0.11986551117E+01 -0.40729274154E+02  0.14523129243E+03  0.15083911578E+03  0.00000000000E+00 0.  1.
</event>
<event>
12    1  0.1348628E-002  0.2630367E+03  0.7818608E-02  0.1105332E+00
          2   -1    0    0  502    0  0.00000000000E+00  0.00000000000E+00  0.35609623455E+03  0.35609623455E+03  0.00000000000E+00 0. -1.
         -2   -1    0    0    0  501 -0.00000000000E+00 -0.00000000000E+00 -0.24973102711E+03  0.24973102711E+03  0.00000000000E+00 0.  1.
          6    2    1    2  502    0 -0.70364725925E+02  0.18652983984E+03  0.19586896906E+03  0.32780377900E+03  0.17130700127E+03 0.  0.
         24    2    3    3    0    0 -0.32690049988E+02  0.33826376719E+02  0.11998299802E+03  0.15310833127E+03  0.82664249604E+02 0.  0.
         -6    2    1    2    0  501  0.70364725925E+02 -0.18652983984E+03 -0.89503761614E+02  0.27802348265E+03  0.17187657711E+03 0.  0.
        -24    2    5    5    0    0  0.81122997784E+02 -0.17909791048E+03 -0.25937793033E+02  0.21295662205E+03  0.77593501391E+02 0.  0.
          5    1    3    3  502    0 -0.37674675937E+02  0.15270346312E+03  0.75885971039E+02  0.17469544772E+03  0.47000000000E+01 0. -1.
        -13    1    4    4    0    0 -0.14893486878E+02  0.44430632558E+02  0.12350372829E+03  0.13209492027E+03  0.00000000000E+00 0.  1.
         14    1    4    4    0    0 -0.17796563110E+02 -0.10604255839E+02 -0.35207302690E+01  0.21013411005E+02  0.00000000000E+00 0. -1.
         -5    1    5    5    0  501 -0.10758271859E+02 -0.74319293546E+01 -0.63565968582E+02  0.65066860605E+02  0.47000000000E+01 0.  1.
         13    1    6    6    0    0 -0.99180406937E+01 -0.12452165550E+02  0.11202486760E+02  0.19465859028E+02  0.00000000000E+00 0. -1.
        -14    1    6    6    0    0  0.91041038477E+02 -0.16664574493E+03 -0.37140279792E+02  0.19349076302E+03  0.00000000000E+00 0.  1.
</event>
<event>
12    1  0.1348628E-002  0.2946822E+03  0.7818608E-02  0.1087930E+00
         -2   -1    0    0    0  501 -0.00000000000E+00  0.00000000000E+00  0.29429849351E+02  0.29429849351E+02  0.00000000000E+00 0.  1.
          2   -1    0    0  502    0  0.00000000000E+00 -0.00000000000E+00 -0.30644491219E+04  0.30644491219E+04  0.00000000000E+00 0. -1.
          6    2    1    2  502    0 -0.41112487125E+01 -0.23869177329E+03 -0.12209995037E+04  0.12561306608E+04  0.17330257934E+03 0.  0.
         24    2    3    3    0    0 -0.48384597425E+02 -0.63351760675E+02 -0.34038410078E+03  0.35712575133E+03  0.72958559110E+02 0.  0.
         -6    2    1    2    0  501  0.41112487125E+01  0.23869177329E+03 -0.18140197688E+04  0.18377483104E+04  0.17222214065E+03 0.  0.
        -24    2    5    5    0    0 -0.31701355865E+02  0.81983132705E+02 -0.49317933004E+03  0.50715382094E+03  0.79075511403E+02 0.  0.
          5    1    3    3  502    0  0.44273348712E+02 -0.17534001261E+03 -0.88061540289E+03  0.89900490946E+03  0.47000000000E+01 0. -1.
        -13    1    4    4    0    0 -0.93746262210E+01 -0.26053503320E+01 -0.59077291031E+00  0.97478448781E+01  0.00000000000E+00 0.  1.
         14    1    4    4    0    0 -0.39009971204E+02 -0.60746410343E+02 -0.33979332787E+03  0.34737790645E+03  0.00000000000E+00 0. -1.
         -5    1    5    5    0  501  0.35812604577E+02  0.15670864058E+03 -0.13208404388E+04  0.13305944895E+04  0.47000000000E+01 0.  1.
         11    1    6    6    0    0  0.61858086585E+01  0.57572680148E+02 -0.39377129091E+03  0.39800591362E+03  0.00000000000E+00 0. -1.
        -12    1    6    6    0    0 -0.37887164523E+02  0.24410452557E+02 -0.99408039131E+02  0.10914790733E+03  0.00000000000E+00 0.  1.
</event>
<event>
12    1  0.1348628E-002  0.1828577E+03  0.7818608E-02  0.1165066E+00
         -2   -1    0    0    0  501 -0.00000000000E+00  0.00000000000E+00  0.24440031154E+02  0.24440031154E+02  0.00000000000E+00 0.  1.
          2   -1    0    0  502    0  0.00000000000E+00 -0.00000000000E+00 -0.15288327452E+04  0.15288327452E+04  0.00000000000E+00 0. -1.
          6    2    1    2  502    0 -0.54601892316E+02  0.31619497269E+02 -0.10042681711E+04  0.10207929404E+04  0.17170471316E+03 0.  0.
         24    2    3    3    0    0  0.29841098299E+02  0.22382888361E+02 -0.34476979170E+03  0.35582968128E+03  0.79731223309E+02 0.  0.
         -6    2    1    2    0  501  0.54601892316E+02 -0.31619497269E+02 -0.50012454291E+03  0.53247983587E+03  0.17154899575E+03 0.  0.
        -24    2    5    5    0    0  0.84600907418E+02 -0.38051573561E+02 -0.48073294594E+03  0.49588152245E+03  0.78670726506E+02 0.  0.
          5    1    3    3  502    0 -0.84442990616E+02  0.92366089072E+01 -0.65949837940E+03  0.66496325917E+03  0.47000000000E+01 0. -1.
        -11    1    4    4    0    0  0.22342792097E+02 -0.28142649500E+02 -0.16958595499E+03  0.17335110386E+03  0.00000000000E+00 0.  1.
         12    1    4    4    0    0  0.74983062027E+01  0.50525537861E+02 -0.17518383671E+03  0.18247857742E+03  0.00000000000E+00 0. -1.
         -5    1    5    5    0  501 -0.29999015102E+02  0.64320762925E+01 -0.19391596969E+02  0.36598313425E+02  0.47000000000E+01 0.  1.
         13    1    6    6    0    0  0.34717987413E+02 -0.13995099986E+01 -0.50988664641E+02  0.61702035624E+02  0.00000000000E+00 0. -1.
        -14    1    6    6    0    0  0.49882920005E+02 -0.36652063563E+02 -0.42974428130E+03  0.43417948682E+03  0.00000000000E+00 0.  1.
</event>
<event>
12    1  0.1348628E-002  0.1840191E+03  0.7818608E-02  0.1163969E+00
          2   -1    0    0  502    0  0.00000000000E+00  0.00000000000E+00  0.23904254915E+04  0.23904254915E+04  0.00000000000E+00 0.  1.
         -2   -1    0    0    0  501 -0.00000000000E+00 -0.00000000000E+00 -0.15939977927E+02  0.15939977927E+02  0.00000000000E+00 0. -1.
          6    2    1    2  502    0  0.56924742024E+02  0.27133173929E+02  0.78400058120E+03  0.80523275878E+03  0.17252898052E+03 0.  0.
         24    2    3    3    0    0  0.21939590533E+02  0.73993647565E+02  0.64412117538E+03  0.65354820787E+03  0.79226043227E+02 0.  0.
         -6    2    1    2    0  501 -0.56924742024E+02 -0.27133173929E+02  0.15904849324E+04  0.16011327107E+04  0.17322529143E+03 0.  0.
        -24    2    5    5    0    0 -0.62877882805E+02 -0.73921775262E+02  0.86356264421E+03  0.87266670860E+03  0.79929261341E+02 0.  0.
          5    1    3    3  502    0  0.34985151491E+02 -0.46860473636E+02  0.13987940581E+03  0.15168455091E+03  0.47000000000E+01 0. -1.
        -11    1    4    4    0    0  0.50591711815E+02  0.48958314151E+02  0.47578794446E+03  0.48096840428E+03  0.00000000000E+00 0.  1.
         12    1    4    4    0    0 -0.28652121282E+02  0.25035333414E+02  0.16833323093E+03  0.17257980359E+03  0.00000000000E+00 0. -1.
         -5    1    5    5    0  501  0.59531407811E+01  0.46788601332E+02  0.72692228820E+03  0.72846600207E+03  0.47000000000E+01 0.  1.
         13    1    6    6    0    0 -0.45768434875E+02  0.37560211148E+01  0.28939746401E+03  0.29301834328E+03  0.00000000000E+00 0. -1.
        -14    1    6    6    0    0 -0.17109447930E+02 -0.77677796377E+02  0.57416518020E+03  0.57964836532E+03  0.00000000000E+00 0.  1.
</event>
<event>
12    1  0.1348628E-002  0.1872664E+03  0.7818608E-02  0.1160950E+00
          2   -1    0    0  502    0  0.00000000000E+00  0.00000000000E+00  0.10771261172E+04  0.10771261172E+04  0.00000000000E+00 0. -1.
         -2   -1    0    0    0  501 -0.00000000000E+00 -0.00000000000E+00 -0.32727556933E+02  0.32727556933E+02  0.00000000000E+00 0.  1.
          6    2    1    2  502    0 -0.13234757259E+02 -0.72751913551E+02  0.56376299597E+03  0.59423633013E+03  0.17268497530E+03 0.  0.
         24    2    3    3    0    0  0.22197226094E+02  0.28866549040E+01  0.42083101497E+03  0.42862153709E+03  0.78208882297E+02 0.  0.
         -6    2    1    2    0  501  0.13234757259E+02  0.72751913551E+02  0.48063556428E+03  0.51561734399E+03  0.17141382688E+03 0.  0.
        -24    2    5    5    0    0  0.28895026458E+02  0.69752385620E+02  0.48573896061E+03  0.49822838619E+03  0.81171849158E+02 0.  0.
          5    1    3    3  502    0 -0.35431983353E+02 -0.75638568455E+02  0.14293198100E+03  0.16561479304E+03  0.47000000000E+01 0. -1.
        -11    1    4    4    0    0 -0.62709556026E+01 -0.23554259892E+01 -0.96948769413E-01  0.66994264549E+01  0.00000000000E+00 0.  1.
         12    1    4    4    0    0  0.28468181697E+02  0.52420808932E+01  0.42092796374E+03  0.42192211063E+03  0.00000000000E+00 0. -1.
         -5    1    5    5    0  501 -0.15660269200E+02  0.29995279310E+01 -0.51033963298E+01  0.17388957799E+02  0.47000000000E+01 0.  1.
         13    1    6    6    0    0  0.42794913365E+02  0.53975575477E+02  0.19645005789E+03  0.20817634977E+03  0.00000000000E+00 0. -1.
        -14    1    6    6    0    0 -0.13899886907E+02  0.15776810143E+02  0.28928890272E+03  0.29005203642E+03  0.00000000000E+00 0.  1.
</event>
<event>
12    1  0.1348628E-002  0.1974995E+03  0.7818608E-02  0.1151866E+00
          1   -1    0    0  502    0  0.00000000000E+00  0.00000000000E+00  0.46166470803E+03  0.46166470803E+03  0.00000000000E+00 0. -1.
         -1   -1    0    0    0  501 -0.00000000000E+00 -0.00000000000E+00 -0.16107270048E+03  0.16107270048E+03  0.00000000000E+00 0.  1.
          6    2    1    2  502    0 -0.19470179130E+02  0.95974481056E+02 -0.64352238248E+02  0.20783916799E+03  0.17165581928E+03 0.  0.
         24    2    3    3    0    0  0.10397247868E+02 -0.15012175446E+02 -0.25616085026E+02  0.86460913412E+02  0.80534697871E+02 0.  0.
         -6    2    1    2    0  501  0.19470179130E+02 -0.95974481056E+02  0.36494424580E+03  0.41489824052E+03  0.17136527815E+03 0.  0.
        -24    2    5    5    0    0  0.21732578077E+02 -0.13236059873E+03  0.32248837756E+03  0.35874079439E+03  0.81881443873E+02 0.  0.
          5    1    3    3  502    0 -0.29867426998E+02  0.11098665650E+03 -0.38736153222E+02  0.12137825457E+03  0.47000000000E+01 0. -1.
        -11    1    4    4    0    0 -0.34862940317E+02 -0.10707336901E+02 -0.16782336958E+02  0.40146214079E+02  0.00000000000E+00 0.  1.
         12    1    4    4    0    0  0.45260188185E+02 -0.43048385449E+01 -0.88337480686E+01  0.46314699334E+02  0.00000000000E+00 0. -1.
         -5    1    5    5    0  501 -0.22623989469E+01  0.36386117670E+02  0.42455868240E+02  0.56157446133E+02  0.47000000000E+01 0.  1.
         13    1    6    6    0    0  0.27297344438E+02 -0.59572412297E+02  0.23908319416E+03  0.24790076856E+03  0.00000000000E+00 0. -1.
        -14    1    6    6    0    0 -0.55647663614E+01 -0.72788186429E+02  0.83405183398E+02  0.11084002583E+03  0.00000000000E+00 0.  1.
</event>
<event>
12    1  0.1348628E-002  0.2640569E+03  0.7818608E-02  0.1104730E+00
         -2   -1    0    0    0  501 -0.00000000000E+00  0.00000000000E+00  0.46154306869E+02  0.46154306869E+02  0.00000000000E+00 0. -1.
          2   -1    0    0  502    0  0.00000000000E+00 -0.00000000000E+00 -0.25639828771E+04  0.25639828771E+04  0.00000000000E+00 0.  1.
          6    2    1    2  502    0  0.96844734781E+02 -0.17552375914E+03 -0.42339160498E+03  0.49916191210E+03  0.17237943801E+03 0.  0.
         24    2    3    3    0    0 -0.16928526611E+02 -0.89011825560E+02 -0.18265154873E+03  0.21915024387E+03  0.80346506053E+02 0.  0.
         -6    2    1    2    0  501 -0.96844734781E+02  0.17552375914E+03 -0.20944369653E+04  0.21109752719E+04  0.17135607468E+03 0.  0.
        -24    2    5    5    0    0 -0.30738405159E+02  0.17049980621E+03 -0.13288713451E+04  0.13425300262E+04  0.80453625081E+02 0.  0.
          5    1    3    3  502    0  0.11377326139E+03 -0.86511933585E+02 -0.24074005625E+03  0.28001166823E+03  0.47000000000E+01 0. -1.
        -13    1    4    4    0    0 -0.13386819847E+02 -0.57259965292E+02 -0.17724783581E+03  0.18674770646E+03  0.00000000000E+00 0.  1.
         14    1    4    4    0    0 -0.35417067641E+01 -0.31751860268E+02 -0.54037129180E+01  0.32402537409E+02  0.00000000000E+00 0. -1.
         -5    1    5    5    0  501 -0.66106329623E+02  0.50239529340E+01 -0.76556562014E+03  0.76844524571E+03  0.47000000000E+01 0.  1.
         13    1    6    6    0    0 -0.30864376003E+02  0.17911941237E+03 -0.12878279410E+04  0.13005910884E+04  0.00000000000E+00 0. -1.
        -14    1    6    6    0    0  0.12597084432E+00 -0.86196061602E+01 -0.41043404156E+02  0.41938937799E+02  0.00000000000E+00 0.  1.
</event>
<event>
12    1  0.1348628E-002  0.2452588E+03  0.7818608E-02  0.1116338E+00
          2   -1    0    0  502    0  0.00000000000E+00  0.00000000000E+00  0.11295500263E+03  0.11295500263E+03  0.00000000000E+00 0. -1.
         -2   -1    0    0    0  501 -0.00000000000E+00 -0.00000000000E+00 -0.53717478999E+03  0.53717478999E+03  0.00000000000E+00 0.  1.
          6    2    1    2  502    0  0.10295386504E+03 -0.14090279016E+03 -0.24279540835E+03  0.34549738846E+03  0.17310615389E+03 0.  0.
         24    2    3    3    0    0  0.11206874909E+03 -0.98047597302E+02 -0.10225082906E+03  0.19820680005E+03  0.81596370525E+02 0.  0.
         -6    2    1    2    0  501 -0.10295386504E+03  0.14090279016E+03 -0.18142437900E+03  0.30463240416E+03  0.17156049011E+03 0.  0.
        -24    2    5    5    0    0 -0.45655840913E+02  0.42227399493E+02 -0.13770969472E+02  0.10177863412E+03  0.79382880311E+02 0.  0.
          5    1    3    3  502    0 -0.91148840456E+01 -0.42855192859E+02 -0.14054457929E+03  0.14729058841E+03  0.47000000000E+01 0. -1.
        -13    1    4    4    0    0  0.39037632482E+02  0.91402118373E+01 -0.24207333524E+02  0.46834551546E+02  0.00000000000E+00 0.  1.
         14    1    4    4    0    0  0.73031116607E+02 -0.10718780914E+03 -0.78043495537E+02  0.15137224850E+03  0.00000000000E+00 0. -1.
         -5    1    5    5    0  501 -0.57298024130E+02  0.98675390667E+02 -0.16765340953E+03  0.20285377004E+03  0.47000000000E+01 0.  1.
         13    1    6    6    0    0  0.21496394336E+02  0.12083015066E+02 -0.13619600570E+02  0.28170689417E+02  0.00000000000E+00 0. -1.
        -14    1    6    6    0    0 -0.67152235249E+02  0.30144384427E+02 -0.15136890253E+00  0.73607944707E+02  0.00000000000E+00 0.  1.
</event>
<event>
12    1  0.1348628E-002  0.2088948E+03  0.7818608E-02  0.1142444E+00
          1   -1    0    0  502    0  0.00000000000E+00  0.00000000000E+00  0.56836889614E+03  0.56836889614E+03  0.00000000000E+00 0.  1.
         -1   -1    0    0    0  501 -0.00000000000E+00 -0.00000000000E+00 -0.76776982676E+02  0.76776982676E+02  0.00000000000E+00 0. -1.
          6    2    1    2  502    0  0.61293297188E+02  0.10024624483E+03  0.24598821022E+03  0.32315929655E+03  0.17353833438E+03 0.  0.
         24    2    3    3    0    0  0.68803403653E+02  0.30638728856E+02  0.22448034688E+03  0.24976797442E+03  0.79498269473E+02 0.  0.
         -6    2    1    2    0  501 -0.61293297188E+02 -0.10024624483E+03  0.24560370324E+03  0.32198658226E+03  0.17189532346E+03 0.  0.
        -24    2    5    5    0    0 -0.99575678673E+02 -0.54993251671E+02  0.21218821620E+03  0.25378057889E+03  0.80256897616E+02 0.  0.
          5    1    3    3  502    0 -0.75101064652E+01  0.69607515973E+02  0.21507863341E+02  0.73391322134E+02  0.47000000000E+01 0. -1.
        -13    1    4    4    0    0 -0.80446840314E+01 -0.15646321787E+02  0.58589272649E+02  0.61173745971E+02  0.00000000000E+00 0.  1.
         14    1    4    4    0    0  0.76848087684E+02  0.46285050643E+02  0.16589107423E+03  0.18859422845E+03  0.00000000000E+00 0. -1.
         -5    1    5    5    0  501  0.38282381485E+02 -0.45252993158E+02  0.33415487043E+02  0.68206003374E+02  0.47000000000E+01 0.  1.
         13    1    6    6    0    0 -0.68215877559E+02 -0.85747881422E+00  0.66694804069E+02  0.95406174385E+02  0.00000000000E+00 0. -1.
        -14    1    6    6    0    0 -0.31359801114E+02 -0.54135772857E+02  0.14549341213E+03  0.15837440450E+03  0.00000000000E+00 0.  1.
</event>
<event>
12    1  0.1348628E-002  0.1742548E+03  0.7818608E-02  0.1173482E+00
         -1   -1    0    0    0  501 -0.00000000000E+00  0.00000000000E+00  0.21773885433E+03  0.21773885433E+03  0.00000000000E+00 0. -1.
          1   -1    0    0  502    0  0.00000000000E+00 -0.00000000000E+00 -0.14389328175E+03  0.14389328175E+03  0.00000000000E+00 0.  1.
          6    2    1    2  502    0  0.82231881562E+01 -0.50604149844E+01  0.52965924125E+01  0.17493982162E+03  0.17459283684E+03 0.  0.
         24    2    3    3    0    0 -0.21351641399E+02  0.33733839372E+02 -0.51645937579E+02  0.99811887829E+02  0.75506592920E+02 0.  0.
         -6    2    1    2    0  501 -0.82231881562E+01  0.50604149844E+01  0.68548980161E+02  0.18669231446E+03  0.17338347376E+03 0.  0.
        -24    2    5    5    0    0  0.18567722339E+02 -0.36033445881E+02  0.91640216068E+02  0.13227032018E+03  0.86338513212E+02 0.  0.
          5    1    3    3  502    0  0.29574829555E+02 -0.38794254356E+02  0.56942529991E+02  0.75127933794E+02  0.47000000000E+01 0. -1.
        -13    1    4    4    0    0  0.86103581848E+01  0.35438350953E+02  0.38999767053E+01  0.36677306398E+02  0.00000000000E+00 0.  1.
         14    1    4    4    0    0 -0.29961999584E+02 -0.17045115812E+01 -0.55545914284E+02  0.63134581431E+02  0.00000000000E+00 0. -1.
         -5    1    5    5    0  501 -0.26790910495E+02  0.41093860865E+02 -0.23091235907E+02  0.54421994282E+02  0.47000000000E+01 0.  1.
         13    1    6    6    0    0  0.49748872815E+02 -0.10291974781E+02  0.69754415830E+02  0.86293415850E+02  0.00000000000E+00 0. -1.
        -14    1    6    6    0    0 -0.31181150476E+02 -0.25741471099E+02  0.21885800238E+02  0.45976904326E+02  0.00000000000E+00 0.  1.
</event>
<event>
12    1  0.1348628E-002  0.2369219E+03  0.7818608E-02  0.1121861E+00
         -2   -1    0    0    0  501 -0.00000000000E+00  0.00000000000E+00  0.42774370988E+02  0.42774370988E+02  0.00000000000E+00 0. -1.
          2   -1    0    0  502    0  0.00000000000E+00 -0.00000000000E+00 -0.13642214039E+04  0.13642214039E+04  0.00000000000E+00 0.  1.
          6    2    1    2  502    0 -0.42506764868E+02 -0.15716065538E+03 -0.52370440471E+03  0.57484127360E+03  0.17224949829E+03 0.  0.
         24    2    3    3    0    0 -0.67883229166E+02 -0.94472507308E+02 -0.46019669101E+03  0.48194838609E+03  0.83427004043E+02 0.  0.
         -6    2    1    2    0  501  0.42506764868E+02  0.15716065538E+03 -0.79774262823E+03  0.83215450132E+03  0.17199278039E+03 0.  0.
        -24    2    5    5    0    0 -0.38202193350E+02  0.99474038190E+02 -0.52179153494E+03  0.53887515048E+03  0.82252842012E+02 0.  0.
          5    1    3    3  502    0  0.25376464298E+02 -0.62688148077E+02 -0.63507713701E+02  0.92892887505E+02  0.47000000000E+01 0. -1.
        -11    1    4    4    0    0 -0.21933354059E+02 -0.72163685983E+02 -0.37583272527E+03  0.38332611048E+03  0.00000000000E+00 0.  1.
         12    1    4    4    0    0 -0.45949875107E+02 -0.22308821325E+02 -0.84363965741E+02  0.98622275611E+02  0.00000000000E+00 0. -1.
         -5    1    5    5    0  501  0.80708958218E+02  0.57686617194E+02 -0.27595109329E+03  0.29327935084E+03  0.47000000000E+01 0.  1.
         11    1    6    6    0    0 -0.12506128284E+02 -0.10732293222E+02 -0.29962906807E+02  0.34195922955E+02  0.00000000000E+00 0. -1.
        -12    1    6    6    0    0 -0.25696065065E+02  0.11020633141E+03 -0.49182862814E+03  0.50467922753E+03  0.00000000000E+00 0.  1.
</event>
<event>
12    1  0.1348628E-002  0.2161266E+03  0.7818608E-02  0.1136804E+00
          1   -1    0    0  502    0  0.00000000000E+00  0.00000000000E+00  0.10033941212E+03  0.10033941212E+03  0.00000000000E+00 0.  1.
         -1   -1    0    0    0  501 -0.00000000000E+00 -0.00000000000E+00 -0.48689156577E+03  0.48689156577E+03  0.00000000000E+00 0. -1.
          6    2    1    2  502    0 -0.12768267294E+03  0.32617520905E+02 -0.25512795705E+03  0.33463135928E+03  0.17181706697E+03 0.  0.
         24    2    3    3    0    0 -0.97661024939E+02  0.81559684811E+02 -0.14366733380E+03  0.20916345385E+03  0.83182868712E+02 0.  0.
         -6    2    1    2    0  501  0.12768267294E+03 -0.32617520905E+02 -0.13142419659E+03  0.25259961861E+03  0.17078489462E+03 0.  0.
        -24    2    5    5    0    0  0.29862368855E+02 -0.21297704520E+02 -0.12821989481E+03  0.15396236558E+03  0.76933187228E+02 0.  0.
          5    1    3    3  502    0 -0.30021648006E+02 -0.48942163906E+02 -0.11146062325E+03  0.12546790543E+03  0.47000000000E+01 0. -1.
        -13    1    4    4    0    0 -0.10687987406E+03  0.47920569034E+02 -0.11148455561E+03  0.16170496145E+03  0.00000000000E+00 0.  1.
         14    1    4    4    0    0  0.92188491249E+01  0.33639115776E+02 -0.32182778188E+02  0.47458492405E+02  0.00000000000E+00 0. -1.
         -5    1    5    5    0  501  0.97820304090E+02 -0.11319816385E+02 -0.32043017824E+01  0.98637253029E+02  0.47000000000E+01 0.  1.
         11    1    6    6    0    0  0.50933551582E+02 -0.30349017916E+02 -0.10882321348E+03  0.12392651595E+03  0.00000000000E+00 0. -1.
        -12    1    6    6    0    0 -0.21071182727E+02  0.90513133968E+01 -0.19396681336E+02  0.30035849623E+02  0.00000000000E+00 0.  1.
</event>
<event>
12    1  0.1348628E-002  0.2190120E+03  0.7818608E-02  0.1134622E+00
          2   -1    0    0  502    0  0.00000000000E+00  0.00000000000E+00  0.25173662052E+03  0.25173662052E+03  0.00000000000E+00 0. -1.
         -2   -1    0    0    0  501 -0.00000000000E+00 -0.00000000000E+00 -0.25702911814E+03  0.25702911814E+03  0.00000000000E+00 0.  1.
          6    2    1    2  502    0 -0.12145419674E+03  0.35894177716E+02  0.12662632320E+03  0.24812065666E+03  0.17172687803E+03 0.  0.
         24    2    3    3    0    0 -0.86442591505E+02  0.64145060197E+02  0.25032366683E+02  0.13691208297E+03  0.80817007545E+02 0.  0.
         -6    2    1    2    0  501  0.12145419674E+03 -0.35894177716E+02 -0.13191882081E+03  0.26064508200E+03  0.18572498374E+03 0.  0.
        -24    2    5    5    0    0  0.13433272051E+02 -0.40845491528E+02  0.13930793798E+01  0.88926741650E+02  0.77828129453E+02 0.  0.
          5    1    3    3  502    0 -0.35011605236E+02 -0.28250882480E+02  0.10159395651E+03  0.11120857369E+03  0.47000000000E+01 0. -1.
        -11    1    4    4    0    0 -0.36352068321E+01  0.50556393611E+02  0.90314512193E+01  0.51485248128E+02  0.00000000000E+00 0.  1.
         12    1    4    4    0    0 -0.82807384673E+02  0.13588666585E+02  0.16000915464E+02  0.85426834845E+02  0.00000000000E+00 0. -1.
         -5    1    5    5    0  501  0.10802092469E+03  0.49513138117E+01 -0.13331190019E+03  0.17171834035E+03  0.47000000000E+01 0.  1.
         13    1    6    6    0    0  0.44267492392E+01  0.23419052791E+02 -0.21977263744E+01  0.23934872961E+02  0.00000000000E+00 0. -1.
        -14    1    6    6    0    0  0.90065228116E+01 -0.64264544319E+02  0.35908057542E+01  0.64991868689E+02  0.00000000000E+00 0.  1.
</event>
<event>
12    1  0.1348628E-002  0.2167130E+03  0.7818608E-02  0.1136358E+00
          2   -1    0    0  502    0  0.00000000000E+00  0.00000000000E+00  0.20623597159E+03  0.20623597159E+03  0.00000000000E+00 0.  1.
         -2   -1    0    0    0  501 -0.00000000000E+00 -0.00000000000E+00 -0.27414462311E+03  0.27414462311E+03  0.00000000000E+00 0. -1.
          6    2    1    2  502    0 -0.92968685130E+02  0.93313075763E+02 -0.13276778812E+03  0.25398274896E+03  0.17184133579E+03 0.  0.
         24    2    3    3    0    0 -0.63972744862E+02  0.96256441446E+02 -0.25704952952E+02  0.14292434709E+03  0.80055042180E+02 0.  0.
         -6    2    1    2    0  501  0.92968685130E+02 -0.93313075763E+02  0.64859136598E+02  0.22639784573E+03  0.17233331201E+03 0.  0.
        -24    2    5    5    0    0 -0.14053622899E+02 -0.19187127721E+02  0.42532851444E+02  0.94227563153E+02  0.80648248704E+02 0.  0.
          5    1    3    3  502    0 -0.28995940267E+02 -0.29433656832E+01 -0.10706283517E+03  0.11105840188E+03  0.47000000000E+01 0. -1.
        -11    1    4    4    0    0 -0.48728354068E+02  0.19867693764E+02  0.15425428671E+02  0.54837228188E+02  0.00000000000E+00 0.  1.
         12    1    4    4    0    0 -0.15244390795E+02  0.76388747683E+02 -0.41130381623E+02  0.88087118898E+02  0.00000000000E+00 0. -1.
         -5    1    5    5    0  501  0.10702230803E+03 -0.74125948042E+02  0.22326285153E+02  0.13217028258E+03  0.47000000000E+01 0.  1.
         11    1    6    6    0    0 -0.13481227715E+02 -0.50190205527E+02  0.33869249304E+02  0.62031655467E+02  0.00000000000E+00 0. -1.
        -12    1    6    6    0    0 -0.57239518335E+00  0.31003077806E+02  0.86636021400E+01  0.32195907686E+02  0.00000000000E+00 0.  1.
</event>
<event>
12    1  0.1348628E-002  0.2391314E+03  0.7818608E-02  0.1120373E+00
          2   -1    0    0  502    0  0.00000000000E+00  0.00000000000E+00  0.45042421406E+02  0.45042421406E+02  0.00000000000E+00 0. -1.
         -2   -1    0    0    0  501 -0.00000000000E+00 -0.00000000000E+00 -0.12849899618E+04  0.12849899618E+04  0.00000000000E+00 0.  1.
          6    2    1    2  502    0  0.16206699009E+03  0.27422897496E+02 -0.54521947374E+03  0.59505865255E+03  0.17266383771E+03 0.  0.
         24    2    3    3    0    0  0.17607337263E+02 -0.21833970991E+02 -0.24256803723E+03  0.25606777891E+03  0.77101972086E+02 0.  0.
         -6    2    1    2    0  501 -0.16206699009E+03 -0.27422897496E+02 -0.69472806664E+03  0.73497373063E+03  0.17470424598E+03 0.  0.
        -24    2    5    5    0    0 -0.56789452617E+02  0.46988138508E+02 -0.35460269421E+03  0.37120495635E+03  0.81345693107E+02 0.  0.
          5    1    3    3  502    0  0.14445965283E+03  0.49256868487E+02 -0.30265143651E+03  0.33899087364E+03  0.47000000000E+01 0. -1.
        -11    1    4    4    0    0 -0.68415747279E+01  0.14044325805E+02 -0.80680839902E+01  0.17582497301E+02  0.00000000000E+00 0.  1.
         12    1    4    4    0    0  0.24448911991E+02 -0.35878296796E+02 -0.23449995324E+03  0.23848528161E+03  0.00000000000E+00 0. -1.
         -5    1    5    5    0  501 -0.10527753748E+03 -0.74411036004E+02 -0.34012537242E+03  0.36376877428E+03  0.47000000000E+01 0.  1.
         13    1    6    6    0    0 -0.43329467960E+02  0.65673466682E+02 -0.20039481669E+03  0.21528708642E+03  0.00000000000E+00 0. -1.
        -14    1    6    6    0    0 -0.13459984656E+02 -0.18685328174E+02 -0.15420787752E+03  0.15591786993E+03  0.00000000000E+00 0.  1.
</event>
<event>
12    1  0.1348628E-002  0.2184824E+03  0.7818608E-02  0.1135020E+00
          3   -1    0    0  502    0  0.00000000000E+00  0.00000000000E+00  0.38455980236E+03  0.38455980236E+03  0.00000000000E+00 0. -1.
         -3   -1    0    0    0  501 -0.00000000000E+00 -0.00000000000E+00 -0.25003845064E+03  0.25003845064E+03  0.00000000000E+00 0.  1.
          6    2    1    2  502    0 -0.57427333700E+02 -0.12171650603E+03 -0.15790112003E+03  0.26957431614E+03  0.17211839448E+03 0.  0.
         24    2    3    3    0    0  0.16015252340E+02 -0.52799357545E+02 -0.15354543842E+02  0.94974765217E+02  0.75763999014E+02 0.  0.
         -6    2    1    2    0  501  0.57427333700E+02  0.12171650603E+03  0.29242247175E+03  0.36502393686E+03  0.17210103427E+03 0.  0.
        -24    2    5    5    0    0  0.58287123117E+02  0.14701827010E+03  0.28895715061E+03  0.33904284848E+03  0.80262430517E+02 0.  0.
          5    1    3    3  502    0 -0.73442586040E+02 -0.68917148489E+02 -0.14254657619E+03  0.17459955093E+03  0.47000000000E+01 0. -1.
        -11    1    4    4    0    0  0.16976728376E+02 -0.51488575851E+02 -0.41813184459E+02  0.68466233606E+02  0.00000000000E+00 0.  1.
         12    1    4    4    0    0 -0.96147603542E+00 -0.13107816941E+01  0.26458640618E+02  0.26508531611E+02  0.00000000000E+00 0. -1.
         -5    1    5    5    0  501 -0.85978941676E+00 -0.25301764064E+02  0.34653211361E+01  0.25981088375E+02  0.47000000000E+01 0.  1.
         11    1    6    6    0    0  0.76058667812E+02  0.10579001436E+03  0.19006480435E+03  0.23043671136E+03  0.00000000000E+00 0. -1.
        -12    1    6    6    0    0 -0.17771544696E+02  0.41228255734E+02  0.98892346264E+02  0.10860613713E+03  0.00000000000E+00 0.  1.
</event>
<event>
12    1  0.1348628E-002  0.1765152E+03  0.7818608E-02  0.1171219E+00
          1   -1    0    0  502    0  0.00000000000E+00  0.00000000000E+00  0.83108235530E+02  0.83108235530E+02  0.00000000000E+00 0.  1.
         -1   -1    0    0    0  501 -0.00000000000E+00 -0.00000000000E+00 -0.40494017282E+03  0.40494017282E+03  0.00000000000E+00 0. -1.
          6    2    1    2  502    0 -0.26185858173E+02 -0.32482104479E+02 -0.93923572425E+02  0.19938642833E+03  0.17085819871E+03 0.  0.
         24    2    3    3    0    0 -0.25105827278E+02  0.47055659386E+02 -0.59046382278E+02  0.11240406954E+03  0.79395604075E+02 0.  0.
         -6    2    1    2    0  501  0.26185858173E+02  0.32482104479E+02 -0.22790836487E+03  0.28866198002E+03  0.17217064109E+03 0.  0.
        -24    2    5    5    0    0  0.16979622951E+02  0.58335809216E+02 -0.23784948260E+03  0.25909705760E+03  0.82870589799E+02 0.  0.
          5    1    3    3  502    0 -0.10800308946E+01 -0.79537763865E+02 -0.34877190147E+02  0.86982358786E+02  0.47000000000E+01 0. -1.
        -11    1    4    4    0    0 -0.16548311228E+02 -0.17478151564E+02  0.64979904948E+00  0.24078094306E+02  0.00000000000E+00 0.  1.
         12    1    4    4    0    0 -0.85575160504E+01  0.64533810950E+02 -0.59696181327E+02  0.88325975238E+02  0.00000000000E+00 0. -1.
         -5    1    5    5    0  501  0.92062352216E+01 -0.25853704737E+02  0.99411177344E+01  0.29564922415E+02  0.47000000000E+01 0.  1.
         13    1    6    6    0    0  0.50141196999E+02  0.28704499657E+02 -0.14701640482E+03  0.15796173974E+03  0.00000000000E+00 0. -1.
        -14    1    6    6    0    0 -0.33161574048E+02  0.29631309559E+02 -0.90833077780E+02  0.10113531786E+03  0.00000000000E+00 0.  1.
</event>
<event>
12    1  0.1348628E-002  0.1872259E+03  0.7818608E-02  0.1160987E+00
         -2   -1    0    0    0  501 -0.00000000000E+00  0.00000000000E+00  0.16706862203E+03  0.16706862203E+03  0.00000000000E+00 0. -1.
          2   -1    0    0  502    0  0.00000000000E+00 -0.00000000000E+00 -0.21498933258E+03  0.21498933258E+03  0.00000000000E+00 0.  1.
          6    2    1    2  502    0 -0.70559871834E+02 -0.30103319874E+01  0.54637217077E+01  0.18872236044E+03  0.17492432496E+03 0.  0.
         24    2    3    3    0    0  0.15815491877E+02 -0.31451329243E+02 -0.26865123470E+02  0.92095045399E+02  0.80749282557E+02 0.  0.
         -6    2    1    2    0  501  0.70559871834E+02  0.30103319874E+01 -0.53384432255E+02  0.19333559418E+03  0.17187494511E+03 0.  0.
        -24    2    5    5    0    0  0.34469416127E+02 -0.38999129013E+01  0.36596232365E+02  0.96027411153E+02  0.81722882357E+02 0.  0.
          5    1    3    3  502    0 -0.86375363711E+02  0.28440997256E+02  0.32328845178E+02  0.96627315039E+02  0.47000000000E+01 0. -1.
        -11    1    4    4    0    0  0.25363878068E+02  0.17845690397E+02 -0.28124193276E+02  0.41866039027E+02  0.00000000000E+00 0.  1.
         12    1    4    4    0    0 -0.95483861912E+01 -0.49297019640E+02  0.12590698052E+01  0.50229006371E+02  0.00000000000E+00 0. -1.
         -5    1    5    5    0  501  0.36090455708E+02  0.69102448887E+01 -0.89980664621E+02  0.97308183023E+02  0.47000000000E+01 0.  1.
         13    1    6    6    0    0  0.55284733535E+01 -0.36065378579E+02  0.38072708568E+02  0.52733354600E+02  0.00000000000E+00 0. -1.
        -14    1    6    6    0    0  0.28940942773E+02  0.32165465678E+02 -0.14764762022E+01  0.43294056553E+02  0.00000000000E+00 0.  1.
</event>
<event>
12    1  0.1348628E-002  0.2554098E+03  0.7818608E-02  0.1109933E+00
          1   -1    0    0  502    0  0.00000000000E+00  0.00000000000E+00  0.52177037191E+03  0.52177037191E+03  0.00000000000E+00 0.  1.
         -1   -1    0    0    0  501 -0.00000000000E+00 -0.00000000000E+00 -0.17806249758E+03  0.17806249758E+03  0.00000000000E+00 0. -1.
          6    2    1    2  502    0 -0.13595046397E+03 -0.14036236906E+03  0.36495084123E+03  0.44818711810E+03  0.17175113688E+03 0.  0.
         24    2    3    3    0    0 -0.13782798471E+03 -0.52670927232E+02  0.19963339425E+03  0.26098331918E+03  0.80548251672E+02 0.  0.
         -6    2    1    2    0  501  0.13595046397E+03  0.14036236906E+03 -0.21242966903E+02  0.25164575139E+03  0.15713114665E+03 0.  0.
        -24    2    5    5    0    0  0.29241774842E+02  0.62566275082E+02 -0.48907159116E+02  0.11664066221E+03  0.80271499892E+02 0.  0.
          5    1    3    3  502    0  0.18775207467E+01 -0.87691441829E+02  0.16531744698E+03  0.18720379892E+03  0.47000000000E+01 0. -1.
        -13    1    4    4    0    0 -0.65534368529E+02 -0.62735131767E+02  0.80605263314E+02  0.12135756544E+03  0.00000000000E+00 0.  1.
         14    1    4    4    0    0 -0.72293616183E+02  0.10064204536E+02  0.11902813093E+03  0.13962575374E+03  0.00000000000E+00 0. -1.
         -5    1    5    5    0  501  0.10670868912E+03  0.77796093979E+02  0.27664192213E+02  0.13500508918E+03  0.47000000000E+01 0.  1.
         11    1    6    6    0    0  0.54989094615E+02  0.25230537503E+02 -0.29499706556E+02  0.67309830160E+02  0.00000000000E+00 0. -1.
        -12    1    6    6    0    0 -0.25747319773E+02  0.37335737579E+02 -0.19407452560E+02  0.49330832052E+02  0.00000000000E+00 0.  1.
</event>
<event>
12    1  0.1348628E-002  0.1897411E+03  0.7818608E-02  0.1158695E+00
          1   -1    0    0  502    0  0.00000000000E+00  0.00000000000E+00  0.55924888651E+03  0.55924888651E+03  0.00000000000E+00 0. -1.
         -1   -1    0    0    0  501 -0.00000000000E+00 -0.00000000000E+00 -0.80063811906E+02  0.80063811906E+02  0.00000000000E+00 0.  1.
          6    2    1    2  502    0 -0.60525673303E+02 -0.45516211085E+02  0.37529113783E+03  0.41814098372E+03  0.16811710662E+03 0.  0.
         24    2    3    3    0    0  0.16544429661E+02 -0.19170754464E+02  0.10079985377E+03  0.13178205008E+03  0.81022603166E+02 0.  0.
         -6    2    1    2    0  501  0.60525673303E+02  0.45516211085E+02  0.10389393678E+03  0.22117171469E+03  0.17996637097E+03 0.  0.
        -24    2    5    5    0    0  0.77190863712E+02  0.89427163578E+02  0.53730526955E+02  0.15229241442E+03  0.79689164497E+02 0.  0.
          5    1    3    3  502    0 -0.77070102964E+02 -0.26345456620E+02  0.27449128406E+03  0.28635893364E+03  0.47000000000E+01 0. -1.
        -13    1    4    4    0    0 -0.32203799041E+02 -0.10162337530E+02  0.53481606669E+02  0.63250612871E+02  0.00000000000E+00 0.  1.
         14    1    4    4    0    0  0.48748228701E+02 -0.90084169348E+01  0.47318247101E+02  0.68531437209E+02  0.00000000000E+00 0. -1.
         -5    1    5    5    0  501 -0.16665190409E+02 -0.43910952493E+02  0.50163409824E+02  0.68879300268E+02  0.47000000000E+01 0.  1.
         13    1    6    6    0    0  0.14800671506E+02  0.46039590595E+02  0.58797098257E+02  0.76130168413E+02  0.00000000000E+00 0. -1.
        -14    1    6    6    0    0  0.62390192206E+02  0.43387572983E+02 -0.50665713012E+01  0.76162246012E+02  0.00000000000E+00 0.  1.
</event>
<event>
12    1  0.1348628E-002  0.1930908E+03  0.7818608E-02  0.1155703E+00
          1   -1    0    0  502    0  0.00000000000E+00  0.00000000000E+00  0.81935459207E+02  0.81935459207E+02  0.00000000000E+00 0. -1.
         -1   -1    0    0    0  501 -0.00000000000E+00 -0.00000000000E+00 -0.57925460444E+03  0.57925460444E+03  0.00000000000E+00 0.  1.
          6    2    1    2  502    0 -0.48348705826E+02 -0.73765873653E+02 -0.40184601045E+03  0.44587156891E+03  0.17187855705E+03 0.  0.
         24    2    3    3    0    0 -0.94109996001E+02 -0.27266749674E+02 -0.28318960109E+03  0.31038098734E+03  0.80869278187E+02 0.  0.
         -6    2    1    2    0  501  0.48348705826E+02  0.73765873653E+02 -0.95473134783E+02  0.21531849474E+03  0.17166226505E+03 0.  0.
        -24    2    5    5    0    0  0.43897846492E+02 -0.15682311402E+02 -0.12021129301E+02  0.92814963457E+02  0.79354609660E+02 0.  0.
          5    1    3    3  502    0  0.45761290175E+02 -0.46499123978E+02 -0.11865640936E+03  0.13549058156E+03  0.47000000000E+01 0. -1.
        -11    1    4    4    0    0 -0.18156637143E+02 -0.43041818264E+02 -0.76768588748E+02  0.89864775135E+02  0.00000000000E+00 0.  1.
         12    1    4    4    0    0 -0.75953358858E+02  0.15775068589E+02 -0.20642101234E+03  0.22051621221E+03  0.00000000000E+00 0. -1.
         -5    1    5    5    0  501  0.44508593337E+01  0.89448185055E+02 -0.83452005483E+02  0.12250353129E+03  0.47000000000E+01 0.  1.
         13    1    6    6    0    0  0.38564592111E+02  0.21775628295E+02  0.14509982241E+02  0.46604134333E+02  0.00000000000E+00 0. -1.
        -14    1    6    6    0    0  0.53332543815E+01 -0.37457939697E+02 -0.26531111542E+02  0.46210829124E+02  0.00000000000E+00 0.  1.
</event>
<event>
12    1  0.1348628E-002  0.1762894E+03  0.7818608E-02  0.1171443E+00
         -2   -1    0    0    0  501 -0.00000000000E+00  0.00000000000E+00  0.38307491163E+02  0.38307491163E+02  0.00000000000E+00 0. -1.
          2   -1    0    0  502    0  0.00000000000E+00 -0.00000000000E+00 -0.13309952018E+04  0.13309952018E+04  0.00000000000E+00 0.  1.
          6    2    1    2  502    0 -0.37552832153E+02 -0.26743550554E+00 -0.21807842465E+03  0.28029725228E+03  0.17204087773E+03 0.  0.
         24    2    3    3    0    0 -0.13861079801E+02  0.19112285935E+02 -0.23101703686E+03  0.24673580984E+03  0.83380330603E+02 0.  0.
         -6    2    1    2    0  501  0.37552832153E+02  0.26743550554E+00 -0.10746092860E+04  0.10890054407E+04  0.17244548586E+03 0.  0.
        -24    2    5    5    0    0  0.66354273884E+02 -0.46350324126E+02 -0.61911994518E+03  0.63020769860E+03  0.85445857957E+02 0.  0.
          5    1    3    3  502    0 -0.23691752353E+02 -0.19379721440E+02  0.12938612207E+02  0.33561442437E+02  0.47000000000E+01 0. -1.
        -11    1    4    4    0    0  0.25012006844E+01 -0.13610992798E+02 -0.19467954312E+03  0.19517079607E+03  0.00000000000E+00 0.  1.
         12    1    4    4    0    0 -0.16362280485E+02  0.32723278733E+02 -0.36337493738E+02  0.51565013768E+02  0.00000000000E+00 0. -1.
         -5    1    5    5    0  501 -0.28801441731E+02  0.46617759632E+02 -0.45548934082E+03  0.45879774211E+03  0.47000000000E+01 0.  1.
         13    1    6    6    0    0 -0.18077026824E+02 -0.57289220278E+01 -0.50958297596E+02  0.54372304901E+02  0.00000000000E+00 0. -1.
        -14    1    6    6    0    0  0.84431300708E+02 -0.40621402098E+02 -0.56816164758E+03  0.57583539369E+03  0.00000000000E+00 0.  1.
</event>
<event>
12    1  0.1348628E-002  0.2187567E+03  0.7818608E-02  0.1134813E+00
          2   -1    0    0  502    0  0.00000000000E+00  0.00000000000E+00  0.14838779905E+04  0.14838779905E+04  0.00000000000E+00 0.  1.
         -2   -1    0    0    0  501 -0.00000000000E+00 -0.00000000000E+00 -0.33012838691E+02  0.33012838691E+02  0.00000000000E+00 0. -1.
          6    2    1    2  502    0  0.11866657671E+03  0.56303224500E+02  0.60231571388E+03  0.63996424059E+03  0.17180861599E+03 0.  0.
         24    2    3    3    0    0  0.22288976785E+02  0.58448256573E+02  0.43450372632E+03  0.44637654444E+03  0.80904474906E+02 0.  0.
         -6    2    1    2    0  501 -0.11866657671E+03 -0.56303224500E+02  0.84854943790E+03  0.87692658857E+03  0.17807943079E+03 0.  0.
        -24    2    5    5    0    0 -0.61723274703E+02  0.39774672903E+02  0.39119562297E+03  0.40611016571E+03  0.80620493748E+02 0.  0.
          5    1    3    3  502    0  0.96377599930E+02 -0.21450320733E+01  0.16781198757E+03  0.19358769615E+03  0.47000000000E+01 0. -1.
        -11    1    4    4    0    0  0.30923910820E+02  0.76087165129E+01  0.30978147021E+03  0.31141409748E+03  0.00000000000E+00 0.  1.
         12    1    4    4    0    0 -0.86349340348E+01  0.50839540061E+02  0.12472225611E+03  0.13496244696E+03  0.00000000000E+00 0. -1.
         -5    1    5    5    0  501 -0.56943302012E+02 -0.96077897403E+02  0.45735381493E+03  0.47081642287E+03  0.47000000000E+01 0.  1.
         13    1    6    6    0    0 -0.19157802866E+02 -0.89355348081E+01  0.19280164441E+02  0.28611010710E+02  0.00000000000E+00 0. -1.
        -14    1    6    6    0    0 -0.42565471837E+02  0.48710207711E+02  0.37191545853E+03  0.37749915500E+03  0.00000000000E+00 0.  1.
</event>
<event>
12    1  0.1348628E-002  0.2164129E+03  0.7818608E-02  0.1136586E+00
          1   -1    0    0  502    0  0.00000000000E+00  0.00000000000E+00  0.88763385295E+02  0.88763385295E+02  0.00000000000E+00 0. -1.
         -1   -1    0    0    0  501 -0.00000000000E+00 -0.00000000000E+00 -0.59064920208E+03  0.59064920208E+03  0.00000000000E+00 0.  1.
          6    2    1    2  502    0  0.73805009587E+02 -0.10993297548E+03 -0.14060176378E+03  0.25857442765E+03  0.17192859017E+03 0.  0.
         24    2    3    3    0    0  0.61626902692E+02 -0.14250368632E+03 -0.87627168645E+02  0.19503266798E+03  0.79082521111E+02 0.  0.
         -6    2    1    2    0  501 -0.73805009587E+02  0.10993297548E+03 -0.36128405301E+03  0.42083815973E+03  0.17042931434E+03 0.  0.
        -24    2    5    5    0    0 -0.30233037214E+02  0.13827104610E+03 -0.25328062322E+03  0.30088652836E+03  0.79678793410E+02 0.  0.
          5    1    3    3  502    0  0.12178106895E+02  0.32570710838E+02 -0.52974595137E+02  0.63541759670E+02  0.47000000000E+01 0. -1.
        -13    1    4    4    0    0  0.45162231903E+02 -0.61863733574E+02 -0.82492661779E+02  0.11256903646E+03  0.00000000000E+00 0.  1.
         14    1    4    4    0    0  0.16464670789E+02 -0.80639952746E+02 -0.51345068666E+01  0.82463631522E+02  0.00000000000E+00 0. -1.
         -5    1    5    5    0  501 -0.43571972373E+02 -0.28338070617E+02 -0.10800342979E+03  0.11995163137E+03  0.47000000000E+01 0.  1.
         13    1    6    6    0    0 -0.17926593153E+02  0.97759401553E+02 -0.96650321440E+02  0.13863458432E+03  0.00000000000E+00 0. -1.
        -14    1    6    6    0    0 -0.12306444061E+02  0.40511644546E+02 -0.15663030178E+03  0.16225194404E+03  0.00000000000E+00 0.  1.
</event>
<event>
12    1  0.1348628E-002  0.1815004E+03  0.7818608E-02  0.1166359E+00
         -2   -1    0    0    0  501 -0.00000000000E+00  0.00000000000E+00  0.28519938621E+02  0.28519938621E+02  0.00000000000E+00 0.  1.
          2   -1    0    0  502    0  0.00000000000E+00 -0.00000000000E+00 -0.19305892866E+04  0.19305892866E+04  0.00000000000E+00 0. -1.
          6    2    1    2  502    0  0.38606862916E+02 -0.43275249589E+02 -0.32985211060E+03  0.37643777181E+03  0.17187130094E+03 0.  0.
         24    2    3    3    0    0  0.45927432550E+02 -0.92340277574E+02 -0.25913771754E+03  0.28993006639E+03  0.79189840400E+02 0.  0.
         -6    2    1    2    0  501 -0.38606862916E+02  0.43275249589E+02 -0.15722172374E+04  0.15826714534E+04  0.17210069973E+03 0.  0.
        -24    2    5    5    0    0  0.22048818329E+01  0.64835947305E+02 -0.14126125073E+04  0.14164600757E+04  0.81709784587E+02 0.  0.
          5    1    3    3  502    0 -0.73205696343E+01  0.49065027984E+02 -0.70714393062E+02  0.86507705420E+02  0.47000000000E+01 0. -1.
        -13    1    4    4    0    0  0.67462089617E+02 -0.55543725452E+02 -0.17276145007E+03  0.19360464251E+03  0.00000000000E+00 0.  1.
         14    1    4    4    0    0 -0.21534657067E+02 -0.36796552121E+02 -0.86376267475E+02  0.96325423882E+02  0.00000000000E+00 0. -1.
         -5    1    5    5    0  501 -0.40811744749E+02 -0.21560697716E+02 -0.15960473010E+03  0.16621137767E+03  0.47000000000E+01 0.  1.
         11    1    6    6    0    0  0.41757606576E+02  0.28433626881E+02 -0.70800391448E+03  0.70980399531E+03  0.00000000000E+00 0. -1.
        -12    1    6    6    0    0 -0.39552724743E+02  0.36402320424E+02 -0.70460859279E+03  0.70665608042E+03  0.00000000000E+00 0.  1.
</event>
<event>
12    1  0.1348628E-002  0.2380131E+03  0.7818608E-02  0.1121124E+00
          1   -1    0    0  502    0  0.00000000000E+00  0.00000000000E+00  0.44695987806E+03  0.44695987806E+03  0.00000000000E+00 0.  1.
         -1   -1    0    0    0  501 -0.00000000000E+00 -0.00000000000E+00 -0.16439112474E+03  0.16439112474E+03  0.00000000000E+00 0. -1.
          6    2    1    2  502    0  0.14326435100E+03 -0.80739835682E+02  0.28776278501E+03  0.37372198518E+03  0.17267630538E+03 0.  0.
         24    2    3    3    0    0  0.46153082417E+02 -0.10431179390E+03  0.18044153901E+03  0.22700397149E+03  0.77204900806E+02 0.  0.
         -6    2    1    2    0  501 -0.14326435100E+03  0.80739835682E+02 -0.51940316946E+01  0.23762901762E+03  0.17145546569E+03 0.  0.
        -24    2    5    5    0    0 -0.14980077512E+03  0.10174818778E+03 -0.34490261321E+02  0.20069076145E+03  0.79336231720E+02 0.  0.
          5    1    3    3  502    0  0.97111268587E+02  0.23571958215E+02  0.10732124600E+03  0.14671801370E+03  0.47000000000E+01 0. -1.
        -13    1    4    4    0    0  0.65548163593E+02 -0.80349878424E+02  0.15752501152E+03  0.18859160630E+03  0.00000000000E+00 0.  1.
         14    1    4    4    0    0 -0.19395081176E+02 -0.23961915473E+02  0.22916527488E+02  0.38412365185E+02  0.00000000000E+00 0. -1.
         -5    1    5    5    0  501  0.65364241141E+01 -0.21008352100E+02  0.29296229626E+02  0.36938256164E+02  0.47000000000E+01 0.  1.
         11    1    6    6    0    0 -0.17259240563E+02  0.53898810149E+02 -0.13936698903E+02  0.58285458706E+02  0.00000000000E+00 0. -1.
        -12    1    6    6    0    0 -0.13254153456E+03  0.47849377633E+02 -0.20553562417E+02  0.14240530275E+03  0.00000000000E+00 0.  1.
</event>
<event>
12    1  0.1348628E-002  0.2159349E+03  0.7818608E-02  0.1136951E+00
          1   -1    0    0  502    0  0.00000000000E+00  0.00000000000E+00  0.64275530663E+02  0.64275530663E+02  0.00000000000E+00 0.  1.
         -1   -1    0    0    0  501 -0.00000000000E+00 -0.00000000000E+00 -0.11758349318E+04  0.11758349318E+04  0.00000000000E+00 0. -1.
          6    2    1    2  502    0  0.59702389741E+02  0.11778879064E+03 -0.93920596240E+03  0.96366293727E+03  0.17058675893E+03 0.  0.
         24    2    3    3    0    0  0.11740777266E+01  0.13283111909E+03 -0.66943202363E+03  0.68716356478E+03  0.80056516490E+02 0.  0.
         -6    2    1    2    0  501 -0.59702389741E+02 -0.11778879064E+03 -0.17235343870E+03  0.27644752516E+03  0.17111093417E+03 0.  0.
        -24    2    5    5    0    0 -0.45468068697E+02 -0.15041224327E+03 -0.12459592630E+03  0.21669992647E+03  0.82118969097E+02 0.  0.
          5    1    3    3  502    0  0.58528312014E+02 -0.15042328452E+02 -0.26977393876E+03  0.27649937249E+03  0.47000000000E+01 0. -1.
        -13    1    4    4    0    0 -0.14811248693E+02  0.60686709039E+01 -0.20048271158E+03  0.20112065905E+03  0.00000000000E+00 0.  1.
         14    1    4    4    0    0  0.15985326420E+02  0.12676244818E+03 -0.46894931205E+03  0.48604290572E+03  0.00000000000E+00 0. -1.
         -5    1    5    5    0  501 -0.14234321044E+02  0.32623452637E+02 -0.47757512403E+02  0.59747598684E+02  0.47000000000E+01 0.  1.
         11    1    6    6    0    0  0.14436353963E+02 -0.36681563678E+02 -0.62624848000E+02  0.73998763616E+02  0.00000000000E+00 0. -1.
        -12    1    6    6    0    0 -0.59904422659E+02 -0.11373067960E+03 -0.61971078298E+02  0.14270116286E+03  0.00000000000E+00 0.  1.
</event>
<event>
12    1  0.1348628E-002  0.2682011E+03  0.7818608E-02  0.1102314E+00
         -1   -1    0    0    0  501 -0.00000000000E+00  0.00000000000E+00  0.12426546149E+03  0.12426546149E+03  0.00000000000E+00 0. -1.
          1   -1    0    0  502    0  0.00000000000E+00 -0.00000000000E+00 -0.57984327426E+03  0.57984327426E+03  0.00000000000E+00 0.  1.
          6    2    1    2  502    0  0.19490387808E+03 -0.61329133684E+02 -0.24165741477E+03  0.36046666092E+03  0.17259525832E+03 0.  0.
         24    2    3    3    0    0  0.61440803070E+02 -0.59059005643E+02 -0.49632009717E+02  0.12655772125E+03  0.79313189257E+02 0.  0.
         -6    2    1    2    0  501 -0.19490387808E+03  0.61329133684E+02 -0.21392039799E+03  0.34364207483E+03  0.17486896404E+03 0.  0.
        -24    2    5    5    0    0 -0.80217443831E+02  0.53639542572E+02 -0.18781413909E+03  0.22567710220E+03  0.79649009991E+02 0.  0.
          5    1    3    3  502    0  0.13346307501E+03 -0.22701280401E+01 -0.19202540505E+03  0.23390893967E+03  0.47000000000E+01 0. -1.
        -13    1    4    4    0    0 -0.13267375435E+02 -0.30700188877E+02 -0.19450779796E+01  0.33500868293E+02  0.00000000000E+00 0.  1.
         14    1    4    4    0    0  0.74708178505E+02 -0.28358816766E+02 -0.47686931737E+02  0.93056852958E+02  0.00000000000E+00 0. -1.
         -5    1    5    5    0  501 -0.11468643425E+03  0.76895911112E+01 -0.26106258899E+02  0.11796497263E+03  0.47000000000E+01 0.  1.
         11    1    6    6    0    0 -0.45755971144E+02 -0.68032961905E+01 -0.11962177690E+03  0.12825468117E+03  0.00000000000E+00 0. -1.
        -12    1    6    6    0    0 -0.34461472687E+02  0.60442838763E+02 -0.68192362197E+02  0.97422421031E+02  0.00000000000E+00 0.  1.
</event>
<event>
12    1  0.1348628E-002  0.1932107E+03  0.7818608E-02  0.1155597E+00
          1   -1    0    0  502    0  0.00000000000E+00  0.00000000000E+00  0.55626659930E+02  0.55626659930E+02  0.00000000000E+00 0. -1.
         -1   -1    0    0    0  501 -0.00000000000E+00 -0.00000000000E+00 -0.84941850736E+03  0.84941850736E+03  0.00000000000E+00 0.  1.
          6    2    1    2  502    0  0.85014229001E+02  0.16013151816E+02 -0.18891268013E+03  0.26993730862E+03  0.17232036939E+03 0.  0.
         24    2    3    3    0    0  0.12346800397E+03  0.29598037264E+02 -0.16043792065E+03  0.21997588501E+03  0.80800196702E+02 0.  0.
         -6    2    1    2    0  501 -0.85014229001E+02 -0.16013151816E+02 -0.60487916730E+03  0.63510785867E+03  0.17320318978E+03 0.  0.
        -24    2    5    5    0    0 -0.41644522705E+02  0.23960142183E+02 -0.53659299062E+03  0.54475362477E+03  0.80722484102E+02 0.  0.
          5    1    3    3  502    0 -0.38453774969E+02 -0.13584885448E+02 -0.28474759480E+02  0.49961423613E+02  0.47000000000E+01 0. -1.
        -13    1    4    4    0    0  0.34867788668E+02 -0.22851302832E+02 -0.76556853634E+02  0.87171650014E+02  0.00000000000E+00 0.  1.
         14    1    4    4    0    0  0.88600215301E+02  0.52449340096E+02 -0.83881067016E+02  0.13280423499E+03  0.00000000000E+00 0. -1.
         -5    1    5    5    0  501 -0.43369706296E+02 -0.39973293999E+02 -0.68286176682E+02  0.90354233898E+02  0.47000000000E+01 0.  1.
         13    1    6    6    0    0  0.14872891998E+02  0.24239895403E+02 -0.30667995024E+03  0.30799572615E+03  0.00000000000E+00 0. -1.
        -14    1    6    6    0    0 -0.56517414703E+02 -0.27975322010E+00 -0.22991304038E+03  0.23675789862E+03  0.00000000000E+00 0.  1.
</event>
<event>
12    1  0.1348628E-002  0.1858304E+03  0.7818608E-02  0.1162277E+00
         -4   -1    0    0    0  501 -0.00000000000E+00  0.00000000000E+00  0.20362463281E+03  0.20362463281E+03  0.00000000000E+00 0. -1.
          4   -1    0    0  502    0  0.00000000000E+00 -0.00000000000E+00 -0.18092159975E+03  0.18092159975E+03  0.00000000000E+00 0.  1.
          6    2    1    2  502    0  0.66884042910E+02  0.22806527370E+02  0.59456557220E+02  0.19491939473E+03  0.17165335814E+03 0.  0.
         24    2    3    3    0    0  0.14463158717E+02 -0.35728958476E+02  0.72448342688E+02  0.11513701139E+03  0.80759071310E+02 0.  0.
         -6    2    1    2    0  501 -0.66884042910E+02 -0.22806527370E+02 -0.36753524166E+02  0.18962683783E+03  0.17208690595E+03 0.  0.
        -24    2    5    5    0    0 -0.51401787308E+02 -0.80840251485E+02 -0.11407278054E+02  0.12426526223E+03  0.78322662141E+02 0.  0.
          5    1    3    3  502    0  0.52420884193E+02  0.58535485846E+02 -0.12991785468E+02  0.79782383346E+02  0.47000000000E+01 0. -1.
        -11    1    4    4    0    0  0.37464788963E+02 -0.38694708386E+02  0.19411611627E+02  0.57251214267E+02  0.00000000000E+00 0.  1.
         12    1    4    4    0    0 -0.23001630246E+02  0.29657499093E+01  0.53036731061E+02  0.57885797119E+02  0.00000000000E+00 0. -1.
         -5    1    5    5    0  501 -0.15482255602E+02  0.58033724115E+02 -0.25346246112E+02  0.65361575602E+02  0.47000000000E+01 0.  1.
         11    1    6    6    0    0 -0.69966256049E+02 -0.60618362680E+02  0.42347615388E+01  0.92670362494E+02  0.00000000000E+00 0. -1.
        -12    1    6    6    0    0  0.18564468741E+02 -0.20221888805E+02 -0.15642039593E+02  0.31594899732E+02  0.00000000000E+00 0.  1.
</event>
<event>
12    1  0.1348628E-002  0.2246970E+03  0.7818608E-02  0.1130429E+00
          4   -1    0    0  502    0  0.00000000000E+00  0.00000000000E+00  0.12049544592E+03  0.12049544592E+03  0.00000000000E+00 0. -1.
         -4   -1    0    0    0  501 -0.00000000000E+00 -0.00000000000E+00 -0.73302777345E+03  0.73302777345E+03  0.00000000000E+00 0.  1.
          6    2    1    2  502    0 -0.59031215202E+01 -0.14499958385E+03 -0.25821738388E+02  0.22473299196E+03  0.16964206242E+03 0.  0.
         24    2    3    3    0    0  0.35375272124E+02 -0.18284638370E+02 -0.12921798903E+02  0.90758809265E+02  0.80526087041E+02 0.  0.
         -6    2    1    2    0  501  0.59031215202E+01  0.14499958385E+03 -0.58671058914E+03  0.62879022741E+03  0.17345924165E+03 0.  0.
        -24    2    5    5    0    0  0.35106019267E+02  0.31528694186E+02 -0.38014622704E+03  0.39126259169E+03  0.79679172809E+02 0.  0.
          5    1    3    3  502    0 -0.41278393644E+02 -0.12671494548E+03 -0.12899939485E+02  0.13397418270E+03  0.47000000000E+01 0. -1.
        -11    1    4    4    0    0 -0.13359063976E+02 -0.84435741860E+00 -0.32711051951E+02  0.35343888432E+02  0.00000000000E+00 0.  1.
         12    1    4    4    0    0  0.48734336100E+02 -0.17440280951E+02  0.19789253048E+02  0.55414920833E+02  0.00000000000E+00 0. -1.
         -5    1    5    5    0  501 -0.29202897747E+02  0.11347088967E+03 -0.20656436211E+03  0.23752763572E+03  0.47000000000E+01 0.  1.
         11    1    6    6    0    0 -0.17446110472E+02 -0.82577290672E+01 -0.35871763032E+02  0.40735000220E+02  0.00000000000E+00 0. -1.
        -12    1    6    6    0    0  0.52552129739E+02  0.39786423254E+02 -0.34427446400E+03  0.35052759147E+03  0.00000000000E+00 0.  1.
</event>
<event>
12    1  0.1348628E-002  0.1733835E+03  0.7818608E-02  0.1174365E+00
         -1   -1    0    0    0  501 -0.00000000000E+00  0.00000000000E+00  0.41699182796E+02  0.41699182796E+02  0.00000000000E+00 0.  1.
          1   -1    0    0  502    0  0.00000000000E+00 -0.00000000000E+00 -0.72489646744E+03  0.72489646744E+03  0.00000000000E+00 0. -1.
          6    2    1    2  502    0 -0.11165134115E+02  0.24892208513E+02 -0.37117919545E+03  0.40994478236E+03  0.17186170947E+03 0.  0.
         24    2    3    3    0    0 -0.42111079380E+02  0.53029004261E+02 -0.12493602398E+03  0.16013061082E+03  0.73806396303E+02 0.  0.
         -6    2    1    2    0  501  0.11165134115E+02 -0.24892208513E+02 -0.31201808919E+03  0.35665086787E+03  0.17058801631E+03 0.  0.
        -24    2    5    5    0    0 -0.17537473916E+02  0.63344723624E+01 -0.30199829142E+03  0.31281672988E+03  0.79395528465E+02 0.  0.
          5    1    3    3  502    0  0.30945945264E+02 -0.28136795748E+02 -0.24624317148E+03  0.24981417154E+03  0.47000000000E+01 0. -1.
        -13    1    4    4    0    0 -0.50968282057E+02  0.41754272537E+02 -0.47115564646E+02  0.81000379523E+02  0.00000000000E+00 0.  1.
         14    1    4    4    0    0  0.88572026775E+01  0.11274731724E+02 -0.77820459331E+02  0.79130231298E+02  0.00000000000E+00 0. -1.
         -5    1    5    5    0  501  0.28702608031E+02 -0.31226680875E+02 -0.10019797767E+02  0.43834137993E+02  0.47000000000E+01 0.  1.
         13    1    6    6    0    0  0.95520272828E+01 -0.13345877051E+02 -0.25264167288E+03  0.25317418615E+03  0.00000000000E+00 0. -1.
        -14    1    6    6    0    0 -0.27089501198E+02  0.19680349413E+02 -0.49356618539E+02  0.59642543723E+02  0.00000000000E+00 0.  1.
</event>
<event>
12    1  0.1348628E-002  0.1808563E+03  0.7818608E-02  0.1166977E+00
          1   -1    0    0  502    0  0.00000000000E+00  0.00000000000E+00  0.27861286470E+03  0.27861286470E+03  0.00000000000E+00 0.  1.
         -1   -1    0    0    0  501 -0.00000000000E+00 -0.00000000000E+00 -0.12801202860E+03  0.12801202860E+03  0.00000000000E+00 0. -1.
          6    2    1    2  502    0 -0.27383801468E+02 -0.51319278299E+02  0.16795374229E+02  0.18172419217E+03  0.17134192866E+03 0.  0.
         24    2    3    3    0    0 -0.41591066149E+02 -0.56533587448E+00  0.64666220585E+02  0.11036932568E+03  0.79180373695E+02 0.  0.
         -6    2    1    2    0  501  0.27383801468E+02  0.51319278299E+02  0.13380546187E+03  0.22490070113E+03  0.17115163696E+03 0.  0.
        -24    2    5    5    0    0 -0.18434292910E+02  0.16939578238E+01  0.14146607908E+02  0.87415059933E+02  0.84253032821E+02 0.  0.
          5    1    3    3  502    0  0.14207264680E+02 -0.50753942425E+02 -0.47870846356E+02  0.71354866493E+02  0.47000000000E+01 0. -1.
        -13    1    4    4    0    0  0.21016766982E+02  0.13435155127E+02  0.22550093606E+02  0.33626100120E+02  0.00000000000E+00 0.  1.
         14    1    4    4    0    0 -0.62607833131E+02 -0.14000491002E+02  0.42116126979E+02  0.76743225560E+02  0.00000000000E+00 0. -1.
         -5    1    5    5    0  501  0.45818094378E+02  0.49625320475E+02  0.11965885396E+03  0.13748564120E+03  0.47000000000E+01 0.  1.
         11    1    6    6    0    0  0.27819424124E+02  0.20889470793E+02 -0.18643981150E+01  0.34839149371E+02  0.00000000000E+00 0. -1.
        -12    1    6    6    0    0 -0.46253717034E+02 -0.19195512969E+02  0.16011006023E+02  0.52575910562E+02  0.00000000000E+00 0.  1.
</event>
<event>
12    1  0.1348628E-002  0.2884751E+03  0.7818608E-02  0.1091148E+00
          1   -1    0    0  502    0  0.00000000000E+00  0.00000000000E+00  0.22342567346E+03  0.22342567346E+03  0.00000000000E+00 0. -1.
         -1   -1    0    0    0  501 -0.00000000000E+00 -0.00000000000E+00 -0.40744970000E+03  0.40744970000E+03  0.00000000000E+00 0.  1.
          6    2    1    2  502    0  0.16419094531E+02 -0.23133346350E+03  0.49398046526E+00  0.28822315610E+03  0.17113616127E+03 0.  0.
         24    2    3    3    0    0  0.60839780674E+02 -0.18555663131E+03 -0.37161909436E+02  0.21400205555E+03  0.79266196641E+02 0.  0.
         -6    2    1    2    0  501 -0.16419094531E+02  0.23133346350E+03 -0.18451800701E+03  0.34265221736E+03  0.17198514224E+03 0.  0.
        -24    2    5    5    0    0 -0.97852033787E+01  0.87643891920E+02 -0.15700171670E+03  0.19612598174E+03  0.77708813351E+02 0.  0.
          5    1    3    3  502    0 -0.44420686143E+02 -0.45776832186E+02  0.37655889901E+02  0.74221100549E+02  0.47000000000E+01 0. -1.
        -13    1    4    4    0    0 -0.15695632024E+02 -0.17803317316E+02 -0.15497880288E+02  0.28345992054E+02  0.00000000000E+00 0.  1.
         14    1    4    4    0    0  0.76535412698E+02 -0.16775331400E+03 -0.21664029148E+02  0.18565606350E+03  0.00000000000E+00 0. -1.
         -5    1    5    5    0  501 -0.66338911522E+01  0.14368957158E+03 -0.27516290314E+02  0.14652623562E+03  0.47000000000E+01 0.  1.
         13    1    6    6    0    0 -0.42562008034E+02  0.48706632037E+02 -0.10527336186E+03  0.12355703642E+03  0.00000000000E+00 0. -1.
        -14    1    6    6    0    0  0.32776804655E+02  0.38937259883E+02 -0.51728354838E+02  0.72568945320E+02  0.00000000000E+00 0.  1.
</event>
<event>
12    1  0.1348628E-002  0.1871567E+03  0.7818608E-02  0.1161051E+00
         -2   -1    0    0    0  501 -0.00000000000E+00  0.00000000000E+00  0.34406814883E+03  0.34406814883E+03  0.00000000000E+00 0. -1.
          2   -1    0    0  502    0  0.00000000000E+00 -0.00000000000E+00 -0.17819996970E+03  0.17819996970E+03  0.00000000000E+00 0.  1.
          6    2    1    2  502    0  0.58753839469E+02  0.35121939662E+02 -0.88440187246E+02  0.20555526106E+03  0.17246951710E+03 0.  0.
         24    2    3    3    0    0  0.10046849736E+03  0.20374123495E+02 -0.32886688563E+02  0.13438018129E+03  0.80420612835E+02 0.  0.
         -6    2    1    2    0  501 -0.58753839469E+02 -0.35121939662E+02  0.25430836638E+03  0.31671285748E+03  0.17592249596E+03 0.  0.
        -24    2    5    5    0    0  0.30628006828E+02 -0.25774502490E+02  0.78615534909E+02  0.11931338924E+03  0.80329837191E+02 0.  0.
          5    1    3    3  502    0 -0.41714657887E+02  0.14747816167E+02 -0.55553498683E+02  0.71175079770E+02  0.47000000000E+01 0. -1.
        -11    1    4    4    0    0  0.28050167755E+02 -0.24598334326E+02 -0.31964916672E+02  0.49128869929E+02  0.00000000000E+00 0.  1.
         12    1    4    4    0    0  0.72418329601E+02  0.44972457821E+02 -0.92177189097E+00  0.85251311357E+02  0.00000000000E+00 0. -1.
         -5    1    5    5    0  501 -0.89381846297E+02 -0.93474371716E+01  0.17569283147E+03  0.19739946823E+03  0.47000000000E+01 0.  1.
         11    1    6    6    0    0 -0.26411603639E+02  0.16052372107E+00  0.30259568178E+02  0.40165159541E+02  0.00000000000E+00 0. -1.
        -12    1    6    6    0    0  0.57039610467E+02 -0.25935026211E+02  0.48355966731E+02  0.79148229704E+02  0.00000000000E+00 0.  1.
</event>
<event>
12    1  0.1348628E-002  0.1737909E+03  0.7818608E-02  0.1173951E+00
          2   -1    0    0  502    0  0.00000000000E+00  0.00000000000E+00  0.84337929377E+03  0.84337929377E+03  0.00000000000E+00 0. -1.
         -2   -1    0    0    0  501 -0.00000000000E+00 -0.00000000000E+00 -0.48791953434E+02  0.48791953434E+02  0.00000000000E+00 0.  1.
          6    2    1    2  502    0  0.24841536171E+02  0.66658903722E+01  0.62862333047E+03  0.65240503235E+03  0.17263689816E+03 0.  0.
         24    2    3    3    0    0  0.36417109529E+02  0.17301990802E+02  0.16942701889E+03  0.19291568199E+03  0.82978195162E+02 0.  0.
         -6    2    1    2    0  501 -0.24841536171E+02 -0.66658903722E+01  0.16596400986E+03  0.23976621485E+03  0.17112056920E+03 0.  0.
        -24    2    5    5    0    0 -0.35611396648E+01 -0.28992061142E+02  0.15415451857E+02  0.86018787252E+02  0.79425274815E+02 0.  0.
          5    1    3    3  502    0 -0.11575573358E+02 -0.10636100430E+02  0.45919631158E+03  0.45948935036E+03  0.47000000000E+01 0. -1.
        -13    1    4    4    0    0  0.63012176491E+02  0.18375303026E+02  0.12008014417E+03  0.13684819024E+03  0.00000000000E+00 0.  1.
         14    1    4    4    0    0 -0.26595066962E+02 -0.10733122240E+01  0.49346874726E+02  0.56067491749E+02  0.00000000000E+00 0. -1.
         -5    1    5    5    0  501 -0.21280396506E+02  0.22326170770E+02  0.15054855800E+03  0.15374742760E+03  0.47000000000E+01 0.  1.
         13    1    6    6    0    0  0.68035904012E+01 -0.75485466268E+01  0.46082350785E+02  0.47189537531E+02  0.00000000000E+00 0. -1.
        -14    1    6    6    0    0 -0.10364730066E+02 -0.21443514515E+02 -0.30666898927E+02  0.38829249721E+02  0.00000000000E+00 0.  1.
</event>
<event>
12    1  0.1348628E-002  0.1957857E+03  0.7818608E-02  0.1153344E+00
         -2   -1    0    0    0  501 -0.00000000000E+00  0.00000000000E+00  0.30508561936E+03  0.30508561936E+03  0.00000000000E+00 0. -1.
          2   -1    0    0  502    0  0.00000000000E+00 -0.00000000000E+00 -0.12597673000E+03  0.12597673000E+03  0.00000000000E+00 0.  1.
          6    2    1    2  502    0 -0.12352887994E+02  0.90602246523E+02  0.78377322856E+02  0.21069695109E+03  0.17288389035E+03 0.  0.
         24    2    3    3    0    0 -0.58414440603E+02  0.26636860193E+02  0.44673803088E+01  0.10253962640E+03  0.79828868860E+02 0.  0.
         -6    2    1    2    0  501  0.12352887994E+02 -0.90602246523E+02  0.10073156650E+03  0.22036539827E+03  0.17335714392E+03 0.  0.
        -24    2    5    5    0    0  0.53502957202E+02 -0.88690813736E+02  0.23608771787E+02  0.13280400703E+03  0.79692554907E+02 0.  0.
          5    1    3    3  502    0  0.46061552609E+02  0.63965386331E+02  0.73909942547E+02  0.10815732469E+03  0.47000000000E+01 0. -1.
        -11    1    4    4    0    0 -0.10756682923E+02 -0.15792271944E+02 -0.25646770914E+02  0.31982165952E+02  0.00000000000E+00 0.  1.
         12    1    4    4    0    0 -0.47657757679E+02  0.42429132137E+02  0.30114151223E+02  0.70557460447E+02  0.00000000000E+00 0. -1.
         -5    1    5    5    0  501 -0.41150069208E+02 -0.19114327869E+01  0.77122794714E+02  0.87561391239E+02  0.47000000000E+01 0.  1.
         11    1    6    6    0    0  0.25445038434E+02 -0.32497130762E+02  0.49862727001E+02  0.64728703314E+02  0.00000000000E+00 0. -1.
        -12    1    6    6    0    0  0.28057918769E+02 -0.56193682974E+02 -0.26253955214E+02  0.68075303718E+02  0.00000000000E+00 0.  1.
</event>
<event>
12    1  0.1348628E-002  0.1835929E+03  0.7818608E-02  0.1164370E+00
         -3   -1    0    0    0  501 -0.00000000000E+00  0.00000000000E+00  0.92253850280E+03  0.92253850280E+03  0.00000000000E+00 0.  1.
          3   -1    0    0  502    0  0.00000000000E+00 -0.00000000000E+00 -0.43983179778E+02  0.43983179778E+02  0.00000000000E+00 0. -1.
          6    2    1    2  502    0  0.62986360941E+02 -0.16017307323E+02  0.63686399130E+03  0.66262450983E+03  0.17103117204E+03 0.  0.
         24    2    3    3    0    0  0.68134582928E+02 -0.69519927749E+02  0.49705760013E+03  0.51276807321E+03  0.79934331271E+02 0.  0.
         -6    2    1    2    0  501 -0.62986360941E+02  0.16017307323E+02  0.24169133172E+03  0.30389717275E+03  0.17238026563E+03 0.  0.
        -24    2    5    5    0    0  0.19508108804E+02  0.46023975566E+02  0.12506618956E+03  0.15785179808E+03  0.82321721015E+02 0.  0.
          5    1    3    3  502    0 -0.51482219877E+01  0.53502620427E+02  0.13980639117E+03  0.14985643662E+03  0.47000000000E+01 0. -1.
        -13    1    4    4    0    0  0.62578644001E+02 -0.85784890663E+01  0.21166541398E+03  0.22088894186E+03  0.00000000000E+00 0.  1.
         14    1    4    4    0    0  0.55559389278E+01 -0.60941438683E+02  0.28539218615E+03  0.29187913135E+03  0.00000000000E+00 0. -1.
         -5    1    5    5    0  501 -0.82494469745E+02 -0.30006668243E+02  0.11662514216E+03  0.14604537467E+03  0.47000000000E+01 0.  1.
         11    1    6    6    0    0  0.13754709830E+02  0.16829659318E+02 -0.67180653503E+01  0.22749986315E+02  0.00000000000E+00 0. -1.
        -12    1    6    6    0    0  0.57533989742E+01  0.29194316247E+02  0.13178425491E+03  0.13510181177E+03  0.00000000000E+00 0.  1.
</event>
<event>
12    1  0.1348628E-002  0.2174408E+03  0.7818608E-02  0.1135806E+00
         -2   -1    0    0    0  501 -0.00000000000E+00  0.00000000000E+00  0.57233300801E+02  0.57233300801E+02  0.00000000000E+00 0. -1.
          2   -1    0    0  502    0  0.00000000000E+00 -0.00000000000E+00 -0.87632774899E+03  0.87632774899E+03  0.00000000000E+00 0.  1.
          6    2    1    2  502    0 -0.88843523751E+02 -0.10039854525E+03 -0.29708031547E+03  0.36791436673E+03  0.17067872688E+03 0.  0.
         24    2    3    3    0    0 -0.21068038490E+02  0.57560335032E+01 -0.69058144696E+02  0.10737931850E+03  0.79273555023E+02 0.  0.
         -6    2    1    2    0  501  0.88843523751E+02  0.10039854525E+03 -0.52201413273E+03  0.56564668306E+03  0.17171015023E+03 0.  0.
        -24    2    5    5    0    0 -0.13951097117E+00 -0.46699405818E+01 -0.19644822110E+03  0.21213201576E+03  0.79914083421E+02 0.  0.
          5    1    3    3  502    0 -0.67775485262E+02 -0.10615457876E+03 -0.22802217077E+03  0.26053504823E+03  0.47000000000E+01 0. -1.
        -11    1    4    4    0    0 -0.38116653993E+00 -0.24345870656E+02  0.49517731250E+01  0.24847268724E+02  0.00000000000E+00 0.  1.
         12    1    4    4    0    0 -0.20686871950E+02  0.30101904159E+02 -0.74009917821E+02  0.82532049780E+02  0.00000000000E+00 0. -1.
         -5    1    5    5    0  501  0.88983034722E+02  0.10506848583E+03 -0.32556591163E+03  0.35351466730E+03  0.47000000000E+01 0.  1.
         11    1    6    6    0    0 -0.13290536247E+02 -0.39879115801E+02 -0.11461760078E+03  0.12208266314E+03  0.00000000000E+00 0. -1.
        -12    1    6    6    0    0  0.13151025276E+02  0.35209175219E+02 -0.81830620323E+02  0.90049352624E+02  0.00000000000E+00 0.  1.
</event>
<event>
12    1  0.1348628E-002  0.1944025E+03  0.7818608E-02  0.1154549E+00
         -2   -1    0    0    0  501 -0.00000000000E+00  0.00000000000E+00  0.10889980645E+02  0.10889980645E+02  0.00000000000E+00 0. -1.
          2   -1    0    0  502    0  0.00000000000E+00 -0.00000000000E+00 -0.38551372647E+04  0.38551372647E+04  0.00000000000E+00 0.  1.
          6    2    1    2  502    0 -0.68307866464E+02 -0.59174979100E+02 -0.25352949730E+04  0.25427588260E+04  0.17243608769E+03 0.  0.
         24    2    3    3    0    0 -0.34467447918E+02  0.34527195632E+02 -0.14073778382E+04  0.14104406621E+04  0.79059151706E+02 0.  0.
         -6    2    1    2    0  501  0.68307866464E+02  0.59174979100E+02 -0.13089523111E+04  0.13232684194E+04  0.17180079812E+03 0.  0.
        -24    2    5    5    0    0  0.10446796220E+02  0.38611990108E+02 -0.31445262030E+03  0.32686364974E+03  0.79745681873E+02 0.  0.
          5    1    3    3  502    0 -0.33840418546E+02 -0.93702174732E+02 -0.11279171348E+04  0.11323181639E+04  0.47000000000E+01 0. -1.
        -13    1    4    4    0    0 -0.25903093647E+02 -0.20373714796E+01 -0.11542307078E+04  0.11545231258E+04  0.00000000000E+00 0.  1.
         14    1    4    4    0    0 -0.85643542707E+01  0.36564567111E+02 -0.25314713042E+03  0.25591753627E+03  0.00000000000E+00 0. -1.
         -5    1    5    5    0  501  0.57861070243E+02  0.20562988992E+02 -0.99449969077E+03  0.99640476962E+03  0.47000000000E+01 0.  1.
         13    1    6    6    0    0  0.43007344783E+02  0.10843508385E+02 -0.19489675435E+03  0.19987985951E+03  0.00000000000E+00 0. -1.
        -14    1    6    6    0    0 -0.32560548562E+02  0.27768481723E+02 -0.11955586594E+03  0.12698379023E+03  0.00000000000E+00 0.  1.
</event>
<event>
12    1  0.1348628E-002  0.2388851E+03  0.7818608E-02  0.1120538E+00
          2   -1    0    0  502    0  0.00000000000E+00  0.00000000000E+00  0.73002940509E+03  0.73002940509E+03  0.00000000000E+00 0.  1.
         -2   -1    0    0    0  501 -0.00000000000E+00 -0.00000000000E+00 -0.13511509037E+03  0.13511509037E+03  0.00000000000E+00 0. -1.
          6    2    1    2  502    0  0.84900676931E+02 -0.14297218653E+03  0.16411992793E+02  0.23914346566E+03  0.17108790898E+03 0.  0.
         24    2    3    3    0    0  0.11806023671E+03 -0.14431805480E+03  0.25785682316E+02  0.20433938801E+03  0.79522095352E+02 0.  0.
         -6    2    1    2    0  501 -0.84900676931E+02  0.14297218653E+03  0.57850232192E+03  0.62600102980E+03  0.17193947126E+03 0.  0.
        -24    2    5    5    0    0 -0.12021062492E+03  0.13329983686E+03  0.49911378471E+03  0.53845117763E+03  0.92712780930E+02 0.  0.
          5    1    3    3  502    0 -0.33159559776E+02  0.13458682658E+01 -0.93736895225E+01  0.34804077652E+02  0.47000000000E+01 0. -1.
        -13    1    4    4    0    0 -0.16116218574E+01  0.36798530017E+01  0.12972853177E+02  0.13580631895E+02  0.00000000000E+00 0.  1.
         14    1    4    4    0    0  0.11967185856E+03 -0.14799790780E+03  0.12812829139E+02  0.19075875612E+03  0.00000000000E+00 0. -1.
         -5    1    5    5    0  501  0.35309947989E+02  0.96723496666E+01  0.79388537211E+02  0.87549852173E+02  0.47000000000E+01 0.  1.
         13    1    6    6    0    0 -0.42794185064E+02  0.19879004112E+02  0.49728162456E+02  0.68552222583E+02  0.00000000000E+00 0. -1.
        -14    1    6    6    0    0 -0.77416439855E+02  0.11342083275E+03  0.44938562225E+03  0.46989895504E+03  0.00000000000E+00 0.  1.
</event>
<event>
12    1  0.1348628E-002  0.2322193E+03  0.7818608E-02  0.1125087E+00
         -4   -1    0    0    0  501 -0.00000000000E+00  0.00000000000E+00  0.12460633929E+04  0.12460633929E+04  0.00000000000E+00 0.  1.
          4   -1    0    0  502    0  0.00000000000E+00 -0.00000000000E+00 -0.54475786353E+02  0.54475786353E+02  0.00000000000E+00 0. -1.
          6    2    1    2  502    0  0.14939564138E+03  0.41559528412E+02  0.30377431524E+03  0.38320286048E+03  0.17469786953E+03 0.  0.
         24    2    3    3    0    0  0.64144476223E+02  0.89359340658E+02  0.18522503089E+03  0.22948686902E+03  0.79096810255E+02 0.  0.
         -6    2    1    2    0  501 -0.14939564138E+03 -0.41559528412E+02  0.88781329128E+03  0.91733631875E+03  0.17101821379E+03 0.  0.
        -24    2    5    5    0    0 -0.52673009506E+02  0.39850904244E+02  0.46179145805E+03  0.47292702716E+03  0.77756554624E+02 0.  0.
          5    1    3    3  502    0  0.85251165154E+02 -0.47799812246E+02  0.11854928436E+03  0.15371599147E+03  0.47000000000E+01 0. -1.
        -13    1    4    4    0    0  0.40703373821E+02  0.75605993218E+02  0.69080890180E+02  0.11020526412E+03  0.00000000000E+00 0.  1.
         14    1    4    4    0    0  0.23441102401E+02  0.13753347440E+02  0.11614414071E+03  0.11928160490E+03  0.00000000000E+00 0. -1.
         -5    1    5    5    0  501 -0.96722631871E+02 -0.81410432656E+02  0.42602183323E+03  0.44440929159E+03  0.47000000000E+01 0.  1.
         11    1    6    6    0    0 -0.43016871624E+02  0.39123643182E+01  0.96270791284E+02  0.10551693273E+03  0.00000000000E+00 0. -1.
        -12    1    6    6    0    0 -0.96561378817E+01  0.35938539925E+02  0.36552066677E+03  0.36741009443E+03  0.00000000000E+00 0.  1.
</event>
<event>
12    1  0.1348628E-002  0.3608690E+03  0.7818608E-02  0.1058240E+00
         -1   -1    0    0    0  501 -0.00000000000E+00  0.00000000000E+00  0.41605596677E+04  0.41605596677E+04  0.00000000000E+00 0. -1.
          1   -1    0    0  502    0  0.00000000000E+00 -0.00000000000E+00 -0.31825875566E+02  0.31825875566E+02  0.00000000000E+00 0.  1.
          6    2    1    2  502    0  0.78625907692E+01  0.32042844737E+03  0.23273999724E+04  0.23550399525E+04  0.16335953065E+03 0.  0.
         24    2    3    3    0    0  0.18729599747E+02  0.25864283869E+03  0.14378228698E+04  0.14632411721E+04  0.80580437210E+02 0.  0.
         -6    2    1    2    0  501 -0.78625907692E+01 -0.32042844737E+03  0.18013338197E+04  0.18373455907E+04  0.16822330238E+03 0.  0.
        -24    2    5    5    0    0 -0.63379163346E+01 -0.69336545523E+02  0.69115023119E+03  0.69911048405E+03  0.78861277669E+02 0.  0.
          5    1    3    3  502    0 -0.10867008978E+02  0.61785608682E+02  0.88957710256E+03  0.89179878040E+03  0.47000000000E+01 0. -1.
        -13    1    4    4    0    0  0.37350626288E+02  0.24385622613E+03  0.13438582750E+04  0.13663147483E+04  0.00000000000E+00 0.  1.
         14    1    4    4    0    0 -0.18621026540E+02  0.14786612558E+02  0.93964594849E+02  0.96926423773E+02  0.00000000000E+00 0. -1.
         -5    1    5    5    0  501 -0.15246744346E+01 -0.25109190185E+03  0.11101835885E+04  0.11382351067E+04  0.47000000000E+01 0.  1.
         11    1    6    6    0    0 -0.40566087589E+02 -0.24511980902E+02  0.25969559034E+03  0.26398531079E+03  0.00000000000E+00 0. -1.
        -12    1    6    6    0    0  0.34228171254E+02 -0.44824564621E+02  0.43145464085E+03  0.43512517327E+03  0.00000000000E+00 0.  1.
</event>
<event>
12    1  0.1348628E-002  0.1978468E+03  0.7818608E-02  0.1151569E+00
          2   -1    0    0  502    0  0.00000000000E+00  0.00000000000E+00  0.17092894833E+04  0.17092894833E+04  0.00000000000E+00 0.  1.
         -2   -1    0    0    0  501 -0.00000000000E+00 -0.00000000000E+00 -0.25407807253E+02  0.25407807253E+02  0.00000000000E+00 0. -1.
          6    2    1    2  502    0 -0.97688993028E+02  0.28652450596E+01  0.57473780158E+03  0.60828263882E+03  0.17358824595E+03 0.  0.
         24    2    3    3    0    0 -0.23153354581E+02 -0.67112814206E+02  0.29606711887E+03  0.31141241535E+03  0.65435051008E+02 0.  0.
         -6    2    1    2    0  501  0.97688993028E+02 -0.28652450596E+01  0.11091438744E+04  0.11264146517E+04  0.17046549326E+03 0.  0.
        -24    2    5    5    0    0  0.40643030155E+02  0.60967346924E+02  0.69900109981E+03  0.70740626604E+03  0.80325677145E+02 0.  0.
          5    1    3    3  502    0 -0.74535638447E+02  0.69978059266E+02  0.27867068271E+03  0.29687022347E+03  0.47000000000E+01 0. -1.
        -13    1    4    4    0    0 -0.35507575602E+02 -0.21649347683E+02  0.20165330663E+03  0.20589691172E+03  0.00000000000E+00 0.  1.
         14    1    4    4    0    0  0.12354221021E+02 -0.45463466523E+02  0.94413812233E+02  0.10551550363E+03  0.00000000000E+00 0. -1.
         -5    1    5    5    0  501  0.57045962873E+02 -0.63832591983E+02  0.41014277462E+03  0.41900838566E+03  0.47000000000E+01 0.  1.
         11    1    6    6    0    0 -0.11269990064E+02 -0.12241663401E+02  0.65542113689E+02  0.67621295948E+02  0.00000000000E+00 0. -1.
        -12    1    6    6    0    0  0.51913020219E+02  0.73209010324E+02  0.63345898612E+03  0.63978497009E+03  0.00000000000E+00 0.  1.
</event>
<event>
12    1  0.1348628E-002  0.2109928E+03  0.7818608E-02  0.1140782E+00
         -2   -1    0    0    0  501 -0.00000000000E+00  0.00000000000E+00  0.84870472156E+02  0.84870472156E+02  0.00000000000E+00 0. -1.
          2   -1    0    0  502    0  0.00000000000E+00 -0.00000000000E+00 -0.54005009146E+03  0.54005009146E+03  0.00000000000E+00 0.  1.
          6    2    1    2  502    0  0.12078897585E+03 -0.20131503467E+02 -0.17447271513E+03  0.27366440488E+03  0.17162815636E+03 0.  0.
         24    2    3    3    0    0  0.76560383163E+01 -0.41532556153E+02 -0.85006651040E+02  0.12777632026E+03  0.85539985706E+02 0.  0.
         -6    2    1    2    0  501 -0.12078897585E+03  0.20131503467E+02 -0.28070690417E+03  0.35125615873E+03  0.17201531584E+03 0.  0.
        -24    2    5    5    0    0 -0.59617144620E+02  0.34072406974E+02 -0.26734589868E+03  0.28693704654E+03  0.78383073977E+02 0.  0.
          5    1    3    3  502    0  0.11313293753E+03  0.21401052686E+02 -0.89466064092E+02  0.14588808462E+03  0.47000000000E+01 0. -1.
        -13    1    4    4    0    0  0.40076501670E+02  0.31314667556E+01 -0.36665758656E+02  0.54408730255E+02  0.00000000000E+00 0.  1.
         14    1    4    4    0    0 -0.32420463354E+02 -0.44664022908E+02 -0.48340892384E+02  0.73367590004E+02  0.00000000000E+00 0. -1.
         -5    1    5    5    0  501 -0.61171831225E+02 -0.13940903507E+02 -0.13361005491E+02  0.64319112197E+02  0.47000000000E+01 0.  1.
         13    1    6    6    0    0 -0.25600752969E+02  0.51415324015E+02 -0.21238773759E+03  0.22001701110E+03  0.00000000000E+00 0. -1.
        -14    1    6    6    0    0 -0.34016391651E+02 -0.17342917041E+02 -0.54958161093E+02  0.66920035439E+02  0.00000000000E+00 0.  1.
</event>
<event>
12    1  0.1348628E-002  0.1709173E+03  0.7818608E-02  0.1176895E+00
          2   -1    0    0  502    0  0.00000000000E+00  0.00000000000E+00  0.11873131305E+04  0.11873131305E+04  0.00000000000E+00 0. -1.
         -2   -1    0    0    0  501 -0.00000000000E+00 -0.00000000000E+00 -0.25829625003E+02  0.25829625003E+02  0.00000000000E+00 0.  1.
          6    2    1    2  502    0  0.20908638990E+02  0.92911082950E+01  0.43825061319E+03  0.46919856037E+03  0.16601262967E+03 0.  0.
         24    2    3    3    0    0 -0.19212190536E+02  0.57432884542E+02  0.31421992744E+03  0.33015535632E+03  0.81245012268E+02 0.  0.
         -6    2    1    2    0  501 -0.20908638990E+02 -0.92911082950E+01  0.72323289228E+03  0.74394419511E+03  0.17281103288E+03 0.  0.
        -24    2    5    5    0    0 -0.29209568996E+02 -0.13361519314E+00  0.12843073648E+03  0.14899507152E+03  0.69655297647E+02 0.  0.
          5    1    3    3  502    0  0.40120829527E+02 -0.48141776247E+02  0.12403068576E+03  0.13904320405E+03  0.47000000000E+01 0. -1.
        -11    1    4    4    0    0 -0.54156097481E+01  0.51935958527E+02  0.80428723311E+02  0.95892920232E+02  0.00000000000E+00 0.  1.
         12    1    4    4    0    0 -0.13796580788E+02  0.54969260149E+01  0.23379120413E+03  0.23426243609E+03  0.00000000000E+00 0. -1.
         -5    1    5    5    0  501  0.83009300056E+01 -0.91574931019E+01  0.59480215579E+03  0.59494912359E+03  0.47000000000E+01 0.  1.
         13    1    6    6    0    0 -0.37220486468E+02 -0.27375599921E+02  0.90511203862E+02  0.10162217331E+03  0.00000000000E+00 0. -1.
        -14    1    6    6    0    0  0.80109174721E+01  0.27241984728E+02  0.37919532620E+02  0.47372898209E+02  0.00000000000E+00 0.  1.
</event>
<event>
12    1  0.1348628E-002  0.2009347E+03  0.7818608E-02  0.1148953E+00
          2   -1    0    0  502    0  0.00000000000E+00  0.00000000000E+00  0.21463460605E+03  0.21463460605E+03  0.00000000000E+00 0. -1.
         -2   -1    0    0    0  501 -0.00000000000E+00 -0.00000000000E+00 -0.18948307524E+03  0.18948307524E+03  0.00000000000E+00 0.  1.
          6    2    1    2  502    0  0.39456871222E+02 -0.95686793808E+02 -0.46495005160E+01  0.20060136103E+03  0.17177450625E+03 0.  0.
         24    2    3    3    0    0  0.29157248282E+02 -0.55652898040E+02 -0.69780401213E+02  0.12331669717E+03  0.79939434693E+02 0.  0.
         -6    2    1    2    0  501 -0.39456871222E+02  0.95686793808E+02  0.29801031333E+02  0.20351632026E+03  0.17267884626E+03 0.  0.
        -24    2    5    5    0    0 -0.51442285633E+02  0.12556634237E+03  0.49921121594E+02  0.16526261961E+03  0.80039989833E+02 0.  0.
          5    1    3    3  502    0  0.10299622939E+02 -0.40033895769E+02  0.65130900697E+02  0.77284663865E+02  0.47000000000E+01 0. -1.
        -11    1    4    4    0    0  0.65560873211E+01 -0.64135612674E+02 -0.19195694550E+02  0.67266884745E+02  0.00000000000E+00 0.  1.
         12    1    4    4    0    0  0.22601160961E+02  0.84827146339E+01 -0.50584706663E+02  0.56049812422E+02  0.00000000000E+00 0. -1.
         -5    1    5    5    0  501  0.11985414412E+02 -0.29879548561E+02 -0.20120090261E+02  0.38253700644E+02  0.47000000000E+01 0.  1.
         11    1    6    6    0    0 -0.67560574062E+02  0.61768650294E+02  0.24938557487E+02  0.94877441873E+02  0.00000000000E+00 0. -1.
        -12    1    6    6    0    0  0.16118288429E+02  0.63797692075E+02  0.24982564107E+02  0.70385177739E+02  0.00000000000E+00 0.  1.
</event>
<event>
12    1  0.1348628E-002  0.5524420E+03  0.7818608E-02  0.1000930E+00
          2   -1    0    0  502    0  0.00000000000E+00  0.00000000000E+00  0.43619827934E+03  0.43619827934E+03  0.00000000000E+00 0. -1.
         -2   -1    0    0    0  501 -0.00000000000E+00 -0.00000000000E+00 -0.13978892591E+04  0.13978892591E+04  0.00000000000E+00 0.  1.
          6    2    1    2  502    0 -0.45511511523E+03 -0.26486753050E+03  0.16786468781E+03  0.57606880102E+03  0.16245655809E+03 0.  0.
         24    2    3    3    0    0 -0.20160072949E+03 -0.65568992614E+02  0.50903175204E+02  0.23300680019E+03  0.82212461133E+02 0.  0.
         -6    2    1    2    0  501  0.45511511523E+03  0.26486753050E+03 -0.11295556675E+04  0.12580187374E+04  0.17155337581E+03 0.  0.
        -24    2    5    5    0    0  0.16833537384E+03  0.49325042114E+02 -0.43920667165E+03  0.48000523462E+03  0.82053439792E+02 0.  0.
          5    1    3    3  502    0 -0.25351438575E+03 -0.19929853788E+03  0.11696151260E+03  0.34306200083E+03  0.47000000000E+01 0. -1.
        -11    1    4    4    0    0 -0.16140041906E+02 -0.29931052356E+02 -0.84616496264E+01  0.35042379518E+02  0.00000000000E+00 0.  1.
         12    1    4    4    0    0 -0.18546068758E+03 -0.35637940258E+02  0.59364824831E+02  0.19796442067E+03  0.00000000000E+00 0. -1.
         -5    1    5    5    0  501  0.28677974139E+03  0.21554248838E+03 -0.69034899588E+03  0.77801350277E+03  0.47000000000E+01 0.  1.
         11    1    6    6    0    0  0.89888785652E+02 -0.85543229210E+01 -0.15307685995E+03  0.17772364862E+03  0.00000000000E+00 0. -1.
        -12    1    6    6    0    0  0.78446588188E+02  0.57879365035E+02 -0.28612981170E+03  0.30228158601E+03  0.00000000000E+00 0.  1.
</event>
<event>
12    1  0.1348628E-002  0.1883803E+03  0.7818608E-02  0.1159930E+00
         -2   -1    0    0    0  501 -0.00000000000E+00  0.00000000000E+00  0.12191103924E+03  0.12191103924E+03  0.00000000000E+00 0. -1.
          2   -1    0    0  502    0  0.00000000000E+00 -0.00000000000E+00 -0.29343661940E+03  0.29343661940E+03  0.00000000000E+00 0.  1.
          6    2    1    2  502    0 -0.39734309795E+02 -0.63462105299E+02 -0.68677869299E+02  0.20310447696E+03  0.17586507511E+03 0.  0.
         24    2    3    3    0    0  0.12247981149E+01 -0.43246893223E+02 -0.10770977005E+03  0.14283937432E+03  0.83246011246E+02 0.  0.
         -6    2    1    2    0  501  0.39734309795E+02  0.63462105299E+02 -0.10284771086E+03  0.21224318169E+03  0.16989191376E+03 0.  0.
        -24    2    5    5    0    0  0.74654989455E+02  0.31923996573E+02 -0.19619985693E+02  0.11651935808E+03  0.81236124724E+02 0.  0.
          5    1    3    3  502    0 -0.40959107910E+02 -0.20215212076E+02  0.39031900748E+02  0.60265102638E+02  0.47000000000E+01 0. -1.
        -11    1    4    4    0    0 -0.26119306983E+02 -0.43374405235E+02 -0.26495196111E+02  0.57145014163E+02  0.00000000000E+00 0.  1.
         12    1    4    4    0    0  0.27344105098E+02  0.12751201127E+00 -0.81214573936E+02  0.85694360156E+02  0.00000000000E+00 0. -1.
         -5    1    5    5    0  501 -0.34920679660E+02  0.31538108725E+02 -0.83227725171E+02  0.95723823612E+02  0.47000000000E+01 0.  1.
         11    1    6    6    0    0  0.27994659942E-01 -0.18421511227E+02  0.10972455767E+02  0.21441726730E+02  0.00000000000E+00 0. -1.
        -12    1    6    6    0    0  0.74626994795E+02  0.50345507801E+02 -0.30592441461E+02  0.95077631346E+02  0.00000000000E+00 0.  1.
</event>
<event>
12    1  0.1348628E-002  0.1837641E+03  0.7818608E-02  0.1164209E+00
         -3   -1    0    0    0  501 -0.00000000000E+00  0.00000000000E+00  0.83061660815E+03  0.83061660815E+03  0.00000000000E+00 0.  1.
          3   -1    0    0  502    0  0.00000000000E+00 -0.00000000000E+00 -0.56058319437E+02  0.56058319437E+02  0.00000000000E+00 0. -1.
          6    2    1    2  502    0 -0.58880725177E+02 -0.29999437110E+02  0.15529742302E+03  0.24079874254E+03  0.17175517107E+03 0.  0.
         24    2    3    3    0    0 -0.75589385318E+02 -0.72016093234E+02  0.80438041239E+02  0.15321680515E+03  0.78134742886E+02 0.  0.
         -6    2    1    2    0  501  0.58880725177E+02  0.29999437110E+02  0.61926086569E+03  0.64587618505E+03  0.17118738449E+03 0.  0.
        -24    2    5    5    0    0 -0.17818292613E+02  0.29818772579E+02  0.17751533342E+03  0.19749690670E+03  0.79288610824E+02 0.  0.
          5    1    3    3  502    0  0.16708660141E+02  0.42016656124E+02  0.74859381784E+02  0.87581937388E+02  0.47000000000E+01 0. -1.
        -13    1    4    4    0    0 -0.50663769127E+02  0.35582456345E+01  0.29576929141E+02  0.58773066549E+02  0.00000000000E+00 0.  1.
         14    1    4    4    0    0 -0.24925616191E+02 -0.75574338869E+02  0.50861112099E+02  0.94443738606E+02  0.00000000000E+00 0. -1.
         -5    1    5    5    0  501  0.76699017791E+02  0.18066453062E+00  0.44174553228E+03  0.44837927835E+03  0.47000000000E+01 0.  1.
         13    1    6    6    0    0  0.18209680647E+02  0.44073306891E+02  0.10332687969E+03  0.11380023249E+03  0.00000000000E+00 0. -1.
        -14    1    6    6    0    0 -0.36027973261E+02 -0.14254534312E+02  0.74188453729E+02  0.83696674202E+02  0.00000000000E+00 0.  1.
</event>
<event>
12    1  0.1348628E-002  0.2165337E+03  0.7818608E-02  0.1136494E+00
          2   -1    0    0  502    0  0.00000000000E+00  0.00000000000E+00  0.11216738954E+04  0.11216738954E+04  0.00000000000E+00 0. -1.
         -2   -1    0    0    0  501 -0.00000000000E+00 -0.00000000000E+00 -0.43732969006E+02  0.43732969006E+02  0.00000000000E+00 0.  1.
          6    2    1    2  502    0 -0.13049310532E+03  0.18135673624E+02  0.41706064158E+03  0.47003207578E+03  0.17214302284E+03 0.  0.
         24    2    3    3    0    0 -0.15359915936E+03 -0.52766495287E+01  0.26922565915E+03  0.31850881473E+03  0.73108581788E+02 0.  0.
         -6    2    1    2    0  501  0.13049310532E+03 -0.18135673624E+02  0.66088028477E+03  0.69537478858E+03  0.17154006122E+03 0.  0.
        -24    2    5    5    0    0  0.24325129900E+02 -0.79928932198E+01  0.46413305580E+03  0.47153092088E+03  0.79160075635E+02 0.  0.
          5    1    3    3  502    0  0.23106054033E+02  0.23412323153E+02  0.14783498243E+03  0.15152326105E+03  0.47000000000E+01 0. -1.
        -11    1    4    4    0    0 -0.65620602256E+02 -0.58999786401E+01  0.51326840666E+02  0.83518367807E+02  0.00000000000E+00 0.  1.
         12    1    4    4    0    0 -0.87978557101E+02  0.62332911138E+00  0.21789881848E+03  0.23499044692E+03  0.00000000000E+00 0. -1.
         -5    1    5    5    0  501  0.10616797542E+03 -0.10142780404E+02  0.19674722897E+03  0.22384386770E+03  0.47000000000E+01 0.  1.
         11    1    6    6    0    0  0.50508394496E+02 -0.19910577962E+02  0.29017624797E+03  0.29521142240E+03  0.00000000000E+00 0. -1.
        -12    1    6    6    0    0 -0.26183264596E+02  0.11917684742E+02  0.17395680783E+03  0.17631949849E+03  0.00000000000E+00 0.  1.
</event>
<event>
12    1  0.1348628E-002  0.2033287E+03  0.7818608E-02  0.1146961E+00
          2   -1    0    0  502    0  0.00000000000E+00  0.00000000000E+00  0.24823914806E+03  0.24823914806E+03  0.00000000000E+00 0.  1.
         -2   -1    0    0    0  501 -0.00000000000E+00 -0.00000000000E+00 -0.18200111333E+03  0.18200111333E+03  0.00000000000E+00 0. -1.
          6    2    1    2  502    0 -0.10373127256E+03 -0.30541726986E+02 -0.29716035134E+02  0.20448630436E+03  0.17099307568E+03 0.  0.
         24    2    3    3    0    0  0.11962444545E+02 -0.28704569219E+02 -0.11283153526E+02  0.87224748633E+02  0.80708084150E+02 0.  0.
         -6    2    1    2    0  501  0.10373127256E+03  0.30541726986E+02  0.95954069864E+02  0.22575395703E+03  0.17339172874E+03 0.  0.
        -24    2    5    5    0    0  0.40349658353E+02  0.62713931059E+02  0.36004181144E+01  0.10911962792E+03  0.79580136401E+02 0.  0.
          5    1    3    3  502    0 -0.11569371711E+03 -0.18371577674E+01 -0.18432881609E+02  0.11726155572E+03  0.47000000000E+01 0. -1.
        -11    1    4    4    0    0  0.37138862209E+02  0.99585970537E+01  0.39116007234E+01  0.38649312564E+02  0.00000000000E+00 0.  1.
         12    1    4    4    0    0 -0.25176417664E+02 -0.38663166272E+02 -0.15194754249E+02  0.48575436069E+02  0.00000000000E+00 0. -1.
         -5    1    5    5    0  501  0.63381614208E+02 -0.32172204073E+02  0.92353651750E+02  0.11663432911E+03  0.47000000000E+01 0.  1.
         11    1    6    6    0    0  0.27166267233E+02  0.27103710894E+01 -0.28783926138E+02  0.39671987481E+02  0.00000000000E+00 0. -1.
        -12    1    6    6    0    0  0.13183391120E+02  0.60003559969E+02  0.32384344252E+02  0.69447640443E+02  0.00000000000E+00 0.  1.
</event>
<event>
12    1  0.1348628E-002  0.1945261E+03  0.7818608E-02  0.1154441E+00
          1   -1    0    0  502    0  0.00000000000E+00  0.00000000000E+00  0.38327892271E+02  0.38327892271E+02  0.00000000000E+00 0. -1.
         -1   -1    0    0    0  501 -0.00000000000E+00 -0.00000000000E+00 -0.10391728172E+04  0.10391728172E+04  0.00000000000E+00 0.  1.
          6    2    1    2  502    0 -0.17615108088E+02 -0.89375615745E+02 -0.37914902323E+03  0.42597353497E+03  0.17146771695E+03 0.  0.
         24    2    3    3    0    0  0.17055467985E+02 -0.12470182037E+03 -0.27637314461E+03  0.31180278213E+03  0.70692481148E+02 0.  0.
         -6    2    1    2    0  501  0.17615108088E+02  0.89375615745E+02 -0.62169590173E+03  0.65152717454E+03  0.17228921093E+03 0.  0.
        -24    2    5    5    0    0 -0.30503451877E+02  0.10993837116E+03 -0.48496560020E+03  0.50505025458E+03  0.82868692752E+02 0.  0.
          5    1    3    3  502    0 -0.34670576073E+02  0.35326204621E+02 -0.10277587861E+03  0.11417075284E+03  0.47000000000E+01 0. -1.
        -13    1    4    4    0    0  0.13005781781E+02 -0.80049734738E+02 -0.94706975567E+02  0.12468569129E+03  0.00000000000E+00 0.  1.
         14    1    4    4    0    0  0.40496862034E+01 -0.44652085628E+02 -0.18166616904E+03  0.18711709084E+03  0.00000000000E+00 0. -1.
         -5    1    5    5    0  501  0.48118559965E+02 -0.20562755419E+02 -0.13673030153E+03  0.14647691996E+03  0.47000000000E+01 0.  1.
         11    1    6    6    0    0  0.19830739062E+02  0.75361238690E+02 -0.31332384015E+03  0.32286901882E+03  0.00000000000E+00 0. -1.
        -12    1    6    6    0    0 -0.50334190939E+02  0.34577132474E+02 -0.17164176005E+03  0.18218123576E+03  0.00000000000E+00 0.  1.
</event>
<event>
12    1  0.1348628E-002  0.2225869E+03  0.7818608E-02  0.1131969E+00
         -1   -1    0    0    0  501 -0.00000000000E+00  0.00000000000E+00  0.80453897622E+02  0.80453897622E+02  0.00000000000E+00 0.  1.
          1   -1    0    0  502    0  0.00000000000E+00 -0.00000000000E+00 -0.65852657969E+03  0.65852657969E+03  0.00000000000E+00 0. -1.
          6    2    1    2  502    0  0.93183105400E+02  0.10406550434E+03 -0.38261390782E+03  0.44243544892E+03  0.17275127693E+03 0.  0.
         24    2    3    3    0    0  0.91027279624E+02  0.13291254838E+03 -0.26305244045E+03  0.31933453904E+03  0.82621124668E+02 0.  0.
         -6    2    1    2    0  501 -0.93183105400E+02 -0.10406550434E+03 -0.19545877425E+03  0.29654502840E+03  0.17384504914E+03 0.  0.
        -24    2    5    5    0    0 -0.49114466143E+02 -0.13507670957E+03 -0.14084006023E+03  0.21967478879E+03  0.88108694301E+02 0.  0.
          5    1    3    3  502    0  0.21558257755E+01 -0.28847044045E+02 -0.11956146737E+03  0.12310090988E+03  0.47000000000E+01 0. -1.
        -13    1    4    4    0    0  0.25231216546E+02  0.95758212585E+02 -0.18987496723E+03  0.21414656837E+03  0.00000000000E+00 0.  1.
         14    1    4    4    0    0  0.65796063078E+02  0.37154335796E+02 -0.73177473221E+02  0.10518797066E+03  0.00000000000E+00 0. -1.
         -5    1    5    5    0  501 -0.44068639257E+02  0.31011205233E+02 -0.54618714021E+02  0.76870239607E+02  0.47000000000E+01 0.  1.
         11    1    6    6    0    0 -0.55541686529E+02 -0.31750843061E+02 -0.41920419226E+02  0.76487361869E+02  0.00000000000E+00 0. -1.
        -12    1    6    6    0    0  0.64272203867E+01 -0.10332586651E+03 -0.98919641007E+02  0.14318742692E+03  0.00000000000E+00 0.  1.
</event>
<event>
12    1  0.1348628E-002  0.1954908E+03  0.7818608E-02  0.1153600E+00
         -1   -1    0    0    0  501 -0.00000000000E+00  0.00000000000E+00  0.36456740814E+02  0.36456740814E+02  0.00000000000E+00 0.  1.
          1   -1    0    0  502    0  0.00000000000E+00 -0.00000000000E+00 -0.10983820038E+04  0.10983820038E+04  0.00000000000E+00 0. -1.
          6    2    1    2  502    0 -0.87884829112E+02  0.24442698819E+02 -0.40167795976E+03  0.44531677229E+03  0.16923550340E+03 0.  0.
         24    2    3    3    0    0 -0.10299555440E+03 -0.10166265253E+02 -0.37958984844E+03  0.40131576009E+03  0.79085074956E+02 0.  0.
         -6    2    1    2    0  501  0.87884829112E+02 -0.24442698819E+02 -0.66024730321E+03  0.68952197231E+03  0.17661500556E+03 0.  0.
        -24    2    5    5    0    0  0.10405826409E+03  0.31996459525E+02 -0.51981211569E+03  0.53723575991E+03  0.81029194491E+02 0.  0.
          5    1    3    3  502    0  0.15110725289E+02  0.34608964072E+02 -0.22088111320E+02  0.44001012200E+02  0.47000000000E+01 0. -1.
        -13    1    4    4    0    0 -0.12126513270E+02  0.17012457027E+02 -0.18266967224E+02  0.27751722644E+02  0.00000000000E+00 0.  1.
         14    1    4    4    0    0 -0.90869041132E+02 -0.27178722280E+02 -0.36132288122E+03  0.37356403744E+03  0.00000000000E+00 0. -1.
         -5    1    5    5    0  501 -0.16173434978E+02 -0.56439158344E+02 -0.14043518752E+03  0.15228621240E+03  0.47000000000E+01 0.  1.
         11    1    6    6    0    0  0.40077665941E+02 -0.21437562658E+01 -0.35387995578E+03  0.35614861800E+03  0.00000000000E+00 0. -1.
        -12    1    6    6    0    0  0.63980598148E+02  0.34140215791E+02 -0.16593215991E+03  0.18108714191E+03  0.00000000000E+00 0.  1.
</event>
<event>
12    1  0.1348628E-002  0.1729409E+03  0.7818608E-02  0.1174815E+00
         -1   -1    0    0    0  501 -0.00000000000E+00  0.00000000000E+00  0.31273679922E+03  0.31273679922E+03  0.00000000000E+00 0.  1.
          1   -1    0    0  502    0  0.00000000000E+00 -0.00000000000E+00 -0.13598595799E+03  0.13598595799E+03  0.00000000000E+00 0. -1.
          6    2    1    2  502    0 -0.21143828391E+02  0.27766277611E+02  0.21050759263E+03  0.27228945468E+03  0.16914512386E+03 0.  0.
         24    2    3    3    0    0  0.30843294524E+02  0.35404186084E+02  0.19829612362E+03  0.21813958330E+03  0.77838036678E+02 0.  0.
         -6    2    1    2    0  501  0.21143828391E+02 -0.27766277611E+02 -0.33756751398E+02  0.17643330253E+03  0.16962064829E+03 0.  0.
        -24    2    5    5    0    0  0.62798129791E+02 -0.34278940009E+01 -0.62225941860E+02  0.12021922469E+03  0.81395568565E+02 0.  0.
          5    1    3    3  502    0 -0.51987122915E+02 -0.76379084723E+01  0.12211469012E+02  0.54149871378E+02  0.47000000000E+01 0. -1.
        -13    1    4    4    0    0  0.15734877313E+02  0.54663514930E+02  0.17623239036E+03  0.18518515502E+03  0.00000000000E+00 0.  1.
         14    1    4    4    0    0  0.15108417211E+02 -0.19259328846E+02  0.22063733256E+02  0.32954428283E+02  0.00000000000E+00 0. -1.
         -5    1    5    5    0  501 -0.41654301400E+02 -0.24338383610E+02  0.28469190463E+02  0.56214077841E+02  0.47000000000E+01 0.  1.
         11    1    6    6    0    0  0.33760629330E+01 -0.11680968599E+02 -0.58892101437E+02  0.60134203578E+02  0.00000000000E+00 0. -1.
        -12    1    6    6    0    0  0.59422066858E+02  0.82530745984E+01 -0.33338404237E+01  0.60085021112E+02  0.00000000000E+00 0.  1.
</event>
<event>
12    1  0.1348628E-002  0.1991555E+03  0.7818608E-02  0.1150453E+00
          1   -1    0    0  502    0  0.00000000000E+00  0.00000000000E+00  0.12554928652E+03  0.12554928652E+03  0.00000000000E+00 0. -1.
         -1   -1    0    0    0  501 -0.00000000000E+00 -0.00000000000E+00 -0.31659934667E+03  0.31659934667E+03  0.00000000000E+00 0.  1.
          6    2    1    2  502    0  0.97706868002E+02 -0.28415047080E+02 -0.10645972929E+03  0.22739518667E+03  0.17326525909E+03 0.  0.
         24    2    3    3    0    0 -0.89974472511E+01 -0.62795284651E+02 -0.41143029033E+02  0.97563861635E+02  0.61658384894E+02 0.  0.
         -6    2    1    2    0  501 -0.97706868002E+02  0.28415047080E+02 -0.84590330861E+02  0.21475344651E+03  0.16914334678E+03 0.  0.
        -24    2    5    5    0    0 -0.61860545147E+02  0.54299795321E+02  0.28651608805E+01  0.11664365042E+03  0.82597440752E+02 0.  0.
          5    1    3    3  502    0  0.10670431525E+03  0.34380237571E+02 -0.65316700253E+02  0.12983132504E+03  0.47000000000E+01 0. -1.
        -13    1    4    4    0    0 -0.59074040598E+01 -0.23254350592E+02 -0.51290444778E+02  0.56624835273E+02  0.00000000000E+00 0.  1.
         14    1    4    4    0    0 -0.30900431913E+01 -0.39540934059E+02  0.10147415745E+02  0.40939026363E+02  0.00000000000E+00 0. -1.
         -5    1    5    5    0  501 -0.35846322855E+02 -0.25884748241E+02 -0.87455491741E+02  0.98109796093E+02  0.47000000000E+01 0.  1.
         11    1    6    6    0    0 -0.72035526861E+02  0.66934609506E+02 -0.53130289207E+01  0.98476328913E+02  0.00000000000E+00 0. -1.
        -12    1    6    6    0    0  0.10174981714E+02 -0.12634814185E+02  0.81781898011E+01  0.18167321508E+02  0.00000000000E+00 0.  1.
</event>
<event>
12    1  0.1348628E-002  0.1914056E+03  0.7818608E-02  0.1157200E+00
         -1   -1    0    0    0  501 -0.00000000000E+00  0.00000000000E+00  0.18131778099E+03  0.18131778099E+03  0.00000000000E+00 0.  1.
          1   -1    0    0  502    0  0.00000000000E+00 -0.00000000000E+00 -0.20808789135E+03  0.20808789135E+03  0.00000000000E+00 0. -1.
          6    2    1    2  502    0  0.78208787109E+02 -0.27786514481E+02  0.19765928125E+02  0.19245689787E+03  0.17251162527E+03 0.  0.
         24    2    3    3    0    0 -0.27328546127E+02 -0.16708337170E+02  0.15454124439E+02  0.86148213509E+02  0.78464429930E+02 0.  0.
         -6    2    1    2    0  501 -0.78208787109E+02  0.27786514481E+02 -0.46536038484E+02  0.19694877447E+03  0.17243698014E+03 0.  0.
        -24    2    5    5    0    0  0.12462804757E+02 -0.24324912788E+02 -0.34874816056E+02  0.91615909079E+02  0.80188522350E+02 0.  0.
          5    1    3    3  502    0  0.10553733324E+03 -0.11078177311E+02  0.43118036854E+01  0.10630868436E+03  0.47000000000E+01 0. -1.
        -11    1    4    4    0    0 -0.72522692515E+01 -0.44447370605E+02 -0.64573637165E+01  0.45495732868E+02  0.00000000000E+00 0.  1.
         12    1    4    4    0    0 -0.20076276875E+02  0.27739033435E+02  0.21911488156E+02  0.40652480641E+02  0.00000000000E+00 0. -1.
         -5    1    5    5    0  501 -0.90671591867E+02  0.52111427269E+02 -0.11661222428E+02  0.10533286539E+03  0.47000000000E+01 0.  1.
         13    1    6    6    0    0 -0.29289576182E+02 -0.10778749723E+02 -0.36078551562E+02  0.47704534390E+02  0.00000000000E+00 0. -1.
        -14    1    6    6    0    0  0.41752380939E+02 -0.13546163066E+02  0.12037355061E+01  0.43911374689E+02  0.00000000000E+00 0.  1.
</event>
<event>
12    1  0.1348628E-002  0.1812222E+03  0.7818608E-02  0.1166625E+00
         -2   -1    0    0    0  501 -0.00000000000E+00  0.00000000000E+00  0.17040380070E+03  0.17040380070E+03  0.00000000000E+00 0. -1.
          2   -1    0    0  502    0  0.00000000000E+00 -0.00000000000E+00 -0.25038450384E+03  0.25038450384E+03  0.00000000000E+00 0.  1.
          6    2    1    2  502    0  0.34927984851E+02 -0.29932629603E+02  0.60819080911E+02  0.19198047395E+03  0.17618630859E+03 0.  0.
         24    2    3    3    0    0 -0.44018425054E+02 -0.18953046483E+02  0.62919202213E+02  0.11210815464E+03  0.79451699879E+02 0.  0.
         -6    2    1    2    0  501 -0.34927984851E+02  0.29932629603E+02 -0.14079978404E+03  0.22880783059E+03  0.17439185105E+03 0.  0.
        -24    2    5    5    0    0 -0.36769660088E+02  0.36568649753E+02 -0.73455330480E+01  0.95093374982E+02  0.79369509649E+02 0.  0.
          5    1    3    3  502    0  0.78946409905E+02 -0.10979583119E+02 -0.21001213023E+01  0.79872319309E+02  0.47000000000E+01 0. -1.
        -13    1    4    4    0    0 -0.33213925406E+02 -0.23504294495E+02 -0.69357875502E+01  0.41276165635E+02  0.00000000000E+00 0.  1.
         14    1    4    4    0    0 -0.10804499648E+02  0.45512480115E+01  0.69854989763E+02  0.70831989001E+02  0.00000000000E+00 0. -1.
         -5    1    5    5    0  501  0.18416752370E+01 -0.66360201505E+01 -0.13345425100E+03  0.13371445561E+03  0.47000000000E+01 0.  1.
         13    1    6    6    0    0  0.15300758767E+02 -0.14573622852E+02 -0.64835370931E+01  0.22102939965E+02  0.00000000000E+00 0. -1.
        -14    1    6    6    0    0 -0.52070418854E+02  0.51142272605E+02 -0.86199595498E+00  0.72990435017E+02  0.00000000000E+00 0.  1.
</event>
<event>
12    1  0.1348628E-002  0.2611050E+03  0.7818608E-02  0.1106481E+00
         -1   -1    0    0    0  501 -0.00000000000E+00  0.00000000000E+00  0.61086376540E+02  0.61086376540E+02  0.00000000000E+00 0. -1.
          1   -1    0    0  502    0  0.00000000000E+00 -0.00000000000E+00 -0.12827781229E+04  0.12827781229E+04  0.00000000000E+00 0.  1.
          6    2    1    2  502    0 -0.83283366079E+02 -0.17826410722E+03 -0.36894000111E+03  0.45208213565E+03  0.17189334475E+03 0.  0.
         24    2    3    3    0    0 -0.12823815387E+01 -0.22307814734E+02 -0.14968273725E+03  0.17075960832E+03  0.79086275053E+02 0.  0.
         -6    2    1    2    0  501  0.83283366079E+02  0.17826410722E+03 -0.85275174526E+03  0.89178236380E+03  0.17139438249E+03 0.  0.
        -24    2    5    5    0    0  0.11604113724E+03  0.13484262322E+03 -0.75494242287E+03  0.77976785406E+03  0.80322884746E+02 0.  0.
          5    1    3    3  502    0 -0.82000984540E+02 -0.15595629248E+03 -0.21925726385E+03  0.28132252733E+03  0.47000000000E+01 0. -1.
        -11    1    4    4    0    0  0.22340056385E+02 -0.29686897630E+02 -0.13886695377E+03  0.14375124646E+03  0.00000000000E+00 0.  1.
         12    1    4    4    0    0 -0.23622437924E+02  0.73790828961E+01 -0.10815783481E+02  0.27008361856E+02  0.00000000000E+00 0. -1.
         -5    1    5    5    0  501 -0.32757771165E+02  0.43421483998E+02 -0.97809322389E+02  0.11201450973E+03  0.47000000000E+01 0.  1.
         11    1    6    6    0    0  0.41873310301E+02  0.10865353955E+03 -0.46232010012E+03  0.47675868188E+03  0.00000000000E+00 0. -1.
        -12    1    6    6    0    0  0.74167826943E+02  0.26189083671E+02 -0.29262232275E+03  0.30300917218E+03  0.00000000000E+00 0.  1.
</event>
<event>
12    1  0.1348628E-002  0.2137921E+03  0.7818608E-02  0.1138598E+00
          2   -1    0    0  502    0  0.00000000000E+00  0.00000000000E+00  0.20364702025E+04  0.20364702025E+04  0.00000000000E+00 0.  1.
         -2   -1    0    0    0  501 -0.00000000000E+00 -0.00000000000E+00 -0.85140441027E+02  0.85140441027E+02  0.00000000000E+00 0. -1.
          6    2    1    2  502    0 -0.59343538874E+01  0.12527046342E+03  0.18854506702E+04  0.18974842627E+04  0.17261052106E+03 0.  0.
         24    2    3    3    0    0  0.30768676339E+02  0.22558390161E+01  0.80677579084E+03  0.81118720593E+03  0.78649260172E+02 0.  0.
         -6    2    1    2    0  501  0.59343538874E+01 -0.12527046342E+03  0.65879091214E+02  0.22412638074E+03  0.17367980402E+03 0.  0.
        -24    2    5    5    0    0  0.70704278375E+01 -0.22921289250E+01 -0.39337447832E+01  0.82631209484E+02  0.82202175324E+02 0.  0.
          5    1    3    3  502    0 -0.36703030227E+02  0.12301462440E+03  0.10786748794E+04  0.10862970568E+04  0.47000000000E+01 0. -1.
        -11    1    4    4    0    0 -0.72671774031E+01  0.11577438814E+02  0.62902798995E+03  0.62917649440E+03  0.00000000000E+00 0.  1.
         12    1    4    4    0    0  0.38035853743E+02 -0.93215997981E+01  0.17774780089E+03  0.18201071153E+03  0.00000000000E+00 0. -1.
         -5    1    5    5    0  501 -0.11360739502E+01 -0.12297833449E+03  0.69812835997E+02  0.14149517126E+03  0.47000000000E+01 0.  1.
         11    1    6    6    0    0  0.31895793909E+02 -0.30786088841E+02 -0.62527305450E+01  0.44768533307E+02  0.00000000000E+00 0. -1.
        -12    1    6    6    0    0 -0.24825366071E+02  0.28493959917E+02  0.23189857618E+01  0.37862676177E+02  0.00000000000E+00 0.  1.
</event>
<event>
12    1  0.1348628E-002  0.1871759E+03  0.7818608E-02  0.1161033E+00
          2   -1    0    0  502    0  0.00000000000E+00  0.00000000000E+00  0.50243383666E+03  0.50243383666E+03  0.00000000000E+00 0. -1.
         -2   -1    0    0    0  501 -0.00000000000E+00 -0.00000000000E+00 -0.91182725895E+02  0.91182725895E+02  0.00000000000E+00 0.  1.
          6    2    1    2  502    0 -0.25079391692E+02 -0.66184107220E+02  0.61667040710E+02  0.19708073934E+03  0.17328785870E+03 0.  0.
         24    2    3    3    0    0 -0.58597028635E+02 -0.38631349840E+02  0.94656214574E+02  0.14237276901E+03  0.79901273101E+02 0.  0.
         -6    2    1    2    0  501  0.25079391692E+02  0.66184107220E+02  0.34958407006E+03  0.39653582322E+03  0.17326951584E+03 0.  0.
        -24    2    5    5    0    0  0.70198883245E+02  0.32084124046E+01  0.24226108642E+03  0.26408953421E+03  0.78196361580E+02 0.  0.
          5    1    3    3  502    0  0.33517636943E+02 -0.27552757380E+02 -0.32989173864E+02  0.54707970331E+02  0.47000000000E+01 0. -1.
        -11    1    4    4    0    0 -0.46623775336E+02 -0.42537425241E+02  0.19338002940E+02  0.66008842820E+02  0.00000000000E+00 0.  1.
         12    1    4    4    0    0 -0.11973253299E+02  0.39060754011E+01  0.75318211634E+02  0.76363926191E+02  0.00000000000E+00 0. -1.
         -5    1    5    5    0  501 -0.45119491553E+02  0.62975694816E+02  0.10732298364E+03  0.13244628901E+03  0.47000000000E+01 0.  1.
         13    1    6    6    0    0  0.34848242152E+02  0.13721382971E+02  0.21497311962E+03  0.21821117866E+03  0.00000000000E+00 0. -1.
        -14    1    6    6    0    0  0.35350641093E+02 -0.10512970567E+02  0.27287966803E+02  0.45878355551E+02  0.00000000000E+00 0.  1.
</event>
<event>
12    1  0.1348628E-002  0.2810371E+03  0.7818608E-02  0.1095124E+00
          1   -1    0    0  502    0  0.00000000000E+00  0.00000000000E+00  0.13021537238E+04  0.13021537238E+04  0.00000000000E+00 0.  1.
         -1   -1    0    0    0  501 -0.00000000000E+00 -0.00000000000E+00 -0.13002810368E+03  0.13002810368E+03  0.00000000000E+00 0. -1.
          6    2    1    2  502    0 -0.20816306030E+03 -0.62179707351E+02  0.57279952961E+02  0.28094734300E+03  0.16867792045E+03 0.  0.
         24    2    3    3    0    0 -0.17445491299E+03 -0.68793654484E+02 -0.10823704439E+02  0.20452626185E+03  0.80912024116E+02 0.  0.
         -6    2    1    2    0  501  0.20816306030E+03  0.62179707351E+02  0.11148456671E+04  0.11512344844E+04  0.18778125842E+03 0.  0.
        -24    2    5    5    0    0  0.19039833930E+03  0.86089518119E+02  0.10882277460E+04  0.11110117535E+04  0.80277994616E+02 0.  0.
          5    1    3    3  502    0 -0.33708147308E+02  0.66139471325E+01  0.68103657401E+02  0.76421081142E+02  0.47000000000E+01 0. -1.
        -11    1    4    4    0    0 -0.79088899812E+00 -0.24256047301E+02 -0.67732927541E+01  0.25196405116E+02  0.00000000000E+00 0.  1.
         12    1    4    4    0    0 -0.17366402399E+03 -0.44537607183E+02 -0.40504116854E+01  0.17932985674E+03  0.00000000000E+00 0. -1.
         -5    1    5    5    0  501  0.17764721000E+02 -0.23909810768E+02  0.26617921092E+02  0.40222730966E+02  0.47000000000E+01 0.  1.
         13    1    6    6    0    0  0.85023999700E+02  0.77340672469E+01  0.57240988065E+03  0.57874171077E+03  0.00000000000E+00 0. -1.
        -14    1    6    6    0    0  0.10537433960E+03  0.78355450872E+02  0.51581786537E+03  0.53227004270E+03  0.00000000000E+00 0.  1.
</event>
<event>
12    1  0.1348628E-002  0.1889669E+03  0.7818608E-02  0.1159396E+00
          1   -1    0    0  502    0  0.00000000000E+00  0.00000000000E+00  0.16949692166E+04  0.16949692166E+04  0.00000000000E+00 0. -1.
         -1   -1    0    0    0  501 -0.00000000000E+00 -0.00000000000E+00 -0.21067628980E+02  0.21067628980E+02  0.00000000000E+00 0.  1.
          6    2    1    2  502    0  0.94847989317E+01 -0.75604169274E+02  0.83375595575E+03  0.85474870948E+03  0.17216390676E+03 0.  0.
         24    2    3    3    0    0 -0.59806413202E+02 -0.55826017061E+02  0.56814361242E+03  0.57949527297E+03  0.79588038157E+02 0.  0.
         -6    2    1    2    0  501 -0.94847989317E+01  0.75604169274E+02  0.84014563187E+03  0.86128813610E+03  0.17368540183E+03 0.  0.
        -24    2    5    5    0    0 -0.17454252991E+02  0.10583756532E+03  0.79348243672E+03  0.80492224024E+03  0.82335862560E+02 0.  0.
          5    1    3    3  502    0  0.69291212134E+02 -0.19778152213E+02  0.26561234333E+03  0.27525343652E+03  0.47000000000E+01 0. -1.
        -11    1    4    4    0    0  0.17163583620E+02 -0.56229680966E+01  0.47779765791E+02  0.51079471335E+02  0.00000000000E+00 0.  1.
         12    1    4    4    0    0 -0.76969996822E+02 -0.50203048964E+02  0.52036384663E+03  0.52841580163E+03  0.00000000000E+00 0. -1.
         -5    1    5    5    0  501  0.79694540590E+01 -0.30233396048E+02  0.46663195148E+02  0.56365895859E+02  0.47000000000E+01 0.  1.
         13    1    6    6    0    0  0.24155469999E+02  0.72172796536E+02  0.57320644741E+03  0.57823700214E+03  0.00000000000E+00 0. -1.
        -14    1    6    6    0    0 -0.41609722990E+02  0.33664768786E+02  0.22027598932E+03  0.22668523810E+03  0.00000000000E+00 0.  1.
</event>
<event>
12    1  0.1348628E-002  0.3241022E+03  0.7818608E-02  0.1073777E+00
          2   -1    0    0  502    0  0.00000000000E+00  0.00000000000E+00  0.16290834837E+04  0.16290834837E+04  0.00000000000E+00 0. -1.
         -2   -1    0    0    0  501 -0.00000000000E+00 -0.00000000000E+00 -0.85867839941E+02  0.85867839941E+02  0.00000000000E+00 0.  1.
          6    2    1    2  502    0 -0.26583774084E+03 -0.71270481260E+02  0.12000872053E+04  0.12431583200E+04  0.17170941214E+03 0.  0.
         24    2    3    3    0    0 -0.17236649839E+03 -0.98966487783E+02  0.63832779181E+03  0.67298319723E+03  0.77067752546E+02 0.  0.
         -6    2    1    2    0  501  0.26583774084E+03  0.71270481260E+02  0.34312843846E+03  0.47179300368E+03  0.17059404177E+03 0.  0.
        -24    2    5    5    0    0  0.21139106760E+03  0.73261605084E+02  0.34479531095E+03  0.41708218880E+03  0.70854071986E+02 0.  0.
          5    1    3    3  502    0 -0.93471242448E+02  0.27696006523E+02  0.56175941352E+03  0.57017512276E+03  0.47000000000E+01 0. -1.
        -11    1    4    4    0    0 -0.11839747778E+00 -0.15463104561E+02  0.10930380125E+03  0.11039222159E+03  0.00000000000E+00 0.  1.
         12    1    4    4    0    0 -0.17224810091E+03 -0.83503383222E+02  0.52902399056E+03  0.56259097564E+03  0.00000000000E+00 0. -1.
         -5    1    5    5    0  501  0.54446673238E+02 -0.19911238237E+01 -0.16668724964E+01  0.54710814879E+02  0.47000000000E+01 0.  1.
         13    1    6    6    0    0  0.20411959064E+03  0.51046690466E+02  0.32027375911E+03  0.38320471378E+03  0.00000000000E+00 0. -1.
        -14    1    6    6    0    0  0.72714769588E+01  0.22214914618E+02  0.24521551846E+02  0.33877475018E+02  0.00000000000E+00 0.  1.
</event>
<event>
12    1  0.1348628E-002  0.2244777E+03  0.7818608E-02  0.1130588E+00
          2   -1    0    0  502    0  0.00000000000E+00  0.00000000000E+00  0.40814469606E+03  0.40814469606E+03  0.00000000000E+00 0. -1.
         -2   -1    0    0    0  501 -0.00000000000E+00 -0.00000000000E+00 -0.12459892956E+03  0.12459892956E+03  0.00000000000E+00 0.  1.
          6    2    1    2  502    0  0.98076908297E+02  0.10617209283E+03  0.11647056599E+03  0.25309902623E+03  0.17205269862E+03 0.  0.
         24    2    3    3    0    0  0.63153573984E+02  0.13343764461E+03  0.12343170848E+03  0.20800360409E+03  0.78969194951E+02 0.  0.
         -6    2    1    2    0  501 -0.98076908297E+02 -0.10617209283E+03  0.16707520051E+03  0.27964459939E+03  0.17145082707E+03 0.  0.
        -24    2    5    5    0    0  0.46647143324E+01 -0.43414216703E+01  0.53412571831E+02  0.95615770752E+02  0.79049764611E+02 0.  0.
          5    1    3    3  502    0  0.34923334313E+02 -0.27265551780E+02 -0.69611424878E+01  0.45095422142E+02  0.47000000000E+01 0. -1.
        -11    1    4    4    0    0  0.66949775091E+02  0.51536989460E+02  0.73663818070E+02  0.11209233587E+03  0.00000000000E+00 0.  1.
         12    1    4    4    0    0 -0.37962011068E+01  0.81900655151E+02  0.49767890409E+02  0.95911268227E+02  0.00000000000E+00 0. -1.
         -5    1    5    5    0  501 -0.10274162263E+03 -0.10183067116E+03  0.11366262868E+03  0.18402882863E+03  0.47000000000E+01 0.  1.
         13    1    6    6    0    0 -0.19716685430E+01 -0.26571210088E+02  0.64585948470E+02  0.69866024806E+02  0.00000000000E+00 0. -1.
        -14    1    6    6    0    0  0.66363828754E+01  0.22229788418E+02 -0.11173376639E+02  0.25749745946E+02  0.00000000000E+00 0.  1.
</event>
<event>
12    1  0.1348628E-002  0.4603330E+03  0.7818608E-02  0.1024685E+00
         -1   -1    0    0    0  501 -0.00000000000E+00  0.00000000000E+00  0.92930862091E+03  0.92930862091E+03  0.00000000000E+00 0.  1.
          1   -1    0    0  502    0  0.00000000000E+00 -0.00000000000E+00 -0.33740614449E+03  0.33740614449E+03  0.00000000000E+00 0. -1.
          6    2    1    2  502    0  0.35238505550E+03  0.23369517880E+03  0.65802069944E+03  0.80502452568E+03  0.19048512307E+03 0.  0.
         24    2    3    3    0    0  0.16167663451E+03  0.13449577872E+03  0.46249128178E+03  0.51439750355E+03  0.80487000843E+02 0.  0.
         -6    2    1    2    0  501 -0.35238505550E+03 -0.23369517880E+03 -0.66118223026E+02  0.46169023971E+03  0.17319813535E+03 0.  0.
        -24    2    5    5    0    0 -0.30083232727E+03 -0.21812852229E+03 -0.53036334799E+01  0.38032373011E+03  0.80857094858E+02 0.  0.
          5    1    3    3  502    0  0.19070842100E+03  0.99199400089E+02  0.19552941767E+03  0.29062702213E+03  0.47000000000E+01 0. -1.
        -13    1    4    4    0    0  0.92834145695E+02  0.25767846004E+02  0.18883764510E+03  0.21199485065E+03  0.00000000000E+00 0.  1.
         14    1    4    4    0    0  0.68842488814E+02  0.10872793271E+03  0.27365363668E+03  0.30240265291E+03  0.00000000000E+00 0. -1.
         -5    1    5    5    0  501 -0.51552728238E+02 -0.15566656514E+02 -0.60814589546E+02  0.81366509606E+02  0.47000000000E+01 0.  1.
         11    1    6    6    0    0 -0.18744301768E+03 -0.16550223778E+03 -0.33188828427E+02  0.25224467075E+03  0.00000000000E+00 0. -1.
        -12    1    6    6    0    0 -0.11338930958E+03 -0.52626284513E+02  0.27885194947E+02  0.12807905936E+03  0.00000000000E+00 0.  1.
</event>
<event>
12    1  0.1348628E-002  0.2543937E+03  0.7818608E-02  0.1110559E+00
          2   -1    0    0  502    0  0.00000000000E+00  0.00000000000E+00  0.68182526249E+03  0.68182526249E+03  0.00000000000E+00 0.  1.
         -2   -1    0    0    0  501 -0.00000000000E+00 -0.00000000000E+00 -0.98886882181E+02  0.98886882181E+02  0.00000000000E+00 0. -1.
          6    2    1    2  502    0  0.44032160749E+02  0.18031725856E+03  0.21313899564E+03  0.33180512391E+03  0.17381963030E+03 0.  0.
         24    2    3    3    0    0 -0.18011584214E+02  0.16813909694E+03  0.18863036158E+03  0.26383088576E+03  0.73689550703E+02 0.  0.
         -6    2    1    2    0  501 -0.44032160749E+02 -0.18031725856E+03  0.36979938467E+03  0.44890702076E+03  0.17410566754E+03 0.  0.
        -24    2    5    5    0    0 -0.22170407740E+02 -0.20503345846E+03  0.31965091891E+03  0.38869252582E+03  0.79843118715E+02 0.  0.
          5    1    3    3  502    0  0.62043744963E+02  0.12178161615E+02  0.24508634058E+02  0.67974238155E+02  0.47000000000E+01 0. -1.
        -11    1    4    4    0    0 -0.42553161801E+02  0.10766207118E+03  0.95316373031E+02  0.14995700756E+03  0.00000000000E+00 0.  1.
         12    1    4    4    0    0  0.24541577587E+02  0.60477025763E+02  0.93313988550E+02  0.11387387819E+03  0.00000000000E+00 0. -1.
         -5    1    5    5    0  501 -0.21861753009E+02  0.24716199899E+02  0.50148465759E+02  0.60214494933E+02  0.47000000000E+01 0.  1.
         11    1    6    6    0    0  0.25510855755E+02 -0.48401369803E+02  0.10835991979E+03  0.12138932645E+03  0.00000000000E+00 0. -1.
        -12    1    6    6    0    0 -0.47681263495E+02 -0.15663208865E+03  0.21129099912E+03  0.26730319937E+03  0.00000000000E+00 0.  1.
</event>
<event>
12    1  0.1348628E-002  0.2021814E+03  0.7818608E-02  0.1147912E+00
         -1   -1    0    0    0  501 -0.00000000000E+00  0.00000000000E+00  0.87925914543E+02  0.87925914543E+02  0.00000000000E+00 0. -1.
          1   -1    0    0  502    0  0.00000000000E+00 -0.00000000000E+00 -0.66735798320E+03  0.66735798320E+03  0.00000000000E+00 0.  1.
          6    2    1    2  502    0  0.11203283220E+03  0.10420494111E+02 -0.49995417051E+03  0.54015265945E+03  0.17073599712E+03 0.  0.
         24    2    3    3    0    0  0.74442597196E+02 -0.56590842850E+02 -0.34941491397E+03  0.37107367552E+03  0.82829142119E+02 0.  0.
         -6    2    1    2    0  501 -0.11203283220E+03 -0.10420494111E+02 -0.79477898144E+02  0.21513123829E+03  0.16524155412E+03 0.  0.
        -24    2    5    5    0    0 -0.58551559152E+02 -0.10259120689E+02  0.20453869462E+02  0.10169085401E+03  0.79932061012E+02 0.  0.
          5    1    3    3  502    0  0.37590235002E+02  0.67011336961E+02 -0.15053925654E+03  0.16907898394E+03  0.47000000000E+01 0. -1.
        -11    1    4    4    0    0  0.64470979210E+02 -0.23429266542E+02 -0.31451808264E+03  0.32191157482E+03  0.00000000000E+00 0.  1.
         12    1    4    4    0    0  0.99716179854E+01 -0.33161576308E+02 -0.34896831326E+02  0.49162100699E+02  0.00000000000E+00 0. -1.
         -5    1    5    5    0  501 -0.53481273046E+02 -0.16137342260E+00 -0.99931767605E+02  0.11344038428E+03  0.47000000000E+01 0.  1.
         11    1    6    6    0    0 -0.53156516670E+02 -0.36608159054E+02  0.32450062454E+02  0.72241117980E+02  0.00000000000E+00 0. -1.
        -12    1    6    6    0    0 -0.53950424823E+01  0.26349038365E+02 -0.11996192993E+02  0.29449736034E+02  0.00000000000E+00 0.  1.
</event>
<event>
12    1  0.1348628E-002  0.1762400E+03  0.7818608E-02  0.1171492E+00
          2   -1    0    0  502    0  0.00000000000E+00  0.00000000000E+00  0.16058108206E+04  0.16058108206E+04  0.00000000000E+00 0. -1.
         -2   -1    0    0    0  501 -0.00000000000E+00 -0.00000000000E+00 -0.22132687021E+02  0.22132687021E+02  0.00000000000E+00 0.  1.
          6    2    1    2  502    0 -0.11600579875E+02  0.36990018368E+02  0.49884759898E+03  0.52872497875E+03  0.17087522124E+03 0.  0.
         24    2    3    3    0    0 -0.40474440490E+02 -0.28357374354E+02  0.21781294135E+03  0.23871368526E+03  0.84258086245E+02 0.  0.
         -6    2    1    2    0  501  0.11600579875E+02 -0.36990018368E+02  0.10848305346E+04  0.10992185289E+04  0.17297760117E+03 0.  0.
        -24    2    5    5    0    0 -0.20496505250E+02 -0.81204174255E+02  0.87570217090E+03  0.88301983101E+03  0.76521272817E+02 0.  0.
          5    1    3    3  502    0  0.28873860616E+02  0.65347392722E+02  0.28103465763E+03  0.29001129349E+03  0.47000000000E+01 0. -1.
        -11    1    4    4    0    0 -0.54736626888E+02  0.41372093980E+01  0.17330335893E+03  0.18178907844E+03  0.00000000000E+00 0.  1.
         12    1    4    4    0    0  0.14262186398E+02 -0.32494583752E+02  0.44509582419E+02  0.56924606817E+02  0.00000000000E+00 0. -1.
         -5    1    5    5    0  501  0.32097085124E+02  0.44214155887E+02  0.20912836373E+03  0.21619869789E+03  0.47000000000E+01 0.  1.
         13    1    6    6    0    0 -0.22412955998E+02 -0.82663047598E+02  0.49809201802E+03  0.50540199688E+03  0.00000000000E+00 0. -1.
        -14    1    6    6    0    0  0.19164507484E+01  0.14588733435E+01  0.37761015288E+03  0.37761783413E+03  0.00000000000E+00 0.  1.
</event>
<event>
12    1  0.1348628E-002  0.1876973E+03  0.7818608E-02  0.1160555E+00
          1   -1    0    0  502    0  0.00000000000E+00  0.00000000000E+00  0.52523308039E+03  0.52523308039E+03  0.00000000000E+00 0. -1.
         -1   -1    0    0    0  501 -0.00000000000E+00 -0.00000000000E+00 -0.67078418036E+02  0.67078418036E+02  0.00000000000E+00 0.  1.
          6    2    1    2  502    0 -0.74394346751E+02  0.95034303302E+01  0.22766064762E+03  0.29529569968E+03  0.17246839062E+03 0.  0.
         24    2    3    3    0    0 -0.69115818422E+02  0.58146990291E+02  0.21293488904E+03  0.24398296488E+03  0.77642458407E+02 0.  0.
         -6    2    1    2    0  501  0.74394346751E+02 -0.95034303302E+01  0.23049401473E+03  0.29701579874E+03  0.17165680836E+03 0.  0.
        -24    2    5    5    0    0  0.15305083627E+01  0.18087335307E+02  0.39565820129E+02  0.90748848433E+02  0.79626661459E+02 0.  0.
          5    1    3    3  502    0 -0.52785283285E+01 -0.48643559961E+02  0.14725758578E+02  0.51312734800E+02  0.47000000000E+01 0. -1.
        -11    1    4    4    0    0  0.50604333319E+01  0.33165539034E+02  0.29996251406E+02  0.45003733882E+02  0.00000000000E+00 0.  1.
         12    1    4    4    0    0 -0.74176251754E+02  0.24981451258E+02  0.18293863763E+03  0.19897923100E+03  0.00000000000E+00 0. -1.
         -5    1    5    5    0  501  0.72863838388E+02 -0.27590765638E+02  0.19092819461E+03  0.20626695031E+03  0.47000000000E+01 0.  1.
         11    1    6    6    0    0 -0.16905854685E+02 -0.19445372455E+02  0.41543825907E+02  0.48885784268E+02  0.00000000000E+00 0. -1.
        -12    1    6    6    0    0  0.18436363048E+02  0.37532707763E+02 -0.19780057785E+01  0.41863064165E+02  0.00000000000E+00 0.  1.
</event>
<event>
12    1  0.1348628E-002  0.1814047E+03  0.7818608E-02  0.1166450E+00
         -3   -1    0    0    0  501 -0.00000000000E+00  0.00000000000E+00  0.11675160337E+04  0.11675160337E+04  0.00000000000E+00 0.  1.
          3   -1    0    0  502    0  0.00000000000E+00 -0.00000000000E+00 -0.28214331534E+02  0.28214331534E+02  0.00000000000E+00 0. -1.
          6    2    1    2  502    0  0.54505628683E+02  0.26542154438E+02  0.55494773398E+03  0.58422325575E+03  0.17226280965E+03 0.  0.
         24    2    3    3    0    0  0.68315815694E+02  0.76809732044E+02  0.39189800098E+03  0.41297823815E+03  0.80001227475E+02 0.  0.
         -6    2    1    2    0  501 -0.54505628683E+02 -0.26542154438E+02  0.58435396823E+03  0.61150710953E+03  0.16969394596E+03 0.  0.
        -24    2    5    5    0    0  0.18346757231E+02  0.18927639949E+02  0.38994404072E+03  0.39892234467E+03  0.79923858327E+02 0.  0.
          5    1    3    3  502    0 -0.13810187011E+02 -0.50267577606E+02  0.16304973300E+03  0.17124501761E+03  0.47000000000E+01 0. -1.
        -11    1    4    4    0    0  0.82742101457E+02  0.58691668527E+02  0.26051137346E+03  0.27956599044E+03  0.00000000000E+00 0.  1.
         12    1    4    4    0    0 -0.14426285763E+02  0.18118063517E+02  0.13138662753E+03  0.13341224771E+03  0.00000000000E+00 0. -1.
         -5    1    5    5    0  501 -0.72852385914E+02 -0.45469794387E+02  0.19440992751E+03  0.21258476486E+03  0.47000000000E+01 0.  1.
         13    1    6    6    0    0  0.38366203415E+02 -0.15712338172E+02  0.14819650303E+03  0.15388647324E+03  0.00000000000E+00 0. -1.
        -14    1    6    6    0    0 -0.20019446184E+02  0.34639978122E+02  0.24174753769E+03  0.24503587143E+03  0.00000000000E+00 0.  1.
</event>
<event>
12    1  0.1348628E-002  0.2777664E+03  0.7818608E-02  0.1096915E+00
          2   -1    0    0  502    0  0.00000000000E+00  0.00000000000E+00  0.45339707163E+03  0.45339707163E+03  0.00000000000E+00 0. -1.
         -2   -1    0    0    0  501 -0.00000000000E+00 -0.00000000000E+00 -0.20241332676E+03  0.20241332676E+03  0.00000000000E+00 0.  1.
          6    2    1    2  502    0  0.21624609975E+03 -0.35909576519E+02  0.25609260100E+03  0.37728286810E+03  0.16943160547E+03 0.  0.
         24    2    3    3    0    0  0.26518272457E+02 -0.42198952781E+02  0.35044761186E+02  0.85871745817E+02  0.60513230397E+02 0.  0.
         -6    2    1    2    0  501 -0.21624609975E+03  0.35909576519E+02 -0.51088561292E+01  0.27852753029E+03  0.17175450903E+03 0.  0.
        -24    2    5    5    0    0 -0.18853495362E+03  0.22445912944E+02  0.52205375317E+02  0.21328805617E+03  0.81958196338E+02 0.  0.
          5    1    3    3  502    0  0.18972782730E+03  0.62893762621E+01  0.22104783982E+03  0.29141112229E+03  0.47000000000E+01 0. -1.
        -11    1    4    4    0    0 -0.11919054134E+02 -0.24328887518E+02  0.33995941289E+02  0.43470480138E+02  0.00000000000E+00 0.  1.
         12    1    4    4    0    0  0.38437326591E+02 -0.17870065263E+02  0.10488198974E+01  0.42401265679E+02  0.00000000000E+00 0. -1.
         -5    1    5    5    0  501 -0.27711146130E+02  0.13463663575E+02 -0.57314231446E+02  0.65239474116E+02  0.47000000000E+01 0.  1.
         11    1    6    6    0    0 -0.99900994786E+02 -0.81846849437E+00 -0.13104131963E+02  0.10076009589E+03  0.00000000000E+00 0. -1.
        -12    1    6    6    0    0 -0.88633958839E+02  0.23264381438E+02  0.65309507280E+02  0.11252796028E+03  0.00000000000E+00 0.  1.
</event>
<event>
12    1  0.1348628E-002  0.2209360E+03  0.7818608E-02  0.1133187E+00
         -2   -1    0    0    0  501 -0.00000000000E+00  0.00000000000E+00  0.12101827771E+03  0.12101827771E+03  0.00000000000E+00 0. -1.
          2   -1    0    0  502    0  0.00000000000E+00 -0.00000000000E+00 -0.50188334578E+03  0.50188334578E+03  0.00000000000E+00 0.  1.
          6    2    1    2  502    0  0.17296179757E+02 -0.13674052508E+03 -0.53551691127E+02  0.22888514623E+03  0.17470975218E+03 0.  0.
         24    2    3    3    0    0  0.60884179057E+01 -0.14744531725E+03  0.57576053171E+01  0.16740434316E+03  0.78828127462E+02 0.  0.
         -6    2    1    2    0  501 -0.17296179757E+02  0.13674052508E+03 -0.32731337694E+03  0.39401647727E+03  0.17063941104E+03 0.  0.
        -24    2    5    5    0    0 -0.31078455715E+02  0.88874774900E+02 -0.32068756213E+03  0.34354794655E+03  0.79498949983E+02 0.  0.
          5    1    3    3  502    0  0.11207761852E+02  0.10704792168E+02 -0.59309296445E+02  0.61480803067E+02  0.47000000000E+01 0. -1.
        -11    1    4    4    0    0  0.32640350290E+02 -0.62536418679E+02 -0.22528423286E+02  0.74052184195E+02  0.00000000000E+00 0.  1.
         12    1    4    4    0    0 -0.26551932384E+02 -0.84908898571E+02  0.28286028603E+02  0.93352158968E+02  0.00000000000E+00 0. -1.
         -5    1    5    5    0  501  0.13782275958E+02  0.47865750182E+02 -0.66258148092E+01  0.50468530719E+02  0.47000000000E+01 0.  1.
         13    1    6    6    0    0 -0.29500149644E+02 -0.23818514467E+01 -0.52665914475E+02  0.60412172555E+02  0.00000000000E+00 0. -1.
        -14    1    6    6    0    0 -0.15783060716E+01  0.91256626347E+02 -0.26802164766E+03  0.28313577399E+03  0.00000000000E+00 0.  1.
</event>
<event>
12    1  0.1348628E-002  0.2007929E+03  0.7818608E-02  0.1149072E+00
          2   -1    0    0  502    0  0.00000000000E+00  0.00000000000E+00  0.22400902156E+03  0.22400902156E+03  0.00000000000E+00 0.  1.
         -2   -1    0    0    0  501 -0.00000000000E+00 -0.00000000000E+00 -0.18730108499E+03  0.18730108499E+03  0.00000000000E+00 0. -1.
          6    2    1    2  502    0 -0.38046488717E+02  0.94489758982E+02 -0.22383370617E+02  0.20085324352E+03  0.17165418812E+03 0.  0.
         24    2    3    3    0    0 -0.38973866114E+02 -0.29311127294E+00  0.27284619650E+02  0.93738110235E+02  0.80767163420E+02 0.  0.
         -6    2    1    2    0  501  0.38046488717E+02 -0.94489758982E+02  0.59091307186E+02  0.21045686303E+03  0.17442608393E+03 0.  0.
        -24    2    5    5    0    0 -0.38111762961E+02 -0.75149744895E+02  0.55688592960E+02  0.13166737193E+03  0.84469443060E+02 0.  0.
          5    1    3    3  502    0  0.92737739665E+00  0.94782870255E+02 -0.49667990267E+02  0.10711513329E+03  0.47000000000E+01 0. -1.
        -13    1    4    4    0    0 -0.73090098722E+01 -0.32640544444E+02  0.34325474247E+02  0.47927705445E+02  0.00000000000E+00 0.  1.
         14    1    4    4    0    0 -0.31664856242E+02  0.32347433171E+02 -0.70408545977E+01  0.45810404790E+02  0.00000000000E+00 0. -1.
         -5    1    5    5    0  501  0.76158251678E+02 -0.19340014087E+02  0.34027142266E+01  0.78789491100E+02  0.47000000000E+01 0.  1.
         11    1    6    6    0    0 -0.36065214727E+02 -0.10599156804E+02 -0.10663640282E+02  0.39073713189E+02  0.00000000000E+00 0. -1.
        -12    1    6    6    0    0 -0.20465482338E+01 -0.64550588092E+02  0.66352233242E+02  0.92593658740E+02  0.00000000000E+00 0.  1.
</event>
<event>
12    1  0.1348628E-002  0.1829114E+03  0.7818608E-02  0.1165015E+00
          2   -1    0    0  502    0  0.00000000000E+00  0.00000000000E+00  0.37718932563E+04  0.37718932563E+04  0.00000000000E+00 0.  1.
         -2   -1    0    0    0  501 -0.00000000000E+00 -0.00000000000E+00 -0.96899999448E+01  0.96899999448E+01  0.00000000000E+00 0. -1.
          6    2    1    2  502    0 -0.62808937647E+02 -0.12919851734E+02  0.13271990124E+04  0.13396878475E+04  0.17086376184E+03 0.  0.
         24    2    3    3    0    0 -0.51834255747E+02 -0.98656626966E+01  0.53185304516E+03  0.54424641706E+03  0.10272477534E+03 0.  0.
         -6    2    1    2    0  501  0.62808937647E+02  0.12919851734E+02  0.24350042440E+04  0.24418954087E+04  0.17174292930E+03 0.  0.
        -24    2    5    5    0    0 -0.37650763906E+01  0.40328696383E+02  0.10591996768E+04  0.10642003622E+04  0.94751654666E+02 0.  0.
          5    1    3    3  502    0 -0.10974681900E+02 -0.30541890377E+01  0.79534596721E+03  0.79544143045E+03  0.47000000000E+01 0. -1.
        -11    1    4    4    0    0 -0.74146939982E+02  0.10857993298E+02  0.46208687247E+03  0.46812385373E+03  0.00000000000E+00 0.  1.
         12    1    4    4    0    0  0.22312684235E+02 -0.20723655995E+02  0.69766172690E+02  0.76122563326E+02  0.00000000000E+00 0. -1.
         -5    1    5    5    0  501  0.66574014037E+02 -0.27408844649E+02  0.13758045672E+04  0.13776950466E+04  0.47000000000E+01 0.  1.
         13    1    6    6    0    0  0.33667742094E+02 -0.94021547012E+01  0.22694784056E+03  0.22962412701E+03  0.00000000000E+00 0. -1.
        -14    1    6    6    0    0 -0.37432818485E+02  0.49730851085E+02  0.83225183620E+03  0.83457623517E+03  0.00000000000E+00 0.  1.
</event>
<event>
12    1  0.1348628E-002  0.1911013E+03  0.7818608E-02  0.1157472E+00
          2   -1    0    0  502    0  0.00000000000E+00  0.00000000000E+00  0.20360042171E+04  0.20360042171E+04  0.00000000000E+00 0.  1.
         -2   -1    0    0    0  501 -0.00000000000E+00 -0.00000000000E+00 -0.18358281560E+02  0.18358281560E+02  0.00000000000E+00 0. -1.
          6    2    1    2  502    0 -0.67110133186E+02  0.46530883682E+02  0.11696406886E+04  0.11853160553E+04  0.17391353390E+03 0.  0.
         24    2    3    3    0    0 -0.11421928479E+02  0.17477716007E+02  0.10149763967E+04  0.10183178640E+04  0.79738668432E+02 0.  0.
         -6    2    1    2    0  501  0.67110133186E+02 -0.46530883682E+02  0.84800524694E+03  0.86904644341E+03  0.17163894915E+03 0.  0.
        -24    2    5    5    0    0 -0.22310844531E+02 -0.53822387456E+02  0.48533048743E+03  0.49540979041E+03  0.80563982228E+02 0.  0.
          5    1    3    3  502    0 -0.55688204707E+02  0.29053167675E+02  0.15466429193E+03  0.16699819129E+03  0.47000000000E+01 0. -1.
        -11    1    4    4    0    0 -0.42744898535E+02  0.96355206668E+01  0.37942188883E+03  0.38194363371E+03  0.00000000000E+00 0.  1.
         12    1    4    4    0    0  0.31322970056E+02  0.78421953404E+01  0.63555450788E+03  0.63637423028E+03  0.00000000000E+00 0. -1.
         -5    1    5    5    0  501  0.89420977717E+02  0.72915037741E+01  0.36267475951E+03  0.37363665300E+03  0.47000000000E+01 0.  1.
         13    1    6    6    0    0 -0.21511291346E+02 -0.46449692874E+02  0.12597753784E+03  0.13598032822E+03  0.00000000000E+00 0. -1.
        -14    1    6    6    0    0 -0.79955318588E+00 -0.73726945820E+01  0.35935294959E+03  0.35942946219E+03  0.00000000000E+00 0.  1.
</event>
<event>
12    1  0.1348628E-002  0.2842376E+03  0.7818608E-02  0.1093397E+00
         -1   -1    0    0    0  501 -0.00000000000E+00  0.00000000000E+00  0.23433996991E+03  0.23433996991E+03  0.00000000000E+00 0. -1.
          1   -1    0    0  502    0  0.00000000000E+00 -0.00000000000E+00 -0.34894582909E+03  0.34894582909E+03  0.00000000000E+00 0.  1.
          6    2    1    2  502    0 -0.18218707504E+02  0.22681507252E+03 -0.89401667560E+02  0.29876856378E+03  0.17173525588E+03 0.  0.
         24    2    3    3    0    0 -0.32097794194E+02  0.11084024495E+03 -0.11190701456E+03  0.17972499897E+03  0.80386983125E+02 0.  0.
         -6    2    1    2    0  501  0.18218707504E+02 -0.22681507252E+03 -0.25204191620E+02  0.28451723523E+03  0.16893136902E+03 0.  0.
        -24    2    5    5    0    0  0.70863997739E+02 -0.14563768906E+03  0.24180509388E+02  0.17578714342E+03  0.63909155126E+02 0.  0.
          5    1    3    3  502    0  0.13879086690E+02  0.11597482757E+03  0.22505347000E+02  0.11904356480E+03  0.47000000000E+01 0. -1.
        -13    1    4    4    0    0 -0.45216309751E+02  0.65632361188E+02 -0.29814953823E+02  0.85094376866E+02  0.00000000000E+00 0.  1.
         14    1    4    4    0    0  0.13118515558E+02  0.45207883760E+02 -0.82092060737E+02  0.94630622108E+02  0.00000000000E+00 0. -1.
         -5    1    5    5    0  501 -0.52645290236E+02 -0.81177383461E+02 -0.49384701008E+02  0.10873009180E+03  0.47000000000E+01 0.  1.
         11    1    6    6    0    0  0.59381030572E+02 -0.12799118670E+03 -0.33427370760E+01  0.14113477444E+03  0.00000000000E+00 0. -1.
        -12    1    6    6    0    0  0.11482967167E+02 -0.17646502362E+02  0.27523246464E+02  0.34652368988E+02  0.00000000000E+00 0.  1.
</event>
<event>
12    1  0.1348628E-002  0.1936198E+03  0.7818608E-02  0.1155236E+00
         -1   -1    0    0    0  501 -0.00000000000E+00  0.00000000000E+00  0.16836662058E+03  0.16836662058E+03  0.00000000000E+00 0. -1.
          1   -1    0    0  502    0  0.00000000000E+00 -0.00000000000E+00 -0.23426496041E+03  0.23426496041E+03  0.00000000000E+00 0.  1.
          6    2    1    2  502    0 -0.37840225703E+02  0.80767691595E+02  0.11821370236E+02  0.19419514162E+03  0.17209504801E+03 0.  0.
         24    2    3    3    0    0 -0.55811505081E+02 -0.12918130225E+02  0.10952935618E+02  0.98681560016E+02  0.79600761934E+02 0.  0.
         -6    2    1    2    0  501  0.37840225703E+02 -0.80767691595E+02 -0.77719710070E+02  0.20843643937E+03  0.17161029467E+03 0.  0.
        -24    2    5    5    0    0  0.18752156642E+02 -0.60173205891E+02  0.19990096265E+02  0.10666324312E+03  0.83695790799E+02 0.  0.
          5    1    3    3  502    0  0.17971279378E+02  0.93685821820E+02  0.86843461788E+00  0.95513581607E+02  0.47000000000E+01 0. -1.
        -11    1    4    4    0    0  0.47477553452E+01  0.19094244039E+02 -0.15707477455E+02  0.25176500635E+02  0.00000000000E+00 0.  1.
         12    1    4    4    0    0 -0.60559260426E+02 -0.32012374264E+02  0.26660413073E+02  0.73505059381E+02  0.00000000000E+00 0. -1.
         -5    1    5    5    0  501  0.19088069061E+02 -0.20594485705E+02 -0.97709806335E+02  0.10177319626E+03  0.47000000000E+01 0.  1.
         11    1    6    6    0    0 -0.20039605208E+02 -0.21407697242E+02  0.38845731200E+02  0.48670998660E+02  0.00000000000E+00 0. -1.
        -12    1    6    6    0    0  0.38791761850E+02 -0.38765508649E+02 -0.18855634935E+02  0.57992244456E+02  0.00000000000E+00 0.  1.
</event>
<event>
12    1  0.1348628E-002  0.2129687E+03  0.7818608E-02  0.1139236E+00
          2   -1    0    0  502    0  0.00000000000E+00  0.00000000000E+00  0.89466654697E+03  0.89466654697E+03  0.00000000000E+00 0.  1.
         -2   -1    0    0    0  501 -0.00000000000E+00 -0.00000000000E+00 -0.59552341878E+02  0.59552341878E+02  0.00000000000E+00 0. -1.
          6    2    1    2  502    0  0.12747368424E+03 -0.22192898732E+02  0.23651121793E+03  0.31943938567E+03  0.17135314407E+03 0.  0.
         24    2    3    3    0    0  0.44966330999E+02 -0.47983535139E+02  0.50966041761E+02  0.11469143656E+03  0.78944269197E+02 0.  0.
         -6    2    1    2    0  501 -0.12747368424E+03  0.22192898732E+02  0.59860298716E+03  0.63477950318E+03  0.16696531523E+03 0.  0.
        -24    2    5    5    0    0 -0.76269729677E+02 -0.51895809143E+02  0.32610665488E+03  0.34774758387E+03  0.77926792934E+02 0.  0.
          5    1    3    3  502    0  0.82507353241E+02  0.25790636407E+02  0.18554517617E+03  0.20474794911E+03  0.47000000000E+01 0. -1.
        -11    1    4    4    0    0  0.65889384446E+02 -0.39195924207E+02  0.50851055895E+02  0.91997615963E+02  0.00000000000E+00 0.  1.
         12    1    4    4    0    0 -0.20923053448E+02 -0.87876109325E+01  0.11498586593E+00  0.22693820595E+02  0.00000000000E+00 0. -1.
         -5    1    5    5    0  501 -0.51203954562E+02  0.74088707875E+02  0.27249633229E+03  0.28703191932E+03  0.47000000000E+01 0.  1.
         13    1    6    6    0    0 -0.16077279830E+01 -0.45146400681E+02  0.10600964197E+03  0.11523379050E+03  0.00000000000E+00 0. -1.
        -14    1    6    6    0    0 -0.74662001694E+02 -0.67494084624E+01  0.22009701291E+03  0.23251379336E+03  0.00000000000E+00 0.  1.
</event>
<event>
12    1  0.1348628E-002  0.1838890E+03  0.7818608E-02  0.1164091E+00
         -1   -1    0    0    0  501 -0.00000000000E+00  0.00000000000E+00  0.10889994316E+03  0.10889994316E+03  0.00000000000E+00 0.  1.
          1   -1    0    0  502    0  0.00000000000E+00 -0.00000000000E+00 -0.31515694957E+03  0.31515694957E+03  0.00000000000E+00 0. -1.
          6    2    1    2  502    0 -0.61383512432E+02  0.23557765657E+02 -0.77167679457E+02  0.19903124601E+03  0.17127662483E+03 0.  0.
         24    2    3    3    0    0 -0.13173199557E+02  0.53916013379E+02 -0.97841299539E+02  0.13824188807E+03  0.80358136085E+02 0.  0.
         -6    2    1    2    0  501  0.61383512432E+02 -0.23557765657E+02 -0.12908932696E+03  0.22502564672E+03  0.17219054395E+03 0.  0.
        -24    2    5    5    0    0  0.79236154396E+02 -0.51811786458E+02 -0.14210823368E+03  0.18885122967E+03  0.80667264044E+02 0.  0.
          5    1    3    3  502    0 -0.48210312874E+02 -0.30358247722E+02  0.20673620082E+02  0.60789357946E+02  0.47000000000E+01 0. -1.
        -13    1    4    4    0    0 -0.22221058900E+02 -0.15664711353E+02 -0.32386552083E+02  0.42285309461E+02  0.00000000000E+00 0.  1.
         14    1    4    4    0    0  0.90478593427E+01  0.69580724732E+02 -0.65454747456E+02  0.95956578605E+02  0.00000000000E+00 0. -1.
         -5    1    5    5    0  501 -0.17852641964E+02  0.28254020801E+02  0.13018906721E+02  0.36174417047E+02  0.47000000000E+01 0.  1.
         13    1    6    6    0    0  0.57475940136E+02  0.94982118706E+01 -0.79519839160E+02  0.98575374933E+02  0.00000000000E+00 0. -1.
        -14    1    6    6    0    0  0.21760214260E+02 -0.61309998328E+02 -0.62588394523E+02  0.90275854738E+02  0.00000000000E+00 0.  1.
</event>
<event>
12    1  0.1348628E-002  0.3458273E+03  0.7818608E-02  0.1064341E+00
         -1   -1    0    0    0  501 -0.00000000000E+00  0.00000000000E+00  0.30173643229E+03  0.30173643229E+03  0.00000000000E+00 0.  1.
          1   -1    0    0  502    0  0.00000000000E+00 -0.00000000000E+00 -0.54267641794E+03  0.54267641794E+03  0.00000000000E+00 0. -1.
          6    2    1    2  502    0  0.19498125842E+03  0.22800356105E+03 -0.33970513166E+03  0.48477895086E+03  0.17206899701E+03 0.  0.
         24    2    3    3    0    0  0.51819519818E+02  0.15421392501E+03 -0.14358113956E+03  0.23095439715E+03  0.79102418583E+02 0.  0.
         -6    2    1    2    0  501 -0.19498125842E+03 -0.22800356105E+03  0.98765146014E+02  0.35963389937E+03  0.17198451244E+03 0.  0.
        -24    2    5    5    0    0 -0.15696117264E+03 -0.23582758406E+03  0.51868401585E+02  0.29857542824E+03  0.78774971556E+02 0.  0.
          5    1    3    3  502    0  0.14316173860E+03  0.73789636042E+02 -0.19612399210E+03  0.25382455371E+03  0.47000000000E+01 0. -1.
        -13    1    4    4    0    0  0.17424961739E+02  0.21304622961E+02 -0.69945699973E+02  0.75165931085E+02  0.00000000000E+00 0.  1.
         14    1    4    4    0    0  0.34394558079E+02  0.13290930205E+03 -0.73635439585E+02  0.15578846607E+03  0.00000000000E+00 0. -1.
         -5    1    5    5    0  501 -0.38020085774E+02  0.78240230087E+01  0.46896744430E+02  0.61058471127E+02  0.47000000000E+01 0.  1.
         11    1    6    6    0    0 -0.40680726533E+02 -0.77892739794E+02 -0.19241802579E+02  0.89958031272E+02  0.00000000000E+00 0. -1.
        -12    1    6    6    0    0 -0.11628044611E+03 -0.15793484427E+03  0.71110204163E+02  0.20861739697E+03  0.00000000000E+00 0.  1.
</event>
<event>
12    1  0.1348628E-002  0.2372159E+03  0.7818608E-02  0.1121661E+00
          2   -1    0    0  502    0  0.00000000000E+00  0.00000000000E+00  0.15236145965E+04  0.15236145965E+04  0.00000000000E+00 0. -1.
         -2   -1    0    0    0  501 -0.00000000000E+00 -0.00000000000E+00 -0.51734645288E+02  0.51734645288E+02  0.00000000000E+00 0.  1.
          6    2    1    2  502    0 -0.15050912507E+03 -0.69419606639E+02  0.11570547688E+04  0.11811024075E+04  0.16957323058E+03 0.  0.
         24    2    3    3    0    0 -0.14791880195E+03 -0.89230383233E+02  0.11353500096E+04  0.11512299584E+04  0.80428475120E+02 0.  0.
         -6    2    1    2    0  501  0.15050912507E+03  0.69419606639E+02  0.31482518241E+03  0.39424683426E+03  0.16983401407E+03 0.  0.
        -24    2    5    5    0    0  0.97198956905E+02  0.91744223495E+02  0.13519038066E+03  0.20548477625E+03  0.77993041224E+02 0.  0.
          5    1    3    3  502    0 -0.25903231153E+01  0.19810776593E+02  0.21704759203E+02  0.29872449098E+02  0.47000000000E+01 0. -1.
        -11    1    4    4    0    0 -0.22106024602E+02 -0.56325627215E+02  0.36230126647E+03  0.36731928930E+03  0.00000000000E+00 0.  1.
         12    1    4    4    0    0 -0.12581277735E+03 -0.32904756017E+02  0.77304874310E+03  0.78391066909E+03  0.00000000000E+00 0. -1.
         -5    1    5    5    0  501  0.53310168163E+02 -0.22324616856E+02  0.17963480174E+03  0.18876205801E+03  0.47000000000E+01 0.  1.
         11    1    6    6    0    0 -0.12277239651E+02  0.16648011991E+02  0.28245290247E+02  0.35009760608E+02  0.00000000000E+00 0. -1.
        -12    1    6    6    0    0  0.10947619656E+03  0.75096211503E+02  0.10694509042E+03  0.17047501564E+03  0.00000000000E+00 0.  1.
</event>
<event>
12    1  0.1348628E-002  0.3202247E+03  0.7818608E-02  0.1075546E+00
         -1   -1    0    0    0  501 -0.00000000000E+00  0.00000000000E+00  0.18324830192E+03  0.18324830192E+03  0.00000000000E+00 0.  1.
          1   -1    0    0  502    0  0.00000000000E+00 -0.00000000000E+00 -0.57534293222E+03  0.57534293222E+03  0.00000000000E+00 0. -1.
          6    2    1    2  502    0 -0.26839211137E+03  0.56741690461E+02 -0.13526817053E+03  0.35053574777E+03  0.17124218997E+03 0.  0.
         24    2    3    3    0    0 -0.14932845781E+03  0.76888001374E+01 -0.14209156496E+03  0.22149703901E+03  0.80702041465E+02 0.  0.
         -6    2    1    2    0  501  0.26839211137E+03 -0.56741690461E+02 -0.25682645978E+03  0.40805548636E+03  0.15904560549E+03 0.  0.
        -24    2    5    5    0    0  0.23319558406E+03 -0.75400688777E+02 -0.25915175629E+03  0.36787525793E+03  0.90039593032E+02 0.  0.
          5    1    3    3  502    0 -0.11906365356E+03  0.49052890324E+02  0.68233944295E+01  0.12903870877E+03  0.47000000000E+01 0. -1.
        -13    1    4    4    0    0 -0.77216391424E+02 -0.36134761768E+01 -0.12428637827E+03  0.14636438138E+03  0.00000000000E+00 0.  1.
         14    1    4    4    0    0 -0.72112066389E+02  0.11302276314E+02 -0.17805186690E+02  0.75132657626E+02  0.00000000000E+00 0. -1.
         -5    1    5    5    0  501  0.35196527318E+02  0.18658998316E+02  0.23252965135E+01  0.40180228437E+02  0.47000000000E+01 0.  1.
         11    1    6    6    0    0  0.21056197333E+02 -0.37394223986E+02 -0.64468370187E+02  0.77445866179E+02  0.00000000000E+00 0. -1.
        -12    1    6    6    0    0  0.21213938672E+03 -0.38006464791E+02 -0.19468338610E+03  0.29042939175E+03  0.00000000000E+00 0.  1.
</event>
<event>
12    1  0.1348628E-002  0.1805836E+03  0.7818608E-02  0.1167239E+00
          1   -1    0    0  502    0  0.00000000000E+00  0.00000000000E+00  0.84808632483E+03  0.84808632483E+03  0.00000000000E+00 0.  1.
         -1   -1    0    0    0  501 -0.00000000000E+00 -0.00000000000E+00 -0.50923407096E+02  0.50923407096E+02  0.00000000000E+00 0. -1.
          6    2    1    2  502    0 -0.40275834988E+02 -0.42735623360E+02  0.61932813974E+03  0.64483573060E+03  0.16969766762E+03 0.  0.
         24    2    3    3    0    0 -0.66393876416E+02 -0.81624904098E+02  0.46684884701E+03  0.48525329749E+03  0.80325244963E+02 0.  0.
         -6    2    1    2    0  501  0.40275834988E+02  0.42735623360E+02  0.17783477800E+03  0.25417400133E+03  0.17184509972E+03 0.  0.
        -24    2    5    5    0    0 -0.10840247330E+02 -0.29700291892E+02  0.52012294605E+02  0.10018308271E+03  0.79572312842E+02 0.  0.
          5    1    3    3  502    0  0.26118041428E+02  0.38889280738E+02  0.15247929273E+03  0.15958243310E+03  0.47000000000E+01 0. -1.
        -13    1    4    4    0    0  0.40533237558E+00 -0.45973566684E+02  0.27825016993E+03  0.28202285403E+03  0.00000000000E+00 0.  1.
         14    1    4    4    0    0 -0.66799208792E+02 -0.35651337414E+02  0.18859867708E+03  0.20323044347E+03  0.00000000000E+00 0. -1.
         -5    1    5    5    0  501  0.51116082317E+02  0.72435915252E+02  0.12582248339E+03  0.15399091862E+03  0.47000000000E+01 0.  1.
         13    1    6    6    0    0 -0.39862090825E+02 -0.10428467417E+02  0.50684980208E+02  0.65320030896E+02  0.00000000000E+00 0. -1.
        -14    1    6    6    0    0  0.29021843495E+02 -0.19271824475E+02  0.13273143978E+01  0.34863051817E+02  0.00000000000E+00 0.  1.
</event>
<event>
12    1  0.1348628E-002  0.2234457E+03  0.7818608E-02  0.1131340E+00
         -2   -1    0    0    0  501 -0.00000000000E+00  0.00000000000E+00  0.52985028645E+02  0.52985028645E+02  0.00000000000E+00 0. -1.
          2   -1    0    0  502    0  0.00000000000E+00 -0.00000000000E+00 -0.10309533935E+04  0.10309533935E+04  0.00000000000E+00 0.  1.
          6    2    1    2  502    0 -0.13640127402E+03 -0.44054484311E+02 -0.32781957198E+03  0.39609431399E+03  0.16993801417E+03 0.  0.
         24    2    3    3    0    0 -0.29953169840E+02 -0.27900072704E+02 -0.24274486119E+03  0.25879187296E+03  0.79828312235E+02 0.  0.
         -6    2    1    2    0  501  0.13640127402E+03  0.44054484311E+02 -0.65014879288E+03  0.68784410817E+03  0.17288712823E+03 0.  0.
        -24    2    5    5    0    0  0.21263858344E+02  0.33282581821E+02 -0.14942254857E+03  0.17391656452E+03  0.79749554666E+02 0.  0.
          5    1    3    3  502    0 -0.10644810418E+03 -0.16154411607E+02 -0.85074710790E+02  0.13730244103E+03  0.47000000000E+01 0. -1.
        -13    1    4    4    0    0 -0.13454531760E+01  0.26134461718E+02 -0.47935645104E+02  0.54613610072E+02  0.00000000000E+00 0.  1.
         14    1    4    4    0    0 -0.28607716664E+02 -0.54034534422E+02 -0.19480921609E+03  0.20417826289E+03  0.00000000000E+00 0. -1.
         -5    1    5    5    0  501  0.11513741567E+03  0.10771902490E+02 -0.50072624432E+03  0.51392754365E+03  0.47000000000E+01 0.  1.
         11    1    6    6    0    0  0.15224364442E+02  0.59620692399E+02 -0.11148614785E+03  0.12734036829E+03  0.00000000000E+00 0. -1.
        -12    1    6    6    0    0  0.60394939026E+01 -0.26338110578E+02 -0.37936400723E+02  0.46576196230E+02  0.00000000000E+00 0.  1.
</event>
<event>
12    1  0.1348628E-002  0.1806416E+03  0.7818608E-02  0.1167184E+00
         -2   -1    0    0    0  501 -0.00000000000E+00  0.00000000000E+00  0.13666194104E+02  0.13666194104E+02  0.00000000000E+00 0. -1.
          2   -1    0    0  502    0  0.00000000000E+00 -0.00000000000E+00 -0.24181540966E+04  0.24181540966E+04  0.00000000000E+00 0.  1.
          6    2    1    2  502    0 -0.47306314842E+02 -0.13933423686E+02 -0.10531885158E+04  0.10682271409E+04  0.17167162568E+03 0.  0.
         24    2    3    3    0    0 -0.64479240382E+02 -0.41027278816E+02 -0.99675601550E+03  0.10031448588E+04  0.83284111533E+02 0.  0.
         -6    2    1    2    0  501  0.47306314842E+02  0.13933423686E+02 -0.13512993867E+04  0.13635931498E+04  0.17590968688E+03 0.  0.
        -24    2    5    5    0    0  0.54019391645E+02  0.74009265130E+02 -0.94068824301E+03  0.94852957220E+03  0.80115621377E+02 0.  0.
          5    1    3    3  502    0  0.17172925540E+02  0.27093855130E+02 -0.56432500328E+02  0.65082282157E+02  0.47000000000E+01 0. -1.
        -13    1    4    4    0    0 -0.29000073358E+02  0.19706129831E+02 -0.52553380234E+03  0.52670211050E+03  0.00000000000E+00 0.  1.
         14    1    4    4    0    0 -0.35479167024E+02 -0.60733408647E+02 -0.47122221316E+03  0.47644274829E+03  0.00000000000E+00 0. -1.
         -5    1    5    5    0  501 -0.67130768032E+01 -0.60075841444E+02 -0.41061114370E+03  0.41506357761E+03  0.47000000000E+01 0.  1.
         13    1    6    6    0    0  0.39216602888E+02  0.34707109509E+02 -0.20297919278E+03  0.20962604345E+03  0.00000000000E+00 0. -1.
        -14    1    6    6    0    0  0.14802788757E+02  0.39302155621E+02 -0.73770905024E+03  0.73890352875E+03  0.00000000000E+00 0.  1.
</event>
<event>
12    1  0.1348628E-002  0.1906020E+03  0.7818608E-02  0.1157919E+00
         -2   -1    0    0    0  501 -0.00000000000E+00  0.00000000000E+00  0.32006927390E+02  0.32006927390E+02  0.00000000000E+00 0. -1.
          2   -1    0    0  502    0  0.00000000000E+00 -0.00000000000E+00 -0.14862819885E+04  0.14862819885E+04  0.00000000000E+00 0.  1.
          6    2    1    2  502    0  0.60882889854E+02  0.56536272143E+02 -0.10950306894E+04  0.11114277239E+04  0.17110318067E+03 0.  0.
         24    2    3    3    0    0  0.80476176948E+02  0.92248155187E+02 -0.81046999786E+03  0.82392796277E+03  0.83722955181E+02 0.  0.
         -6    2    1    2    0  501 -0.60882889854E+02 -0.56536272143E+02 -0.35924437171E+03  0.40686119196E+03  0.17197800609E+03 0.  0.
        -24    2    5    5    0    0 -0.11219363669E+01  0.25960730601E+02 -0.12770657490E+03  0.15386125446E+03  0.81786906523E+02 0.  0.
          5    1    3    3  502    0 -0.19593287094E+02 -0.35711883044E+02 -0.28456069153E+03  0.28749976113E+03  0.47000000000E+01 0. -1.
        -11    1    4    4    0    0  0.24395684451E+02  0.64325383645E+02 -0.61076222453E+03  0.61462460031E+03  0.00000000000E+00 0.  1.
         12    1    4    4    0    0  0.56080492497E+02  0.27922771542E+02 -0.19970777333E+03  0.20930336246E+03  0.00000000000E+00 0. -1.
         -5    1    5    5    0  501 -0.59760953487E+02 -0.82497002744E+02 -0.23153779681E+03  0.25299993750E+03  0.47000000000E+01 0.  1.
         11    1    6    6    0    0  0.22895536225E+02  0.47445269476E+02 -0.89765979906E+02  0.10408261297E+03  0.00000000000E+00 0. -1.
        -12    1    6    6    0    0 -0.24017472592E+02 -0.21484538875E+02 -0.37940594990E+02  0.49778641490E+02  0.00000000000E+00 0.  1.
</event>
<event>
12    1  0.1348628E-002  0.2295007E+03  0.7818608E-02  0.1126992E+00
          2   -1    0    0  502    0  0.00000000000E+00  0.00000000000E+00  0.86032121512E+03  0.86032121512E+03  0.00000000000E+00 0. -1.
         -2   -1    0    0    0  501 -0.00000000000E+00 -0.00000000000E+00 -0.88518293699E+02  0.88518293699E+02  0.00000000000E+00 0.  1.
          6    2    1    2  502    0 -0.13272544212E+03  0.75286912750E+02  0.12289732279E+03  0.26067254912E+03  0.17193680146E+03 0.  0.
         24    2    3    3    0    0 -0.91105471084E+02  0.10418408905E+03  0.41145444183E+02  0.16437754175E+03  0.78565242847E+02 0.  0.
         -6    2    1    2    0  501  0.13272544212E+03 -0.75286912750E+02  0.64890559863E+03  0.68816695970E+03  0.17091262760E+03 0.  0.
        -24    2    5    5    0    0  0.32848621418E+02 -0.91546259664E+02  0.41172905360E+03  0.43026281241E+03  0.78393396276E+02 0.  0.
          5    1    3    3  502    0 -0.41619971039E+02 -0.28897176298E+02  0.81751878610E+02  0.96295007366E+02  0.47000000000E+01 0. -1.
        -11    1    4    4    0    0 -0.22918167914E+02  0.78527428075E+02  0.23492528505E+01  0.81837145414E+02  0.00000000000E+00 0.  1.
         12    1    4    4    0    0 -0.68187303170E+02  0.25656660973E+02  0.38796191332E+02  0.82540396339E+02  0.00000000000E+00 0. -1.
         -5    1    5    5    0  501  0.99876820706E+02  0.16259346914E+02  0.23717654503E+03  0.25790414729E+03  0.47000000000E+01 0.  1.
         11    1    6    6    0    0  0.54804474991E+02 -0.52054911837E+02  0.30764212526E+03  0.31679160589E+03  0.00000000000E+00 0. -1.
        -12    1    6    6    0    0 -0.21955853574E+02 -0.39491347827E+02  0.10408692833E+03  0.11347120652E+03  0.00000000000E+00 0.  1.
</event>
<event>
12    1  0.1348628E-002  0.1796673E+03  0.7818608E-02  0.1168125E+00
          1   -1    0    0  502    0  0.00000000000E+00  0.00000000000E+00  0.33461871733E+03  0.33461871733E+03  0.00000000000E+00 0.  1.
         -1   -1    0    0    0  501 -0.00000000000E+00 -0.00000000000E+00 -0.96742557817E+02  0.96742557817E+02  0.00000000000E+00 0. -1.
          6    2    1    2  502    0  0.46006928012E+02  0.28775309697E+02  0.13052276812E+03  0.22221688334E+03  0.17146280754E+03 0.  0.
         24    2    3    3    0    0  0.86202382418E+02  0.81467289044E+01  0.13231002878E+03  0.17675814159E+03  0.78995423774E+02 0.  0.
         -6    2    1    2    0  501 -0.46006928012E+02 -0.28775309697E+02  0.10735339139E+03  0.20914439181E+03  0.17109053190E+03 0.  0.
        -24    2    5    5    0    0 -0.12012420283E+02 -0.49927607268E+02  0.23225857791E+01  0.96642807923E+02  0.81837483527E+02 0.  0.
          5    1    3    3  502    0 -0.40195454406E+02  0.20628580793E+02 -0.17872606629E+01  0.45458741746E+02  0.47000000000E+01 0. -1.
        -13    1    4    4    0    0  0.16133313770E+02 -0.10564629789E+02  0.91561289470E+02  0.93570107113E+02  0.00000000000E+00 0.  1.
         14    1    4    4    0    0  0.70069068648E+02  0.18711358693E+02  0.40748739312E+02  0.83188034481E+02  0.00000000000E+00 0. -1.
         -5    1    5    5    0  501 -0.33994507729E+02  0.21152297570E+02  0.10503080561E+03  0.11250158388E+03  0.47000000000E+01 0.  1.
         13    1    6    6    0    0  0.17270699509E+02 -0.26160656227E+02 -0.32611825176E+02  0.45234811120E+02  0.00000000000E+00 0. -1.
        -14    1    6    6    0    0 -0.29283119792E+02 -0.23766951041E+02  0.34934410955E+02  0.51407996803E+02  0.00000000000E+00 0.  1.
</event>
<event>
12    1  0.1348628E-002  0.1910557E+03  0.7818608E-02  0.1157513E+00
         -2   -1    0    0    0  501 -0.00000000000E+00  0.00000000000E+00  0.30693821511E+02  0.30693821511E+02  0.00000000000E+00 0. -1.
          2   -1    0    0  502    0  0.00000000000E+00 -0.00000000000E+00 -0.17532374751E+04  0.17532374751E+04  0.00000000000E+00 0.  1.
          6    2    1    2  502    0 -0.99474669999E+00 -0.78786178369E+02 -0.13743496755E+04  0.13878980566E+04  0.17667974818E+03 0.  0.
         24    2    3    3    0    0  0.48063562183E+02 -0.69004103274E+02 -0.59544690818E+03  0.60737642482E+03  0.85307846589E+02 0.  0.
         -6    2    1    2    0  501  0.99474669999E+00  0.78786178369E+02 -0.34819397811E+03  0.39603324008E+03  0.17144978691E+03 0.  0.
        -24    2    5    5    0    0 -0.14571378361E+02  0.11913450920E+03 -0.28183442618E+03  0.31668607767E+03  0.80337237066E+02 0.  0.
          5    1    3    3  502    0 -0.49058308883E+02 -0.97820750948E+01 -0.77890276733E+03  0.78052163174E+03  0.47000000000E+01 0. -1.
        -13    1    4    4    0    0  0.18445175931E+02 -0.73760472927E+02 -0.52945536737E+03  0.53488673372E+03  0.00000000000E+00 0.  1.
         14    1    4    4    0    0  0.29618386251E+02  0.47563696528E+01 -0.65991540814E+02  0.72489691098E+02  0.00000000000E+00 0. -1.
         -5    1    5    5    0  501  0.15566125061E+02 -0.40348330828E+02 -0.66359551929E+02  0.79347162409E+02  0.47000000000E+01 0.  1.
         11    1    6    6    0    0 -0.42768976784E+02  0.91580226880E+02 -0.16626438771E+03  0.19457638590E+03  0.00000000000E+00 0. -1.
        -12    1    6    6    0    0  0.28197598423E+02  0.27554282317E+02 -0.11557003847E+03  0.12210969177E+03  0.00000000000E+00 0.  1.
</event>
<event>
12    1  0.1348628E-002  0.1882158E+03  0.7818608E-02  0.1160080E+00
         -1   -1    0    0    0  501 -0.00000000000E+00  0.00000000000E+00  0.37238253081E+02  0.37238253081E+02  0.00000000000E+00 0.  1.
          1   -1    0    0  502    0  0.00000000000E+00 -0.00000000000E+00 -0.95570324915E+03  0.95570324915E+03  0.00000000000E+00 0. -1.
          6    2    1    2  502    0 -0.28114597161E+02 -0.69127007694E+02 -0.49541590324E+03  0.53035411474E+03  0.17398159694E+03 0.  0.
         24    2    3    3    0    0 -0.45049633403E+02 -0.10965027675E+03 -0.38762036768E+03  0.41385991628E+03  0.83533395745E+02 0.  0.
         -6    2    1    2    0  501  0.28114597161E+02  0.69127007694E+02 -0.42304909283E+03  0.46258738749E+03  0.17160297886E+03 0.  0.
        -24    2    5    5    0    0  0.13211573851E+02  0.99146860975E+02 -0.20712309049E+03  0.24402522200E+03  0.81508825505E+02 0.  0.
          5    1    3    3  502    0  0.16935036242E+02  0.40523269058E+02 -0.10779553556E+03  0.11649419845E+03  0.47000000000E+01 0. -1.
        -11    1    4    4    0    0 -0.56692847507E+02 -0.29575826774E+02 -0.16154332483E+03  0.17373846518E+03  0.00000000000E+00 0.  1.
         12    1    4    4    0    0  0.11643214104E+02 -0.80074449978E+02 -0.22607704286E+03  0.24012145110E+03  0.00000000000E+00 0. -1.
         -5    1    5    5    0  501  0.14903023310E+02 -0.30019853281E+02 -0.21592600235E+03  0.21856216549E+03  0.47000000000E+01 0.  1.
         13    1    6    6    0    0  0.18751359617E+02  0.53212880975E+02 -0.18369636002E+03  0.19216549345E+03  0.00000000000E+00 0. -1.
        -14    1    6    6    0    0 -0.55397857655E+01  0.45933980000E+02 -0.23426730470E+02  0.51859728552E+02  0.00000000000E+00 0.  1.
</event>
<event>
12    1  0.1348628E-002  0.1751351E+03  0.7818608E-02  0.1172596E+00
         -1   -1    0    0    0  501 -0.00000000000E+00  0.00000000000E+00  0.33265970832E+02  0.33265970832E+02  0.00000000000E+00 0.  1.
          1   -1    0    0  502    0  0.00000000000E+00 -0.00000000000E+00 -0.94883983735E+03  0.94883983735E+03  0.00000000000E+00 0. -1.
          6    2    1    2  502    0 -0.23320016944E+02  0.24804488642E+02 -0.54133548660E+03  0.56908439026E+03  0.17220292778E+03 0.  0.
         24    2    3    3    0    0 -0.67224220232E+02  0.14388445346E+02 -0.48740441421E+03  0.49860940467E+03  0.79511963186E+02 0.  0.
         -6    2    1    2    0  501  0.23320016944E+02 -0.24804488642E+02 -0.37423837992E+03  0.41302141793E+03  0.17138623286E+03 0.  0.
        -24    2    5    5    0    0  0.73628645371E+02  0.74278780429E+01 -0.29402276047E+03  0.31288890992E+03  0.77289944264E+02 0.  0.
          5    1    3    3  502    0  0.43904203288E+02  0.10416043297E+02 -0.53931072394E+02  0.70474985589E+02  0.47000000000E+01 0. -1.
        -11    1    4    4    0    0 -0.45380330383E+02 -0.11859287334E+02 -0.10895036566E+03  0.11861787074E+03  0.00000000000E+00 0.  1.
         12    1    4    4    0    0 -0.21843889849E+02  0.26247732679E+02 -0.37845404855E+03  0.37999153393E+03  0.00000000000E+00 0. -1.
         -5    1    5    5    0  501 -0.50308628427E+02 -0.32232366685E+02 -0.80215619445E+02  0.10013250800E+03  0.47000000000E+01 0.  1.
         13    1    6    6    0    0  0.48622938882E+02  0.16613107258E+02 -0.67635348475E+02  0.84939542509E+02  0.00000000000E+00 0. -1.
        -14    1    6    6    0    0  0.25005706489E+02 -0.91852292150E+01 -0.22638741200E+03  0.22794936741E+03  0.00000000000E+00 0.  1.
</event>
<event>
12    1  0.1348628E-002  0.1924182E+03  0.7818608E-02  0.1156298E+00
          1   -1    0    0  502    0  0.00000000000E+00  0.00000000000E+00  0.17302980834E+04  0.17302980834E+04  0.00000000000E+00 0.  1.
         -1   -1    0    0    0  501 -0.00000000000E+00 -0.00000000000E+00 -0.25996536132E+02  0.25996536132E+02  0.00000000000E+00 0. -1.
          6    2    1    2  502    0  0.32076309758E+02 -0.62935386477E+02  0.50076337130E+03  0.53820420978E+03  0.18414685680E+03 0.  0.
         24    2    3    3    0    0  0.90565063775E+02 -0.16067661369E+02  0.32994331031E+03  0.35160543904E+03  0.79395190200E+02 0.  0.
         -6    2    1    2    0  501 -0.32076309758E+02  0.62935386477E+02  0.12035381760E+04  0.12180904098E+04  0.17392628555E+03 0.  0.
        -24    2    5    5    0    0 -0.59261912172E+02  0.98468406623E+02  0.82238231646E+03  0.83428898749E+03  0.80730656356E+02 0.  0.
          5    1    3    3  502    0 -0.58488754017E+02 -0.46867725109E+02  0.17082006099E+03  0.18659877073E+03  0.47000000000E+01 0. -1.
        -13    1    4    4    0    0  0.45605921869E+01 -0.30195612897E+02  0.51857257030E+02  0.60180969965E+02  0.00000000000E+00 0.  1.
         14    1    4    4    0    0  0.86004471588E+02  0.14127951528E+02  0.27808605328E+03  0.29142446908E+03  0.00000000000E+00 0. -1.
         -5    1    5    5    0  501  0.27185602414E+02 -0.35533020146E+02  0.38115585951E+03  0.38380142228E+03  0.47000000000E+01 0.  1.
         13    1    6    6    0    0 -0.57827053848E+02  0.86984312008E+02  0.81215472648E+03  0.81884402571E+03  0.00000000000E+00 0. -1.
        -14    1    6    6    0    0 -0.14348583243E+01  0.11484094616E+02  0.10227589982E+02  0.15444961780E+02  0.00000000000E+00 0.  1.
</event>
<event>
12    1  0.1348628E-002  0.1771863E+03  0.7818608E-02  0.1170554E+00
          2   -1    0    0  502    0  0.00000000000E+00  0.00000000000E+00  0.90508406973E+03  0.90508406973E+03  0.00000000000E+00 0.  1.
         -2   -1    0    0    0  501 -0.00000000000E+00 -0.00000000000E+00 -0.36782559560E+02  0.36782559560E+02  0.00000000000E+00 0. -1.
          6    2    1    2  502    0 -0.57667635293E+01  0.39941254190E+02  0.31997765018E+03  0.36538533027E+03  0.17173288448E+03 0.  0.
         24    2    3    3    0    0 -0.45024689162E+02 -0.11375553729E+02  0.26389385329E+03  0.27969938175E+03  0.80219402199E+02 0.  0.
         -6    2    1    2    0  501  0.57667635293E+01 -0.39941254190E+02  0.54832385999E+03  0.57648129902E+03  0.17332937819E+03 0.  0.
        -24    2    5    5    0    0  0.21767057482E+02  0.33225756948E+01  0.15624430492E+03  0.18166965294E+03  0.90037412655E+02 0.  0.
          5    1    3    3  502    0  0.39257925632E+02  0.51316807918E+02  0.56083796890E+02  0.85685948518E+02  0.47000000000E+01 0. -1.
        -13    1    4    4    0    0 -0.42806022403E+02 -0.39974159412E+02  0.12731207548E+03  0.14013798035E+03  0.00000000000E+00 0.  1.
         14    1    4    4    0    0 -0.22186667587E+01  0.28598605684E+02  0.13658177781E+03  0.13956140140E+03  0.00000000000E+00 0. -1.
         -5    1    5    5    0  501 -0.16000293952E+02 -0.43263829885E+02  0.39207955506E+03  0.39481164608E+03  0.47000000000E+01 0.  1.
         11    1    6    6    0    0  0.19554544731E+02 -0.40797583627E+02  0.55064282703E+02  0.71266389547E+02  0.00000000000E+00 0. -1.
        -12    1    6    6    0    0  0.22125127506E+01  0.44120159322E+02  0.10118002222E+03  0.11040326339E+03  0.00000000000E+00 0.  1.
</event>
<event>
12    1  0.1348628E-002  0.3003520E+03  0.7818608E-02  0.1085065E+00
         -2   -1    0    0    0  501 -0.00000000000E+00  0.00000000000E+00  0.11242143722E+03  0.11242143722E+03  0.00000000000E+00 0. -1.
          2   -1    0    0  502    0  0.00000000000E+00 -0.00000000000E+00 -0.85910892524E+03  0.85910892524E+03  0.00000000000E+00 0.  1.
          6    2    1    2  502    0  0.58803718269E+02 -0.23906849860E+03 -0.49795991721E+03  0.58146425987E+03  0.17182835057E+03 0.  0.
         24    2    3    3    0    0  0.66250558695E+01 -0.15943754977E+03 -0.42627416725E+03  0.46219717486E+03  0.80326453538E+02 0.  0.
         -6    2    1    2    0  501 -0.58803718269E+02  0.23906849860E+03 -0.24872757082E+03  0.39006610259E+03  0.17226298383E+03 0.  0.
        -24    2    5    5    0    0 -0.10354705355E+03  0.17156852283E+03 -0.20999760086E+03  0.30017553938E+03  0.76476216882E+02 0.  0.
          5    1    3    3  502    0  0.52178662399E+02 -0.79630948831E+02 -0.71685749956E+02  0.11926708502E+03  0.47000000000E+01 0. -1.
        -13    1    4    4    0    0 -0.32180741934E+02 -0.65454444743E+02 -0.13141873472E+03  0.15030225655E+03  0.00000000000E+00 0.  1.
         14    1    4    4    0    0  0.38805797804E+02 -0.93983105027E+02 -0.29485543253E+03  0.31189491831E+03  0.00000000000E+00 0. -1.
         -5    1    5    5    0  501  0.44743335284E+02  0.67499975768E+02 -0.38729969964E+02  0.89890563211E+02  0.47000000000E+01 0.  1.
         13    1    6    6    0    0 -0.94436081417E+00  0.40525766150E+01  0.65770495616E+01  0.77828513736E+01  0.00000000000E+00 0. -1.
        -14    1    6    6    0    0 -0.10260269274E+03  0.16751594622E+03 -0.21657465042E+03  0.29239268800E+03  0.00000000000E+00 0.  1.
</event>
<event>
12    1  0.1348628E-002  0.1664027E+03  0.7818608E-02  0.1181652E+00
         -1   -1    0    0    0  501 -0.00000000000E+00  0.00000000000E+00  0.42535878889E+02  0.42535878889E+02  0.00000000000E+00 0. -1.
          1   -1    0    0  502    0  0.00000000000E+00 -0.00000000000E+00 -0.69295975305E+03  0.69295975305E+03  0.00000000000E+00 0.  1.
          6    2    1    2  502    0  0.26784255182E+02  0.23146152734E+02 -0.39966080039E+03  0.43003503217E+03  0.15475216577E+03 0.  0.
         24    2    3    3    0    0 -0.17617957719E+02  0.60336185237E+02 -0.24141495028E+03  0.26145717447E+03  0.78280445708E+02 0.  0.
         -6    2    1    2    0  501 -0.26784255182E+02 -0.23146152734E+02 -0.25076307377E+03  0.30546059977E+03  0.17079495934E+03 0.  0.
        -24    2    5    5    0    0  0.50043519437E+02  0.14964648685E+01 -0.13394583117E+03  0.16341087705E+03  0.79088784334E+02 0.  0.
          5    1    3    3  502    0  0.44402212901E+02 -0.37190032504E+02 -0.15824585012E+03  0.16857785770E+03  0.47000000000E+01 0. -1.
        -13    1    4    4    0    0  0.18299173813E+02 -0.99886881907E+01 -0.39802471223E+02  0.44931841376E+02  0.00000000000E+00 0.  1.
         14    1    4    4    0    0 -0.35917131531E+02  0.70324873428E+02 -0.20161247906E+03  0.21652533309E+03  0.00000000000E+00 0. -1.
         -5    1    5    5    0  501 -0.76827774619E+02 -0.24642617602E+02 -0.11681724260E+03  0.14204972271E+03  0.47000000000E+01 0.  1.
         13    1    6    6    0    0 -0.21568968596E+01 -0.30429843266E+02 -0.29961539298E+02  0.42758875129E+02  0.00000000000E+00 0. -1.
        -14    1    6    6    0    0  0.52200416296E+02  0.31926308134E+02 -0.10398429187E+03  0.12065200192E+03  0.00000000000E+00 0.  1.
</event>
<event>
12    1  0.1348628E-002  0.1876295E+03  0.7818608E-02  0.1160617E+00
         -2   -1    0    0    0  501 -0.00000000000E+00  0.00000000000E+00  0.43658187394E+02  0.43658187394E+02  0.00000000000E+00 0.  1.
          2   -1    0    0  502    0  0.00000000000E+00 -0.00000000000E+00 -0.86486394620E+03  0.86486394620E+03  0.00000000000E+00 0. -1.
          6    2    1    2  502    0  0.72658394593E+02 -0.12915223381E+01 -0.29176665492E+03  0.34670313659E+03  0.17261046800E+03 0.  0.
         24    2    3    3    0    0  0.11014813223E+03 -0.22159489121E+02 -0.25507002447E+03  0.29004905331E+03  0.80275039416E+02 0.  0.
         -6    2    1    2    0  501 -0.72658394593E+02  0.12915223381E+01 -0.52943910388E+03  0.56181899700E+03  0.17336063664E+03 0.  0.
        -24    2    5    5    0    0 -0.43470006021E+01 -0.30397156201E+02 -0.41840209222E+03  0.42757322666E+03  0.82557070318E+02 0.  0.
          5    1    3    3  502    0 -0.37489737636E+02  0.20867966783E+02 -0.36696630455E+02  0.56654083281E+02  0.47000000000E+01 0. -1.
        -11    1    4    4    0    0  0.50933928596E+02 -0.20157040224E+02 -0.42370837309E+02  0.69252142256E+02  0.00000000000E+00 0.  1.
         12    1    4    4    0    0  0.59214203632E+02 -0.20024488963E+01 -0.21269918716E+03  0.22079691105E+03  0.00000000000E+00 0. -1.
         -5    1    5    5    0  501 -0.68311393991E+02  0.31688678539E+02 -0.11103701166E+03  0.13424577034E+03  0.47000000000E+01 0.  1.
         13    1    6    6    0    0 -0.16505197729E+02  0.19396265778E+02 -0.25625957612E+03  0.25752205154E+03  0.00000000000E+00 0. -1.
        -14    1    6    6    0    0  0.12158197127E+02 -0.49793421979E+02 -0.16214251610E+03  0.17005117512E+03  0.00000000000E+00 0.  1.
</event>
<event>
12    1  0.1348628E-002  0.2803153E+03  0.7818608E-02  0.1095517E+00
          2   -1    0    0  502    0  0.00000000000E+00  0.00000000000E+00  0.51266765826E+03  0.51266765826E+03  0.00000000000E+00 0. -1.
         -2   -1    0    0    0  501 -0.00000000000E+00 -0.00000000000E+00 -0.15566518828E+03  0.15566518828E+03  0.00000000000E+00 0.  1.
          6    2    1    2  502    0  0.21921261932E+03  0.34988715509E+02  0.21978112459E+03  0.35599193719E+03  0.17072824587E+03 0.  0.
         24    2    3    3    0    0  0.44529910523E+02  0.41724231678E+02  0.52058636224E+02  0.11368564542E+03  0.80563638992E+02 0.  0.
         -6    2    1    2    0  501 -0.21921261932E+03 -0.34988715509E+02  0.13722134539E+03  0.31234090936E+03  0.17160641990E+03 0.  0.
        -24    2    5    5    0    0 -0.22297974626E+03 -0.63710355416E+02  0.14143205559E+03  0.28269392090E+03  0.78318898978E+02 0.  0.
          5    1    3    3  502    0  0.17468270879E+03 -0.67355161683E+01  0.16772248837E+03  0.24230629177E+03  0.47000000000E+01 0. -1.
        -11    1    4    4    0    0  0.11426982343E+02 -0.12181504927E+02 -0.14313604709E+02  0.21996460341E+02  0.00000000000E+00 0.  1.
         12    1    4    4    0    0  0.33102928181E+02  0.53905736605E+02  0.66372240934E+02  0.91689185074E+02  0.00000000000E+00 0. -1.
         -5    1    5    5    0  501  0.37671269415E+01  0.28721639907E+02 -0.42107102023E+01  0.29646988460E+02  0.47000000000E+01 0.  1.
         11    1    6    6    0    0 -0.18152984449E+03 -0.49445977624E+02  0.73803786967E+02  0.20210143026E+03  0.00000000000E+00 0. -1.
        -12    1    6    6    0    0 -0.41449901771E+02 -0.14264377792E+02  0.67628268623E+02  0.80592490640E+02  0.00000000000E+00 0.  1.
</event>
<event>
12    1  0.1348628E-002  0.1972085E+03  0.7818608E-02  0.1152116E+00
         -1   -1    0    0    0  501 -0.00000000000E+00  0.00000000000E+00  0.59006822851E+02  0.59006822851E+02  0.00000000000E+00 0.  1.
          1   -1    0    0  502    0  0.00000000000E+00 -0.00000000000E+00 -0.72046766354E+03  0.72046766354E+03  0.00000000000E+00 0. -1.
          6    2    1    2  502    0 -0.94178593766E+02  0.16339541048E+02 -0.21685041509E+03  0.29305556547E+03  0.17239742981E+03 0.  0.
         24    2    3    3    0    0 -0.93404028623E+02  0.46400690909E+02 -0.22616086745E+03  0.26122716298E+03  0.78826112634E+02 0.  0.
         -6    2    1    2    0  501  0.94178593766E+02 -0.16339541048E+02 -0.44461042561E+03  0.48641892092E+03  0.17259301245E+03 0.  0.
        -24    2    5    5    0    0  0.12793038013E+03 -0.39016002464E+02 -0.36415847261E+03  0.39615258320E+03  0.80231199630E+02 0.  0.
          5    1    3    3  502    0 -0.77456514330E+00 -0.30061149861E+02  0.93104523626E+01  0.31828402494E+02  0.47000000000E+01 0. -1.
        -13    1    4    4    0    0 -0.44945380982E+02  0.38557123041E+02 -0.47409482212E+02  0.75857748533E+02  0.00000000000E+00 0.  1.
         14    1    4    4    0    0 -0.48458647641E+02  0.78435678677E+01 -0.17875138524E+03  0.18536941445E+03  0.00000000000E+00 0. -1.
         -5    1    5    5    0  501 -0.33751786362E+02  0.22676461416E+02 -0.80451952998E+02  0.90266337725E+02  0.47000000000E+01 0.  1.
         11    1    6    6    0    0 -0.52200429789E+01 -0.19281871637E+02 -0.67310205449E+02  0.70211845013E+02  0.00000000000E+00 0. -1.
        -12    1    6    6    0    0  0.13315042311E+03 -0.19734130826E+02 -0.29684826716E+03  0.32594073818E+03  0.00000000000E+00 0.  1.
</event>
<event>
12    1  0.1348628E-002  0.4727571E+03  0.7818608E-02  0.1021145E+00
         -2   -1    0    0    0  501 -0.00000000000E+00  0.00000000000E+00  0.17247867564E+03  0.17247867564E+03  0.00000000000E+00 0. -1.
          2   -1    0    0  502    0  0.00000000000E+00 -0.00000000000E+00 -0.14594981060E+04  0.14594981060E+04  0.00000000000E+00 0.  1.
          6    2    1    2  502    0  0.29258815429E+03 -0.32939019054E+03 -0.37056385661E+03  0.60089172047E+03  0.17218467482E+03 0.  0.
         24    2    3    3    0    0  0.17991872657E+03 -0.10863413695E+03 -0.15939044305E+03  0.27524784176E+03  0.78638013578E+02 0.  0.
         -6    2    1    2    0  501 -0.29258815429E+03  0.32939019054E+03 -0.91645557374E+03  0.10310850612E+04  0.17070401014E+03 0.  0.
        -24    2    5    5    0    0 -0.20472288030E+03  0.24363315348E+03 -0.51647940771E+03  0.61266230944E+03  0.85647858250E+02 0.  0.
          5    1    3    3  502    0  0.11266942772E+03 -0.22075605359E+03 -0.21117341357E+03  0.32564387871E+03  0.47000000000E+01 0. -1.
        -13    1    4    4    0    0  0.87258921566E+01 -0.17992559329E+02 -0.47520797380E+02  0.51556760651E+02  0.00000000000E+00 0.  1.
         14    1    4    4    0    0  0.17119283441E+03 -0.90641577618E+02 -0.11186964566E+03  0.22369108111E+03  0.00000000000E+00 0. -1.
         -5    1    5    5    0  501 -0.87865273994E+02  0.85757037064E+02 -0.39997616603E+03  0.41842275174E+03  0.47000000000E+01 0.  1.
         11    1    6    6    0    0 -0.54349391295E+01 -0.39745763240E+01 -0.64244585838E+00  0.67637679571E+01  0.00000000000E+00 0. -1.
        -12    1    6    6    0    0 -0.19928794117E+03  0.24760772980E+03 -0.51583696185E+03  0.60589854148E+03  0.00000000000E+00 0.  1.
</event>
<event>
12    1  0.1348628E-002  0.1960535E+03  0.7818608E-02  0.1153112E+00
         -1   -1    0    0    0  501 -0.00000000000E+00  0.00000000000E+00  0.25155348703E+02  0.25155348703E+02  0.00000000000E+00 0. -1.
          1   -1    0    0  502    0  0.00000000000E+00 -0.00000000000E+00 -0.15551661181E+04  0.15551661181E+04  0.00000000000E+00 0.  1.
          6    2    1    2  502    0  0.51324136441E+02  0.82075678777E+02 -0.66423935090E+03  0.69283741798E+03  0.17157851976E+03 0.  0.
         24    2    3    3    0    0  0.50958870838E+02  0.10913231087E+03 -0.64099708064E+03  0.65685842570E+03  0.77968366839E+02 0.  0.
         -6    2    1    2    0  501 -0.51324136441E+02 -0.82075678777E+02 -0.86577141849E+03  0.88748404882E+03  0.16940249053E+03 0.  0.
        -24    2    5    5    0    0  0.12981588095E+02 -0.46786841144E+02 -0.23895934754E+03  0.25637709231E+03  0.79184048564E+02 0.  0.
          5    1    3    3  502    0  0.36526560269E+00 -0.27056632088E+02 -0.23242270258E+02  0.35978992282E+02  0.47000000000E+01 0. -1.
        -11    1    4    4    0    0  0.19853374706E+02  0.52814845410E+02 -0.12853815713E+03  0.14037671538E+03  0.00000000000E+00 0.  1.
         12    1    4    4    0    0  0.31105496132E+02  0.56317465455E+02 -0.51245892351E+03  0.51648171032E+03  0.00000000000E+00 0. -1.
         -5    1    5    5    0  501 -0.64305724536E+02 -0.35288837633E+02 -0.62681207095E+03  0.63110695651E+03  0.47000000000E+01 0.  1.
         13    1    6    6    0    0  0.10473802599E+02 -0.61200027511E+02 -0.23202160945E+03  0.24018570141E+03  0.00000000000E+00 0. -1.
        -14    1    6    6    0    0  0.25077854963E+01  0.14413186367E+02 -0.69377380901E+01  0.16191390896E+02  0.00000000000E+00 0.  1.
</event>
<event>
12    1  0.1348628E-002  0.1817042E+03  0.7818608E-02  0.1166164E+00
         -2   -1    0    0    0  501 -0.00000000000E+00  0.00000000000E+00  0.15778437778E+03  0.15778437778E+03  0.00000000000E+00 0.  1.
          2   -1    0    0  502    0  0.00000000000E+00 -0.00000000000E+00 -0.21167730823E+03  0.21167730823E+03  0.00000000000E+00 0. -1.
          6    2    1    2  502    0 -0.44483882908E+02 -0.39203200119E+02 -0.72585545556E+01  0.18242337047E+03  0.17236557876E+03 0.  0.
         24    2    3    3    0    0 -0.43154170435E+01  0.29017259079E+02 -0.36618191448E+02  0.97856148795E+02  0.85873801380E+02 0.  0.
         -6    2    1    2    0  501  0.44483882908E+02  0.39203200119E+02 -0.46634375901E+02  0.18703831554E+03  0.17115156946E+03 0.  0.
        -24    2    5    5    0    0  0.75885150664E+02 -0.10704858221E+02 -0.60529695015E+02  0.12627628960E+03  0.80054401843E+02 0.  0.
          5    1    3    3  502    0 -0.40168465864E+02 -0.68220459198E+02  0.29359636893E+02  0.84567221673E+02  0.47000000000E+01 0. -1.
        -13    1    4    4    0    0  0.13512491205E+02  0.34946287929E+02  0.16924439506E+02  0.41112858222E+02  0.00000000000E+00 0.  1.
         14    1    4    4    0    0 -0.17827908249E+02 -0.59290288494E+01 -0.53542630954E+02  0.56743290574E+02  0.00000000000E+00 0. -1.
         -5    1    5    5    0  501 -0.31401267756E+02  0.49908058339E+02  0.13895319114E+02  0.60762025947E+02  0.47000000000E+01 0.  1.
         13    1    6    6    0    0  0.18405463746E+02 -0.28421875746E+01 -0.65454748589E+02  0.68052650490E+02  0.00000000000E+00 0. -1.
        -14    1    6    6    0    0  0.57479686918E+02 -0.78626706461E+01  0.49250535743E+01  0.58223639105E+02  0.00000000000E+00 0.  1.
</event>
<event>
12    1  0.1348628E-002  0.1737855E+03  0.7818608E-02  0.1173957E+00
          2   -1    0    0  502    0  0.00000000000E+00  0.00000000000E+00  0.19526888631E+03  0.19526888631E+03  0.00000000000E+00 0. -1.
         -2   -1    0    0    0  501 -0.00000000000E+00 -0.00000000000E+00 -0.16822745248E+03  0.16822745248E+03  0.00000000000E+00 0.  1.
          6    2    1    2  502    0  0.24312476525E+01  0.23816600125E+02  0.65129849916E+02  0.18566425057E+03  0.17220968377E+03 0.  0.
         24    2    3    3    0    0 -0.63659756751E+02  0.18315204959E+02  0.19557415366E+02  0.10505889713E+03  0.79163552275E+02 0.  0.
         -6    2    1    2    0  501 -0.24312476525E+01 -0.23816600125E+02 -0.38088416088E+02  0.17783208822E+03  0.17204761770E+03 0.  0.
        -24    2    5    5    0    0 -0.45265422137E+02 -0.14526023717E+01  0.29113104054E+02  0.94928233012E+02  0.78183937610E+02 0.  0.
          5    1    3    3  502    0  0.66091004403E+02  0.55013951660E+01  0.45572434550E+02  0.80605353436E+02  0.47000000000E+01 0. -1.
        -13    1    4    4    0    0 -0.67740827796E+02 -0.74635971980E+01  0.32978323994E+02  0.75710599569E+02  0.00000000000E+00 0.  1.
         14    1    4    4    0    0  0.40810710449E+01  0.25778802157E+02 -0.13420908628E+02  0.29348297565E+02  0.00000000000E+00 0. -1.
         -5    1    5    5    0  501  0.42834174485E+02 -0.22363997754E+02 -0.67201520142E+02  0.82903855210E+02  0.47000000000E+01 0.  1.
         11    1    6    6    0    0  0.82940137630E+01  0.16183026446E+02  0.33762961683E+02  0.38348645228E+02  0.00000000000E+00 0. -1.
        -12    1    6    6    0    0 -0.53559435900E+02 -0.17635628818E+02 -0.46498576286E+01  0.56579587783E+02  0.00000000000E+00 0.  1.
</event>
<event>
12    1  0.1348628E-002  0.2178256E+03  0.7818608E-02  0.1135515E+00
          3   -1    0    0  502    0  0.00000000000E+00  0.00000000000E+00  0.25677022987E+03  0.25677022987E+03  0.00000000000E+00 0. -1.
         -3   -1    0    0    0  501 -0.00000000000E+00 -0.00000000000E+00 -0.23518952902E+03  0.23518952902E+03  0.00000000000E+00 0.  1.
          6    2    1    2  502    0  0.10996987196E+03  0.54941219629E+02 -0.10272029133E+03  0.24573236066E+03  0.18633578419E+03 0.  0.
         24    2    3    3    0    0  0.50553359238E+02  0.59284483169E+02 -0.13767476023E+03  0.17650020903E+03  0.78279576562E+02 0.  0.
         -6    2    1    2    0  501 -0.10996987196E+03 -0.54941219629E+02  0.12430099218E+03  0.24622739824E+03  0.17339343884E+03 0.  0.
        -24    2    5    5    0    0 -0.44230996465E+02 -0.87650406665E+02  0.11667299611E+03  0.17225600517E+03  0.80128449753E+02 0.  0.
          5    1    3    3  502    0  0.59416512726E+02 -0.43432635404E+01  0.34954468905E+02  0.69232151628E+02  0.47000000000E+01 0. -1.
        -11    1    4    4    0    0 -0.17203092006E+02 -0.38453052375E+01 -0.26171708997E+02  0.31554573342E+02  0.00000000000E+00 0.  1.
         12    1    4    4    0    0  0.67756451244E+02  0.63129788407E+02 -0.11150305124E+03  0.14494563569E+03  0.00000000000E+00 0. -1.
         -5    1    5    5    0  501 -0.65738875499E+02  0.32709187036E+02  0.76279960731E+01  0.73971393068E+02  0.47000000000E+01 0.  1.
         13    1    6    6    0    0 -0.14162791255E+02 -0.72324395809E+02  0.30591212816E+02  0.79794894491E+02  0.00000000000E+00 0. -1.
        -14    1    6    6    0    0 -0.30068205210E+02 -0.15326010856E+02  0.86081783293E+02  0.92461110680E+02  0.00000000000E+00 0.  1.
</event>
<event>
12    1  0.1348628E-002  0.2271302E+03  0.7818608E-02  0.1128676E+00
          2   -1    0    0  502    0  0.00000000000E+00  0.00000000000E+00  0.18008881047E+04  0.18008881047E+04  0.00000000000E+00 0. -1.
         -2   -1    0    0    0  501 -0.00000000000E+00 -0.00000000000E+00 -0.94105072435E+02  0.94105072435E+02  0.00000000000E+00 0.  1.
          6    2    1    2  502    0  0.36423192611E+01 -0.14767711983E+03  0.16431618700E+04  0.16587300073E+04  0.17199566257E+03 0.  0.
         24    2    3    3    0    0 -0.65916532218E+02 -0.90557774439E+02  0.93690950265E+03  0.94674998666E+03  0.77397812260E+02 0.  0.
         -6    2    1    2    0  501 -0.36423192611E+01  0.14767711983E+03  0.63621162285E+02  0.23626316984E+03  0.17306309520E+03 0.  0.
        -24    2    5    5    0    0  0.24671717914E+02  0.12594851182E+03 -0.12591804288E+02  0.15197602146E+03  0.80414154660E+02 0.  0.
          5    1    3    3  502    0  0.69558851479E+02 -0.57119345390E+02  0.70625236734E+03  0.71198002066E+03  0.47000000000E+01 0. -1.
        -13    1    4    4    0    0 -0.30184960305E+02 -0.40219523878E+02  0.16795136658E+03  0.17531800668E+03  0.00000000000E+00 0.  1.
         14    1    4    4    0    0 -0.35731571912E+02 -0.50338250561E+02  0.76895813608E+03  0.77143197998E+03  0.00000000000E+00 0. -1.
         -5    1    5    5    0  501 -0.28314037175E+02  0.21728608007E+02  0.76212966573E+02  0.84287148373E+02  0.47000000000E+01 0.  1.
         11    1    6    6    0    0  0.30932955334E+02  0.92402708770E+01  0.80956896538E+01  0.33283186785E+02  0.00000000000E+00 0. -1.
        -12    1    6    6    0    0 -0.62612374206E+01  0.11670824095E+03 -0.20687493942E+02  0.11869283468E+03  0.00000000000E+00 0.  1.
</event>
<event>
12    1  0.1348628E-002  0.1819924E+03  0.7818608E-02  0.1165889E+00
         -1   -1    0    0    0  501 -0.00000000000E+00  0.00000000000E+00  0.15308756542E+02  0.15308756542E+02  0.00000000000E+00 0. -1.
          1   -1    0    0  502    0  0.00000000000E+00 -0.00000000000E+00 -0.21636556990E+04  0.21636556990E+04  0.00000000000E+00 0.  1.
          6    2    1    2  502    0  0.37167239365E+02 -0.51216046865E+02 -0.10694928964E+04  0.10846640515E+04  0.16934155392E+03 0.  0.
         24    2    3    3    0    0  0.47110211241E+02  0.31046426672E+02 -0.58477142549E+03  0.59288872508E+03  0.79850908909E+02 0.  0.
         -6    2    1    2    0  501 -0.37167239365E+02  0.51216046865E+02 -0.10788540460E+04  0.10943004040E+04  0.17193846166E+03 0.  0.
        -24    2    5    5    0    0  0.36723193616E+02  0.61982472420E+02 -0.67026868703E+03  0.67892130303E+03  0.80520823705E+02 0.  0.
          5    1    3    3  502    0 -0.99429718758E+01 -0.82262473537E+02 -0.48472147094E+03  0.49177532638E+03  0.47000000000E+01 0. -1.
        -11    1    4    4    0    0  0.49884100219E+02 -0.14064090082E+02 -0.27556044462E+03  0.28039219091E+03  0.00000000000E+00 0.  1.
         12    1    4    4    0    0 -0.27738889775E+01  0.45110516753E+02 -0.30921098087E+03  0.31249653418E+03  0.00000000000E+00 0. -1.
         -5    1    5    5    0  501 -0.73890432982E+02 -0.10766425555E+02 -0.40858535895E+03  0.41537910101E+03  0.47000000000E+01 0.  1.
         13    1    6    6    0    0  0.18062832973E+02  0.66563736910E+02 -0.28699455403E+03  0.29516583652E+03  0.00000000000E+00 0. -1.
        -14    1    6    6    0    0  0.18660360643E+02 -0.45812644902E+01 -0.38327413301E+03  0.38375546651E+03  0.00000000000E+00 0.  1.
</event>
<event>
12    1  0.1348628E-002  0.1896026E+03  0.7818608E-02  0.1158820E+00
         -2   -1    0    0    0  501 -0.00000000000E+00  0.00000000000E+00  0.15972528928E+03  0.15972528928E+03  0.00000000000E+00 0. -1.
          2   -1    0    0  502    0  0.00000000000E+00 -0.00000000000E+00 -0.25271470024E+03  0.25271470024E+03  0.00000000000E+00 0.  1.
          6    2    1    2  502    0  0.63346786234E+02 -0.53388052979E+02  0.21659011645E+02  0.19107833208E+03  0.17081778795E+03 0.  0.
         24    2    3    3    0    0  0.95929126826E+02 -0.27532284742E+01  0.34864164344E+02  0.12925632606E+03  0.79257240868E+02 0.  0.
         -6    2    1    2    0  501 -0.63346786234E+02  0.53388052979E+02 -0.11464842261E+03  0.22136165744E+03  0.17027513926E+03 0.  0.
        -24    2    5    5    0    0 -0.79515906487E+02  0.85231259688E+02 -0.53670699127E+02  0.15053932321E+03  0.78704490830E+02 0.  0.
          5    1    3    3  502    0 -0.32582340592E+02 -0.50634824505E+02 -0.13205152699E+02  0.61822006025E+02  0.47000000000E+01 0. -1.
        -11    1    4    4    0    0  0.42323433264E+01  0.27295130112E+02  0.11845694064E+02  0.30054239729E+02  0.00000000000E+00 0.  1.
         12    1    4    4    0    0  0.91696783500E+02 -0.30048358586E+02  0.23018470280E+02  0.99202086328E+02  0.00000000000E+00 0. -1.
         -5    1    5    5    0  501  0.16169120253E+02 -0.31843206709E+02 -0.60977723485E+02  0.70822334222E+02  0.47000000000E+01 0.  1.
         11    1    6    6    0    0  0.69569866231E+00  0.28917135851E+02  0.13300252117E+02  0.31836793947E+02  0.00000000000E+00 0. -1.
        -12    1    6    6    0    0 -0.80211605150E+02  0.56314123837E+02 -0.66970951243E+02  0.11870252927E+03  0.00000000000E+00 0.  1.
</event>
<event>
12    1  0.1348628E-002  0.2209788E+03  0.7818608E-02  0.1133155E+00
          2   -1    0    0  502    0  0.00000000000E+00  0.00000000000E+00  0.12134921005E+04  0.12134921005E+04  0.00000000000E+00 0. -1.
         -2   -1    0    0    0  501 -0.00000000000E+00 -0.00000000000E+00 -0.96020373048E+02  0.96020373048E+02  0.00000000000E+00 0.  1.
          6    2    1    2  502    0  0.43044487208E+02  0.13489751137E+03  0.60881720207E+02  0.23028845901E+03  0.17110237883E+03 0.  0.
         24    2    3    3    0    0  0.69497576545E+02  0.14394177879E+03  0.15811739093E+02  0.17704413625E+03  0.74467887439E+02 0.  0.
         -6    2    1    2    0  501 -0.43044487208E+02 -0.13489751137E+03  0.10565900072E+04  0.10792240145E+04  0.16820185403E+03 0.  0.
        -24    2    5    5    0    0 -0.86964442808E+02 -0.10904128881E+03  0.66372488007E+03  0.68303895060E+03  0.80985644567E+02 0.  0.
          5    1    3    3  502    0 -0.26453089337E+02 -0.90442674161E+01  0.45069981114E+02  0.53244322760E+02  0.47000000000E+01 0. -1.
        -13    1    4    4    0    0  0.43584682985E+02  0.75318303152E+02 -0.28230894027E+02  0.91484724179E+02  0.00000000000E+00 0.  1.
         14    1    4    4    0    0  0.25912893559E+02  0.68623475638E+02  0.44042633120E+02  0.85559412068E+02  0.00000000000E+00 0. -1.
         -5    1    5    5    0  501  0.43919955600E+02 -0.25856222567E+02  0.39286512713E+03  0.39618506391E+03  0.47000000000E+01 0.  1.
         13    1    6    6    0    0 -0.14755697913E+02 -0.80382153955E+02  0.28827024094E+03  0.29963102828E+03  0.00000000000E+00 0. -1.
        -14    1    6    6    0    0 -0.72208744895E+02 -0.28659134852E+02  0.37545463913E+03  0.38340792232E+03  0.00000000000E+00 0.  1.
</event>
<event>
12    1  0.1348628E-002  0.1891909E+03  0.7818608E-02  0.1159193E+00
         -2   -1    0    0    0  501 -0.00000000000E+00  0.00000000000E+00  0.24885800288E+02  0.24885800288E+02  0.00000000000E+00 0.  1.
          2   -1    0    0  502    0  0.00000000000E+00 -0.00000000000E+00 -0.17508284253E+04  0.17508284253E+04  0.00000000000E+00 0. -1.
          6    2    1    2  502    0 -0.14934828993E+02  0.75546925603E+02 -0.12431551231E+04  0.12576758533E+04  0.17430864763E+03 0.  0.
         24    2    3    3    0    0 -0.22684313883E+01  0.48881846376E+02 -0.12078802032E+04  0.12114387031E+04  0.78832514951E+02 0.  0.
         -6    2    1    2    0  501  0.14934828993E+02 -0.75546925603E+02 -0.48278750186E+03  0.51803837230E+03  0.17131723830E+03 0.  0.
        -24    2    5    5    0    0  0.68860823653E+02 -0.76312135737E+02 -0.38281061583E+03  0.40434551330E+03  0.79912273409E+02 0.  0.
          5    1    3    3  502    0 -0.12666397605E+02  0.26665079227E+02 -0.35274919909E+02  0.46237150140E+02  0.47000000000E+01 0. -1.
        -13    1    4    4    0    0 -0.34119733500E+02  0.98332529835E+01 -0.74027553925E+03  0.74112665793E+03  0.00000000000E+00 0.  1.
         14    1    4    4    0    0  0.31851302112E+02  0.39048593393E+02 -0.46760466397E+03  0.47031204520E+03  0.00000000000E+00 0. -1.
         -5    1    5    5    0  501 -0.53925994660E+02  0.76521013397E+00 -0.99976886030E+02  0.11369285900E+03  0.47000000000E+01 0.  1.
         11    1    6    6    0    0  0.30391710698E+02 -0.42571765943E+02 -0.31543236483E+03  0.31973987570E+03  0.00000000000E+00 0. -1.
        -12    1    6    6    0    0  0.38469112955E+02 -0.33740369795E+02 -0.67378251002E+02  0.84605637599E+02  0.00000000000E+00 0.  1.
</event>
<event>
12    1  0.1348628E-002  0.3599726E+03  0.7818608E-02  0.1058595E+00
         -2   -1    0    0    0  501 -0.00000000000E+00  0.00000000000E+00  0.21288930626E+03  0.21288930626E+03  0.00000000000E+00 0.  1.
          2   -1    0    0  502    0  0.00000000000E+00 -0.00000000000E+00 -0.79950490174E+03  0.79950490174E+03  0.00000000000E+00 0. -1.
          6    2    1    2  502    0  0.31321220285E+03  0.37930857292E+02 -0.54104493526E+03  0.65024186231E+03  0.17476905783E+03 0.  0.
         24    2    3    3    0    0  0.12918834607E+03 -0.39786889996E+02 -0.18897740093E+03  0.24542280786E+03  0.79039681066E+02 0.  0.
         -6    2    1    2    0  501 -0.31321220285E+03 -0.37930857292E+02 -0.45570660211E+02  0.36215234569E+03  0.17186332498E+03 0.  0.
        -24    2    5    5    0    0 -0.14430863371E+03 -0.59863726290E+02 -0.71298226661E+02  0.18983442995E+03  0.80901336096E+02 0.  0.
          5    1    3    3  502    0  0.18402385678E+03  0.77717747288E+02 -0.35206753434E+03  0.40481905444E+03  0.47000000000E+01 0. -1.
        -11    1    4    4    0    0  0.13936401428E+03 -0.30252272910E+02 -0.17356740981E+03  0.22464009936E+03  0.00000000000E+00 0.  1.
         12    1    4    4    0    0 -0.10175668211E+02 -0.95346170865E+01 -0.15409991118E+02  0.20782708504E+02  0.00000000000E+00 0. -1.
         -5    1    5    5    0  501 -0.16890356913E+03  0.21932868998E+02  0.25727566450E+02  0.17231791574E+03  0.47000000000E+01 0.  1.
         11    1    6    6    0    0 -0.10564954188E+03 -0.72942239414E+02 -0.30143387275E+02  0.13187501578E+03  0.00000000000E+00 0. -1.
        -12    1    6    6    0    0 -0.38659091833E+02  0.13078513124E+02 -0.41154839385E+02  0.57959414177E+02  0.00000000000E+00 0.  1.
</event>
<event>
12    1  0.1348628E-002  0.1791004E+03  0.7818608E-02  0.1168677E+00
         -2   -1    0    0    0  501 -0.00000000000E+00  0.00000000000E+00  0.10269785935E+03  0.10269785935E+03  0.00000000000E+00 0. -1.
          2   -1    0    0  502    0  0.00000000000E+00 -0.00000000000E+00 -0.37042302395E+03  0.37042302395E+03  0.00000000000E+00 0.  1.
          6    2    1    2  502    0 -0.38745306576E+02 -0.30186570960E+02 -0.40431155789E+02  0.18397698990E+03  0.17262800065E+03 0.  0.
         24    2    3    3    0    0  0.82885641323E+01 -0.58556497317E+02  0.21601424566E+02  0.10098802232E+03  0.78958187891E+02 0.  0.
         -6    2    1    2    0  501  0.38745306576E+02  0.30186570960E+02 -0.22729400882E+03  0.28914389340E+03  0.17184061452E+03 0.  0.
        -24    2    5    5    0    0 -0.50600042186E+01 -0.37824737716E+01 -0.21887620920E+03  0.23287889003E+03  0.79283489561E+02 0.  0.
          5    1    3    3  502    0 -0.47033870708E+02  0.28369926357E+02 -0.62032580355E+02  0.82988967585E+02  0.47000000000E+01 0. -1.
        -11    1    4    4    0    0  0.30427451458E+02 -0.18310366468E+01 -0.10388184512E+02  0.32203988493E+02  0.00000000000E+00 0.  1.
         12    1    4    4    0    0 -0.22138887326E+02 -0.56725460670E+02  0.31989609077E+02  0.68784033824E+02  0.00000000000E+00 0. -1.
         -5    1    5    5    0  501  0.43805310795E+02  0.33969044731E+02 -0.84177996185E+01  0.56265003370E+02  0.47000000000E+01 0.  1.
         13    1    6    6    0    0 -0.24604311844E+02 -0.59478943908E+01 -0.18043102743E+02  0.31085417250E+02  0.00000000000E+00 0. -1.
        -14    1    6    6    0    0  0.19544307626E+02  0.21654206192E+01 -0.20083310646E+03  0.20179347278E+03  0.00000000000E+00 0.  1.
</event>
<event>
12    1  0.1348628E-002  0.2286097E+03  0.7818608E-02  0.1127622E+00
          1   -1    0    0  502    0  0.00000000000E+00  0.00000000000E+00  0.14771140747E+04  0.14771140747E+04  0.00000000000E+00 0. -1.
         -1   -1    0    0    0  501 -0.00000000000E+00 -0.00000000000E+00 -0.54681255326E+02  0.54681255326E+02  0.00000000000E+00 0.  1.
          6    2    1    2  502    0  0.13713192182E+03 -0.56478059515E+02  0.11671742836E+04  0.11894422003E+04  0.17459096334E+03 0.  0.
         24    2    3    3    0    0  0.45586423375E+02 -0.83048316724E+02  0.48296171147E+03  0.49860539565E+03  0.79876034736E+02 0.  0.
         -6    2    1    2    0  501 -0.13713192182E+03  0.56478059515E+02  0.25525853580E+03  0.34235312971E+03  0.17336034763E+03 0.  0.
        -24    2    5    5    0    0 -0.54163687045E+02 -0.35424882043E+02  0.16666726715E+03  0.19003641516E+03  0.64399020839E+02 0.  0.
          5    1    3    3  502    0  0.91545498449E+02  0.26570257209E+02  0.68421257209E+03  0.69083680465E+03  0.47000000000E+01 0. -1.
        -13    1    4    4    0    0  0.30923689434E+02 -0.72881361463E+01  0.53151621687E+02  0.61923229766E+02  0.00000000000E+00 0.  1.
         14    1    4    4    0    0  0.14662733941E+02 -0.75760180578E+02  0.42981008978E+03  0.43668216589E+03  0.00000000000E+00 0. -1.
         -5    1    5    5    0  501 -0.82968234778E+02  0.91902941558E+02  0.88591268653E+02  0.15231671455E+03  0.47000000000E+01 0.  1.
         13    1    6    6    0    0  0.44252985664E+01 -0.31810777376E+02  0.68541089885E+02  0.75692732989E+02  0.00000000000E+00 0. -1.
        -14    1    6    6    0    0 -0.58588985612E+02 -0.36141046669E+01  0.98126177266E+02  0.11434368217E+03  0.00000000000E+00 0.  1.
</event>
<event>
12    1  0.1348628E-002  0.2378907E+03  0.7818608E-02  0.1121206E+00
         -2   -1    0    0    0  501 -0.00000000000E+00  0.00000000000E+00  0.23042737364E+02  0.23042737364E+02  0.00000000000E+00 0. -1.
          2   -1    0    0  502    0  0.00000000000E+00 -0.00000000000E+00 -0.25825160774E+04  0.25825160774E+04  0.00000000000E+00 0.  1.
          6    2    1    2  502    0  0.86154181257E+02 -0.13896145321E+03 -0.99339448343E+03  0.10215750303E+04  0.17334968813E+03 0.  0.
         24    2    3    3    0    0  0.12004331155E+02 -0.12546627073E+03 -0.80387763232E+03  0.81756756211E+03  0.79445464341E+02 0.  0.
         -6    2    1    2    0  501 -0.86154181257E+02  0.13896145321E+03 -0.15660788566E+04  0.15839837845E+04  0.17224638152E+03 0.  0.
        -24    2    5    5    0    0 -0.54715983470E+02  0.16864345548E+03 -0.12886381864E+04  0.13031550163E+04  0.78677615575E+02 0.  0.
          5    1    3    3  502    0  0.74149850101E+02 -0.13495182481E+02 -0.18951685111E+03  0.20400746819E+03  0.47000000000E+01 0. -1.
        -13    1    4    4    0    0  0.65538269279E+01 -0.23457620907E+02 -0.40786029058E+03  0.40858686868E+03  0.00000000000E+00 0.  1.
         14    1    4    4    0    0  0.54505042275E+01 -0.10200864982E+03 -0.39601734174E+03  0.40898069342E+03  0.00000000000E+00 0. -1.
         -5    1    5    5    0  501 -0.31438197787E+02 -0.29682002265E+02 -0.27744067028E+03  0.28082876822E+03  0.47000000000E+01 0.  1.
         13    1    6    6    0    0 -0.19286730669E+02  0.10559061292E+03 -0.51046782545E+03  0.52163086214E+03  0.00000000000E+00 0. -1.
        -14    1    6    6    0    0 -0.35429252800E+02  0.63052842555E+02 -0.77817036091E+03  0.78152415414E+03  0.00000000000E+00 0.  1.
</event>
<event>
12    1  0.1348628E-002  0.1778276E+03  0.7818608E-02  0.1169922E+00
         -2   -1    0    0    0  501 -0.00000000000E+00  0.00000000000E+00  0.24624504832E+02  0.24624504832E+02  0.00000000000E+00 0.  1.
          2   -1    0    0  502    0  0.00000000000E+00 -0.00000000000E+00 -0.13916800622E+04  0.13916800622E+04  0.00000000000E+00 0. -1.
          6    2    1    2  502    0  0.36046452294E+02  0.37096273328E+02 -0.48206675432E+03  0.51336180983E+03  0.16874985021E+03 0.  0.
         24    2    3    3    0    0  0.58658664482E+02 -0.28901652169E+02 -0.21747996748E+03  0.23969176017E+03  0.76671110720E+02 0.  0.
         -6    2    1    2    0  501 -0.36046452294E+02 -0.37096273328E+02 -0.88498880300E+03  0.90294275716E+03  0.17153705447E+03 0.  0.
        -24    2    5    5    0    0 -0.85423171067E+02 -0.22545719920E+01 -0.64092389113E+03  0.65146358165E+03  0.79493161642E+02 0.  0.
          5    1    3    3  502    0 -0.22612212188E+02  0.65997925496E+02 -0.26458678684E+03  0.27367004966E+03  0.47000000000E+01 0. -1.
        -11    1    4    4    0    0  0.16767304276E+02  0.25728896539E+02 -0.85274069919E+02  0.90635454488E+02  0.00000000000E+00 0.  1.
         12    1    4    4    0    0  0.41891360205E+02 -0.54630548708E+02 -0.13220589757E+03  0.14905630568E+03  0.00000000000E+00 0. -1.
         -5    1    5    5    0  501  0.49376718773E+02 -0.34841701336E+02 -0.24406491187E+03  0.25147917551E+03  0.47000000000E+01 0.  1.
         13    1    6    6    0    0 -0.11821015998E+01 -0.22009044955E+02 -0.25539019120E+03  0.25633951156E+03  0.00000000000E+00 0. -1.
        -14    1    6    6    0    0 -0.84241069467E+02  0.19754472963E+02 -0.38553369993E+03  0.39512407009E+03  0.00000000000E+00 0.  1.
</event>
<event>
12    1  0.1348628E-002  0.1767896E+03  0.7818608E-02  0.1170947E+00
         -1   -1    0    0    0  501 -0.00000000000E+00  0.00000000000E+00  0.41514437002E+02  0.41514437002E+02  0.00000000000E+00 0. -1.
          1   -1    0    0  502    0  0.00000000000E+00 -0.00000000000E+00 -0.75288738202E+03  0.75288738202E+03  0.00000000000E+00 0.  1.
          6    2    1    2  502    0 -0.29395341584E+02  0.30863111686E+02 -0.35370007584E+03  0.39550723273E+03  0.17177197014E+03 0.  0.
         24    2    3    3    0    0 -0.47009518419E+02  0.79070017396E+02 -0.20360637149E+03  0.23681137560E+03  0.78499112297E+02 0.  0.
         -6    2    1    2    0  501  0.29395341584E+02 -0.30863111686E+02 -0.35767286917E+03  0.39889458629E+03  0.17137792114E+03 0.  0.
        -24    2    5    5    0    0  0.50973337600E+02 -0.12033552225E+02 -0.10231260972E+03  0.14189047284E+03  0.83198249074E+02 0.  0.
          5    1    3    3  502    0  0.17614176836E+02 -0.48206905711E+02 -0.15009370435E+03  0.15869585713E+03  0.47000000000E+01 0. -1.
        -11    1    4    4    0    0  0.36762217105E+01  0.69040169935E+02 -0.11120122452E+03  0.13094186499E+03  0.00000000000E+00 0.  1.
         12    1    4    4    0    0 -0.50685740130E+02  0.10029847462E+02 -0.92405146967E+02  0.10586951062E+03  0.00000000000E+00 0. -1.
         -5    1    5    5    0  501 -0.21577996016E+02 -0.18829559461E+02 -0.25536025945E+03  0.25700411345E+03  0.47000000000E+01 0.  1.
         11    1    6    6    0    0  0.33662056853E+02 -0.46993747590E+02 -0.48696252897E+02  0.75583539414E+02  0.00000000000E+00 0. -1.
        -12    1    6    6    0    0  0.17311280747E+02  0.34960195365E+02 -0.53616356822E+02  0.66306933423E+02  0.00000000000E+00 0.  1.
</event>
<event>
12    1  0.1348628E-002  0.1739178E+03  0.7818608E-02  0.1173823E+00
         -1   -1    0    0    0  501 -0.00000000000E+00  0.00000000000E+00  0.15711763989E+02  0.15711763989E+02  0.00000000000E+00 0.  1.
          1   -1    0    0  502    0  0.00000000000E+00 -0.00000000000E+00 -0.20264848411E+04  0.20264848411E+04  0.00000000000E+00 0. -1.
          6    2    1    2  502    0 -0.44398894470E+01 -0.39282598242E+02 -0.76529047992E+03  0.78432079575E+03  0.16711300622E+03 0.  0.
         24    2    3    3    0    0 -0.38984715993E+02  0.72338892648E+01 -0.22227360257E+03  0.23820125963E+03  0.75908816701E+02 0.  0.
         -6    2    1    2    0  501  0.44398894470E+01  0.39282598242E+02 -0.12454825972E+04  0.12578758094E+04  0.17164444841E+03 0.  0.
        -24    2    5    5    0    0  0.67058957955E+02  0.15941997551E+02 -0.61965521059E+03  0.62847296600E+03  0.79086268429E+02 0.  0.
          5    1    3    3  502    0  0.34544826546E+02 -0.46516487507E+02 -0.54301687735E+03  0.54611953612E+03  0.47000000000E+01 0. -1.
        -11    1    4    4    0    0  0.87669818468E+01 -0.18027739498E+02 -0.18123434230E+02  0.27024400649E+02  0.00000000000E+00 0.  1.
         12    1    4    4    0    0 -0.47751697840E+02  0.25261628763E+02 -0.20415016834E+03  0.21117685898E+03  0.00000000000E+00 0. -1.
         -5    1    5    5    0  501 -0.62619068508E+02  0.23340600690E+02 -0.62582738665E+03  0.62940284338E+03  0.47000000000E+01 0.  1.
         11    1    6    6    0    0  0.47954679380E+02  0.42113110645E+02 -0.51437822903E+03  0.51832241690E+03  0.00000000000E+00 0. -1.
        -12    1    6    6    0    0  0.19104278575E+02 -0.26171113093E+02 -0.10527698156E+03  0.11015054910E+03  0.00000000000E+00 0.  1.
</event>
<event>
12    1  0.1348628E-002  0.1821061E+03  0.7818608E-02  0.1165780E+00
          1   -1    0    0  502    0  0.00000000000E+00  0.00000000000E+00  0.20302043779E+03  0.20302043779E+03  0.00000000000E+00 0. -1.
         -1   -1    0    0    0  501 -0.00000000000E+00 -0.00000000000E+00 -0.16469082973E+03  0.16469082973E+03  0.00000000000E+00 0.  1.
          6    2    1    2  502    0 -0.49797812601E+02 -0.33741714657E+02  0.35849285966E+02  0.18655324438E+03  0.17291216335E+03 0.  0.
         24    2    3    3    0    0 -0.13589138942E+02 -0.84974768625E+02  0.38914453525E+02  0.12356610982E+03  0.79679814278E+02 0.  0.
         -6    2    1    2    0  501  0.49797812601E+02  0.33741714657E+02  0.24803220931E+01  0.18115802314E+03  0.17086179181E+03 0.  0.
        -24    2    5    5    0    0 -0.17714866396E+02 -0.20718943699E+02  0.28500413228E+02  0.90476932072E+02  0.81429175137E+02 0.  0.
          5    1    3    3  502    0 -0.36208673659E+02  0.51233053968E+02 -0.30651675590E+01  0.62987134553E+02  0.47000000000E+01 0. -1.
        -13    1    4    4    0    0 -0.18969726888E+02 -0.10137014481E+02 -0.19066722447E+02  0.28742816592E+02  0.00000000000E+00 0.  1.
         14    1    4    4    0    0  0.53805879459E+01 -0.74837754144E+02  0.57981175972E+02  0.94823293230E+02  0.00000000000E+00 0. -1.
         -5    1    5    5    0  501  0.67512678997E+02  0.54460658356E+02 -0.26020091135E+02  0.90681091064E+02  0.47000000000E+01 0.  1.
         13    1    6    6    0    0  0.20786649480E+02 -0.33293422332E+02  0.30825444435E+02  0.49907362100E+02  0.00000000000E+00 0. -1.
        -14    1    6    6    0    0 -0.38501515875E+02  0.12574478633E+02 -0.23250312066E+01  0.40569569972E+02  0.00000000000E+00 0.  1.
</event>
<event>
12    1  0.1348628E-002  0.2287431E+03  0.7818608E-02  0.1127528E+00
          2   -1    0    0  502    0  0.00000000000E+00  0.00000000000E+00  0.17372801206E+03  0.17372801206E+03  0.00000000000E+00 0. -1.
         -2   -1    0    0    0  501 -0.00000000000E+00 -0.00000000000E+00 -0.43818473719E+03  0.43818473719E+03  0.00000000000E+00 0.  1.
          6    2    1    2  502    0 -0.32346887237E+02  0.14704450747E+03  0.38805648419E+02  0.23212487434E+03  0.17235913277E+03 0.  0.
         24    2    3    3    0    0 -0.35797204449E+02  0.38778218995E+02 -0.14775541850E+01  0.11646018517E+03  0.10380559450E+03 0.  0.
         -6    2    1    2    0  501  0.32346887237E+02 -0.14704450747E+03 -0.30326237355E+03  0.37978787490E+03  0.17205334760E+03 0.  0.
        -24    2    5    5    0    0  0.69070634043E+01 -0.38209927570E+02 -0.46585978379E+02  0.99793210211E+02  0.79251027330E+02 0.  0.
          5    1    3    3  502    0  0.34503172122E+01  0.10826628848E+03  0.40283202604E+02  0.11566468917E+03  0.47000000000E+01 0. -1.
        -11    1    4    4    0    0 -0.92211762779E+01 -0.27020869719E+02  0.27655884666E+02  0.39749282371E+02  0.00000000000E+00 0.  1.
         12    1    4    4    0    0 -0.26576028171E+02  0.65799088714E+02 -0.29133438851E+02  0.76710902799E+02  0.00000000000E+00 0. -1.
         -5    1    5    5    0  501  0.25439823832E+02 -0.10883457990E+03 -0.25667639517E+03  0.27999466469E+03  0.47000000000E+01 0.  1.
         11    1    6    6    0    0 -0.29696734079E+02 -0.49385486019E+01  0.23702026620E+01  0.30197733987E+02  0.00000000000E+00 0. -1.
        -12    1    6    6    0    0  0.36603797484E+02 -0.33271378968E+02 -0.48956181041E+02  0.69595476224E+02  0.00000000000E+00 0.  1.
</event>
<event>
12    1  0.1348628E-002  0.1777603E+03  0.7818608E-02  0.1169988E+00
          2   -1    0    0  502    0  0.00000000000E+00  0.00000000000E+00  0.13007552223E+04  0.13007552223E+04  0.00000000000E+00 0.  1.
         -2   -1    0    0    0  501 -0.00000000000E+00 -0.00000000000E+00 -0.27880333394E+02  0.27880333394E+02  0.00000000000E+00 0. -1.
          6    2    1    2  502    0 -0.37930338367E+02  0.20741173903E+02  0.39626486142E+03  0.43406390570E+03  0.17180432759E+03 0.  0.
         24    2    3    3    0    0 -0.18322654746E+02 -0.40491301765E+02  0.12004544668E+03  0.15042129182E+03  0.78996142746E+02 0.  0.
         -6    2    1    2    0  501  0.37930338367E+02 -0.20741173903E+02  0.87661002753E+03  0.89457165004E+03  0.17304447350E+03 0.  0.
        -24    2    5    5    0    0  0.87153578230E+00  0.42049142761E+02  0.27383711960E+03  0.28738696046E+03  0.76391144706E+02 0.  0.
          5    1    3    3  502    0 -0.19607683622E+02  0.61232475668E+02  0.27621941473E+03  0.28364261388E+03  0.47000000000E+01 0. -1.
        -11    1    4    4    0    0 -0.22600871060E+02  0.92066662295E+01  0.87552203498E+02  0.90889770674E+02  0.00000000000E+00 0.  1.
         12    1    4    4    0    0  0.42782163141E+01 -0.49697967995E+02  0.32493243184E+02  0.59531521148E+02  0.00000000000E+00 0. -1.
         -5    1    5    5    0  501  0.37058802585E+02 -0.62790316664E+02  0.60277290793E+03  0.60718468957E+03  0.47000000000E+01 0.  1.
         13    1    6    6    0    0  0.34191473091E+02  0.41606732709E+02  0.16562973505E+03  0.17416482473E+03  0.00000000000E+00 0. -1.
        -14    1    6    6    0    0 -0.33319937309E+02  0.44241005235E+00  0.10820738455E+03  0.11322213573E+03  0.00000000000E+00 0.  1.
</event>
<event>
12    1  0.1348628E-002  0.1927444E+03  0.7818608E-02  0.1156009E+00
         -1   -1    0    0    0  501 -0.00000000000E+00  0.00000000000E+00  0.14795096255E+02  0.14795096255E+02  0.00000000000E+00 0.  1.
          1   -1    0    0  502    0  0.00000000000E+00 -0.00000000000E+00 -0.26599632133E+04  0.26599632133E+04  0.00000000000E+00 0. -1.
          6    2    1    2  502    0 -0.53857365450E+01  0.87379155642E+02 -0.16468120468E+04  0.16581948595E+04  0.17307845520E+03 0.  0.
         24    2    3    3    0    0 -0.64501258777E+01 -0.17792585693E+02 -0.49213304952E+03  0.49872605664E+03  0.78578374307E+02 0.  0.
         -6    2    1    2    0  501  0.53857365450E+01 -0.87379155642E+02 -0.99835607027E+03  0.10165634501E+04  0.17035927317E+03 0.  0.
        -24    2    5    5    0    0  0.38551088605E+02 -0.43712296296E+02 -0.88508642351E+03  0.89063157141E+03  0.80309822784E+02 0.  0.
          5    1    3    3  502    0  0.10643893327E+01  0.10517174134E+03 -0.11546789973E+04  0.11594688029E+04  0.47000000000E+01 0. -1.
        -13    1    4    4    0    0 -0.11403928647E+02  0.30252708887E+02 -0.18061199894E+03  0.18348288788E+03  0.00000000000E+00 0.  1.
         14    1    4    4    0    0  0.49538027694E+01 -0.48045294580E+02 -0.31152105058E+03  0.31524316876E+03  0.00000000000E+00 0. -1.
         -5    1    5    5    0  501 -0.33165352060E+02 -0.43666859346E+02 -0.11326964676E+03  0.12593187864E+03  0.47000000000E+01 0.  1.
         11    1    6    6    0    0 -0.63577977544E+01  0.90134814291E+01 -0.44431912338E+03  0.44445601339E+03  0.00000000000E+00 0. -1.
        -12    1    6    6    0    0  0.44908886360E+02 -0.52725777725E+02 -0.44076730013E+03  0.44617555802E+03  0.00000000000E+00 0.  1.
</event>
<event>
12    1  0.1348628E-002  0.1960344E+03  0.7818608E-02  0.1153129E+00
         -2   -1    0    0    0  501 -0.00000000000E+00  0.00000000000E+00  0.75883818310E+02  0.75883818310E+02  0.00000000000E+00 0. -1.
          2   -1    0    0  502    0  0.00000000000E+00 -0.00000000000E+00 -0.10280214689E+04  0.10280214689E+04  0.00000000000E+00 0.  1.
          6    2    1    2  502    0 -0.19069802973E+02  0.91894967671E+02 -0.84366782946E+02  0.21453197892E+03  0.17348738699E+03 0.  0.
         24    2    3    3    0    0  0.46526173892E+02  0.10381623259E+02 -0.38228423567E+02  0.10008506675E+03  0.79266293343E+02 0.  0.
         -6    2    1    2    0  501  0.19069802973E+02 -0.91894967671E+02 -0.86777086762E+03  0.88937330827E+03  0.17073447308E+03 0.  0.
        -24    2    5    5    0    0  0.60550213599E+02 -0.67563187848E+02 -0.78015412529E+03  0.78931610707E+03  0.78411382794E+02 0.  0.
          5    1    3    3  502    0 -0.65595976864E+02  0.81513344412E+02 -0.46138359379E+02  0.11444691217E+03  0.47000000000E+01 0. -1.
        -13    1    4    4    0    0 -0.17038567209E+02 -0.87755050447E+01  0.62671448630E+01  0.20164309213E+02  0.00000000000E+00 0.  1.
         14    1    4    4    0    0  0.63564741101E+02  0.19157128304E+02 -0.44495568430E+02  0.79920757541E+02  0.00000000000E+00 0. -1.
         -5    1    5    5    0  501 -0.41480410627E+02 -0.24331779822E+02 -0.87616742336E+02  0.10005720120E+03  0.47000000000E+01 0.  1.
         11    1    6    6    0    0  0.54742834603E+02 -0.81762443852E+02 -0.55615151706E+03  0.56478879689E+03  0.00000000000E+00 0. -1.
        -12    1    6    6    0    0  0.58073789964E+01  0.14199256004E+02 -0.22400260823E+03  0.22452731018E+03  0.00000000000E+00 0.  1.
</event>
<event>
12    1  0.1348628E-002  0.1867226E+03  0.7818608E-02  0.1161451E+00
          2   -1    0    0  502    0  0.00000000000E+00  0.00000000000E+00  0.66386817942E+03  0.66386817942E+03  0.00000000000E+00 0.  1.
         -2   -1    0    0    0  501 -0.00000000000E+00 -0.00000000000E+00 -0.64586875602E+02  0.64586875602E+02  0.00000000000E+00 0. -1.
          6    2    1    2  502    0 -0.60992478465E+02 -0.33530236265E+02  0.45639485613E+03  0.49291547767E+03  0.17269928852E+03 0.  0.
         24    2    3    3    0    0 -0.34693873261E+02 -0.12093340207E+02  0.44937189334E+03  0.45795022128E+03  0.80208434280E+02 0.  0.
         -6    2    1    2    0  501  0.60992478465E+02  0.33530236265E+02  0.14288644769E+03  0.23553957735E+03  0.17383324305E+03 0.  0.
        -24    2    5    5    0    0  0.54275868610E+02 -0.32568732775E+02  0.63021622578E+02  0.13154598694E+03  0.96571369977E+02 0.  0.
          5    1    3    3  502    0 -0.26298605203E+02 -0.21436896058E+02  0.70229627895E+01  0.34965256392E+02  0.47000000000E+01 0. -1.
        -13    1    4    4    0    0 -0.47328378582E+02 -0.19192808831E+02  0.43333830428E+03  0.43633751304E+03  0.00000000000E+00 0.  1.
         14    1    4    4    0    0  0.12634505321E+02  0.70994686233E+01  0.16033589061E+02  0.21612708243E+02  0.00000000000E+00 0. -1.
         -5    1    5    5    0  501  0.67166098542E+01  0.66098969040E+02  0.79864825111E+02  0.10399359041E+03  0.47000000000E+01 0.  1.
         13    1    6    6    0    0  0.56893258779E+02 -0.25218765356E+02 -0.55988362836E+01  0.62483405704E+02  0.00000000000E+00 0. -1.
        -14    1    6    6    0    0 -0.26173901691E+01 -0.73499674188E+01  0.68620458862E+02  0.69062581235E+02  0.00000000000E+00 0.  1.
</event>
<event>
12    1  0.1348628E-002  0.1834438E+03  0.7818608E-02  0.1164511E+00
          2   -1    0    0  502    0  0.00000000000E+00  0.00000000000E+00  0.21712466053E+03  0.21712466053E+03  0.00000000000E+00 0. -1.
         -2   -1    0    0    0  501 -0.00000000000E+00 -0.00000000000E+00 -0.16138492631E+03  0.16138492631E+03  0.00000000000E+00 0.  1.
          6    2    1    2  502    0  0.17441757754E+02  0.63250083050E+02 -0.97299993424E+01  0.18422745295E+03  0.17187289959E+03 0.  0.
         24    2    3    3    0    0 -0.10069893250E+02  0.73033748732E+02 -0.61821629896E+02  0.12432554122E+03  0.78737507405E+02 0.  0.
         -6    2    1    2    0  501 -0.17441757754E+02 -0.63250083050E+02  0.65469733570E+02  0.19428213389E+03  0.17074681144E+03 0.  0.
        -24    2    5    5    0    0 -0.66390643386E+02 -0.59716492375E+02  0.78487122329E+02  0.14329172227E+03  0.79990701385E+02 0.  0.
          5    1    3    3  502    0  0.27511651004E+02 -0.97836656821E+01  0.52091630554E+02  0.59901911730E+02  0.47000000000E+01 0. -1.
        -11    1    4    4    0    0 -0.21502968858E+02  0.86361214746E+02 -0.43903836327E+02  0.99238016538E+02  0.00000000000E+00 0.  1.
         12    1    4    4    0    0  0.11433075608E+02 -0.13327466014E+02 -0.17917793569E+02  0.25087524681E+02  0.00000000000E+00 0. -1.
         -5    1    5    5    0  501  0.48948885632E+02 -0.35335906751E+01 -0.13017388759E+02  0.50990411626E+02  0.47000000000E+01 0.  1.
         13    1    6    6    0    0 -0.16664554368E+02 -0.65396929031E+02  0.58800649784E+02  0.89509676091E+02  0.00000000000E+00 0. -1.
        -14    1    6    6    0    0 -0.49726089018E+02  0.56804366557E+01  0.19686472545E+02  0.53782046177E+02  0.00000000000E+00 0.  1.
</event>
<event>
12    1  0.1348628E-002  0.4530706E+03  0.7818608E-02  0.1026810E+00
         -1   -1    0    0    0  501 -0.00000000000E+00  0.00000000000E+00  0.26332456112E+03  0.26332456112E+03  0.00000000000E+00 0. -1.
          1   -1    0    0  502    0  0.00000000000E+00 -0.00000000000E+00 -0.85324074609E+03  0.85324074609E+03  0.00000000000E+00 0.  1.
          6    2    1    2  502    0  0.41091798582E+03  0.84955466773E+02 -0.45934167806E+03  0.64555375811E+03  0.17226100833E+03 0.  0.
         24    2    3    3    0    0  0.21568848377E+03 -0.12478165747E+02 -0.28743510222E+03  0.36773757421E+03  0.77037386017E+02 0.  0.
         -6    2    1    2    0  501 -0.41091798582E+03 -0.84955466773E+02 -0.13057450690E+03  0.47101154910E+03  0.16950266997E+03 0.  0.
        -24    2    5    5    0    0 -0.40152094681E+03 -0.71136487867E+02 -0.15334417390E+03  0.44237911548E+03  0.76846441104E+02 0.  0.
          5    1    3    3  502    0  0.19522950205E+03  0.97433632521E+02 -0.17190657584E+03  0.27781618390E+03  0.47000000000E+01 0. -1.
        -13    1    4    4    0    0  0.97427314346E+02 -0.72234816912E+00 -0.70087583817E+02  0.12002030150E+03  0.00000000000E+00 0.  1.
         14    1    4    4    0    0  0.11826116943E+03 -0.11755817578E+02 -0.21734751840E+03  0.24771727271E+03  0.00000000000E+00 0. -1.
         -5    1    5    5    0  501 -0.93970390116E+01 -0.13818978906E+02  0.22769666992E+02  0.28632433622E+02  0.47000000000E+01 0.  1.
         11    1    6    6    0    0 -0.30978598541E+03 -0.31527934914E+02 -0.90233447422E+02  0.32419661083E+03  0.00000000000E+00 0. -1.
        -12    1    6    6    0    0 -0.91734961397E+02 -0.39608552953E+02 -0.63110726474E+02  0.11818250465E+03  0.00000000000E+00 0.  1.
</event>
<event>
12    1  0.1348628E-002  0.1777812E+03  0.7818608E-02  0.1169968E+00
          1   -1    0    0  502    0  0.00000000000E+00  0.00000000000E+00  0.12029993855E+04  0.12029993855E+04  0.00000000000E+00 0. -1.
         -1   -1    0    0    0  501 -0.00000000000E+00 -0.00000000000E+00 -0.42455120533E+02  0.42455120533E+02  0.00000000000E+00 0.  1.
          6    2    1    2  502    0 -0.20420901065E+02  0.42240546742E+02  0.19614429591E+03  0.26483493098E+03  0.17164987288E+03 0.  0.
         24    2    3    3    0    0 -0.46962754808E+02  0.34099252940E+02  0.21077280642E+03  0.23310428357E+03  0.80896054929E+02 0.  0.
         -6    2    1    2    0  501  0.20420901065E+02 -0.42240546742E+02  0.96439996909E+03  0.98061957508E+03  0.17130724932E+03 0.  0.
        -24    2    5    5    0    0  0.76296701252E+02 -0.10412143307E+02  0.68890287135E+03  0.69767807375E+03  0.78980561491E+02 0.  0.
          5    1    3    3  502    0  0.26541853743E+02  0.81412938019E+01 -0.14628510515E+02  0.31730647405E+02  0.47000000000E+01 0. -1.
        -13    1    4    4    0    0 -0.12742847109E+02 -0.11245115271E+02  0.24449936593E+01  0.17170054277E+02  0.00000000000E+00 0.  1.
         14    1    4    4    0    0 -0.34219907700E+02  0.45344368210E+02  0.20832781276E+03  0.21593422930E+03  0.00000000000E+00 0. -1.
         -5    1    5    5    0  501 -0.55875800187E+02 -0.31828403435E+02  0.27549709774E+03  0.28294150133E+03  0.47000000000E+01 0.  1.
         13    1    6    6    0    0  0.52030364210E+01  0.79615783400E+01  0.38180391366E+03  0.38192235704E+03  0.00000000000E+00 0. -1.
        -14    1    6    6    0    0  0.71093664831E+02 -0.18373721647E+02  0.30709895769E+03  0.31575571671E+03  0.00000000000E+00 0.  1.
</event>
<event>
12    1  0.1348628E-002  0.1761326E+03  0.7818608E-02  0.1171599E+00
          1   -1    0    0  502    0  0.00000000000E+00  0.00000000000E+00  0.10049581375E+04  0.10049581375E+04  0.00000000000E+00 0.  1.
         -1   -1    0    0    0  501 -0.00000000000E+00 -0.00000000000E+00 -0.33012803023E+02  0.33012803023E+02  0.00000000000E+00 0. -1.
          6    2    1    2  502    0 -0.41976053784E+02 -0.46419169816E+01  0.62114682647E+03  0.64595377849E+03  0.17218991672E+03 0.  0.
         24    2    3    3    0    0  0.13665081897E+01  0.59670551832E+02  0.30195335325E+03  0.31744010347E+03  0.77652750455E+02 0.  0.
         -6    2    1    2    0  501  0.41976053784E+02  0.46419169816E+01  0.35079850799E+03  0.39201716202E+03  0.16980673022E+03 0.  0.
        -24    2    5    5    0    0  0.26292390589E+01 -0.32019905337E+02  0.88763845605E+02  0.12447928557E+03  0.81141142547E+02 0.  0.
          5    1    3    3  502    0 -0.43342561974E+02 -0.64312468814E+02  0.31919347323E+03  0.32851367502E+03  0.47000000000E+01 0. -1.
        -13    1    4    4    0    0 -0.36082673714E+02  0.13719135883E+02  0.12451718526E+03  0.13036373521E+03  0.00000000000E+00 0.  1.
         14    1    4    4    0    0  0.37449181903E+02  0.45951415950E+02  0.17743616798E+03  0.18707636826E+03  0.00000000000E+00 0. -1.
         -5    1    5    5    0  501  0.39346814725E+02  0.36661822319E+02  0.26203466238E+03  0.26753787645E+03  0.47000000000E+01 0.  1.
         13    1    6    6    0    0 -0.29769577082E+02 -0.28830761750E+02  0.15389963409E+02  0.44207369481E+02  0.00000000000E+00 0. -1.
        -14    1    6    6    0    0  0.32398816141E+02 -0.31891435876E+01  0.73373882197E+02  0.80271916090E+02  0.00000000000E+00 0.  1.
</event>
<event>
12    1  0.1348628E-002  0.1825794E+03  0.7818608E-02  0.1165330E+00
         -2   -1    0    0    0  501 -0.00000000000E+00  0.00000000000E+00  0.30289838069E+02  0.30289838069E+02  0.00000000000E+00 0. -1.
          2   -1    0    0  502    0  0.00000000000E+00 -0.00000000000E+00 -0.12487337361E+04  0.12487337361E+04  0.00000000000E+00 0.  1.
          6    2    1    2  502    0  0.60652737823E+02 -0.98828966476E+01 -0.83006861596E+03  0.84995087085E+03  0.17212248371E+03 0.  0.
         24    2    3    3    0    0 -0.12770730742E+02 -0.54997831834E+02 -0.43841806011E+03  0.44890397707E+03  0.78208261236E+02 0.  0.
         -6    2    1    2    0  501 -0.60652737823E+02  0.98828966476E+01 -0.38837528205E+03  0.42907270330E+03  0.17173118167E+03 0.  0.
        -24    2    5    5    0    0 -0.29180460522E+02  0.47685826344E+02 -0.35824366220E+03  0.37119723141E+03  0.79519970980E+02 0.  0.
          5    1    3    3  502    0  0.73423468565E+02  0.45114935186E+02 -0.39165055585E+03  0.40104689378E+03  0.47000000000E+01 0. -1.
        -13    1    4    4    0    0  0.50099638418E+01  0.82980538126E+01 -0.23341790008E+03  0.23361907780E+03  0.00000000000E+00 0.  1.
         14    1    4    4    0    0 -0.17780694584E+02 -0.63295885647E+02 -0.20500016004E+03  0.21528489927E+03  0.00000000000E+00 0. -1.
         -5    1    5    5    0  501 -0.31472277302E+02 -0.37802929696E+02 -0.30131619842E+02  0.57875471890E+02  0.47000000000E+01 0.  1.
         11    1    6    6    0    0 -0.45383377820E+02  0.58988333497E+02 -0.23875452863E+03  0.25008598404E+03  0.00000000000E+00 0. -1.
        -12    1    6    6    0    0  0.16202917298E+02 -0.11302507154E+02 -0.11948913357E+03  0.12111124737E+03  0.00000000000E+00 0.  1.
</event>
<event>
12    1  0.1348628E-002  0.2030218E+03  0.7818608E-02  0.1147214E+00
         -1   -1    0    0    0  501 -0.00000000000E+00  0.00000000000E+00  0.71411622994E+03  0.71411622994E+03  0.00000000000E+00 0.  1.
          1   -1    0    0  502    0  0.00000000000E+00 -0.00000000000E+00 -0.69698292073E+02  0.69698292073E+02  0.00000000000E+00 0. -1.
          6    2    1    2  502    0  0.10797399591E+01 -0.10702743232E+03  0.16001126296E+03  0.25866558508E+03  0.17276644212E+03 0.  0.
         24    2    3    3    0    0 -0.27065391111E+02 -0.83906364000E+02  0.18345869950E+03  0.21509260626E+03  0.69533599988E+02 0.  0.
         -6    2    1    2    0  501 -0.10797399591E+01  0.10702743232E+03  0.48440667490E+03  0.52514893693E+03  0.17226590539E+03 0.  0.
        -24    2    5    5    0    0  0.32020720706E+02  0.97122265582E+02  0.47091708649E+03  0.48776161528E+03  0.75434938631E+02 0.  0.
          5    1    3    3  502    0  0.28145131070E+02 -0.23121068318E+02 -0.23447436543E+02  0.43572978824E+02  0.47000000000E+01 0. -1.
        -11    1    4    4    0    0  0.74948254179E+01 -0.42489068121E+02  0.13787860918E+03  0.14447146496E+03  0.00000000000E+00 0.  1.
         12    1    4    4    0    0 -0.34560216529E+02 -0.41417295879E+02  0.45580090324E+02  0.70621141299E+02  0.00000000000E+00 0. -1.
         -5    1    5    5    0  501 -0.33100460665E+02  0.99051667359E+01  0.13489588410E+02  0.37387321645E+02  0.47000000000E+01 0.  1.
         11    1    6    6    0    0 -0.12317952355E+02  0.77135672567E+02  0.30698293881E+03  0.31676516325E+03  0.00000000000E+00 0. -1.
        -12    1    6    6    0    0  0.44338673060E+02  0.19986593015E+02  0.16393414769E+03  0.17099645203E+03  0.00000000000E+00 0.  1.
</event>
<event>
12    1  0.1348628E-002  0.2178392E+03  0.7818608E-02  0.1135504E+00
         -2   -1    0    0    0  501 -0.00000000000E+00  0.00000000000E+00  0.67361334895E+03  0.67361334895E+03  0.00000000000E+00 0.  1.
          2   -1    0    0  502    0  0.00000000000E+00 -0.00000000000E+00 -0.92152233512E+02  0.92152233512E+02  0.00000000000E+00 0. -1.
          6    2    1    2  502    0  0.12793486738E+03  0.28270664255E+02  0.47844012977E+03  0.52648250830E+03  0.17638682781E+03 0.  0.
         24    2    3    3    0    0  0.49352071603E+02 -0.51137156641E+02  0.25806879348E+03  0.27936619223E+03  0.79970816127E+02 0.  0.
         -6    2    1    2    0  501 -0.12793486738E+03 -0.28270664255E+02  0.10302098567E+03  0.23928307416E+03  0.17168723116E+03 0.  0.
        -24    2    5    5    0    0 -0.11529939959E+03 -0.79233550050E+02  0.59563328849E+02  0.17096375983E+03  0.78159516576E+02 0.  0.
          5    1    3    3  502    0  0.78582795772E+02  0.79407820896E+02  0.22037133629E+03  0.24711631607E+03  0.47000000000E+01 0. -1.
        -11    1    4    4    0    0  0.43919160023E+02 -0.51255651802E+02  0.26330547802E+03  0.27181944231E+03  0.00000000000E+00 0.  1.
         12    1    4    4    0    0  0.54329115796E+01  0.11849516102E+00 -0.52366845460E+01  0.75467499210E+01  0.00000000000E+00 0. -1.
         -5    1    5    5    0  501 -0.12635467787E+02  0.50962885796E+02  0.43457656823E+02  0.68319314336E+02  0.47000000000E+01 0.  1.
         11    1    6    6    0    0 -0.42048824382E+02  0.61330997182E+01 -0.23608161626E+01  0.42559276275E+02  0.00000000000E+00 0. -1.
        -12    1    6    6    0    0 -0.73250575206E+02 -0.85366649769E+02  0.61924145011E+02  0.12840448355E+03  0.00000000000E+00 0.  1.
</event>
<event>
12    1  0.1348628E-002  0.1780865E+03  0.7818608E-02  0.1169668E+00
          1   -1    0    0  502    0  0.00000000000E+00  0.00000000000E+00  0.18016190196E+03  0.18016190196E+03  0.00000000000E+00 0. -1.
         -1   -1    0    0    0  501 -0.00000000000E+00 -0.00000000000E+00 -0.21015683660E+03  0.21015683660E+03  0.00000000000E+00 0.  1.
          6    2    1    2  502    0 -0.46141974053E+02  0.85495316280E+00 -0.93663900852E+02  0.20158582687E+03  0.17243580417E+03 0.  0.
         24    2    3    3    0    0  0.37364505950E+02 -0.11539497923E+02 -0.27329935982E+02  0.94118438724E+02  0.81130073277E+02 0.  0.
         -6    2    1    2    0  501  0.46141974053E+02 -0.85495316280E+00  0.63668966211E+02  0.18873291168E+03  0.17157086576E+03 0.  0.
        -24    2    5    5    0    0  0.25610807153E+01  0.44498195694E+02 -0.86047783802E+01  0.92806968723E+02  0.80947159790E+02 0.  0.
          5    1    3    3  502    0 -0.83506480003E+02  0.12394451086E+02 -0.66333964870E+02  0.10746738815E+03  0.47000000000E+01 0. -1.
        -11    1    4    4    0    0  0.17385759300E+01 -0.42650867998E+02 -0.11003687926E+02  0.44081746055E+02  0.00000000000E+00 0.  1.
         12    1    4    4    0    0  0.35625930020E+02  0.31111370075E+02 -0.16326248056E+02  0.50036692670E+02  0.00000000000E+00 0. -1.
         -5    1    5    5    0  501  0.43580893337E+02 -0.45353148857E+02  0.72273744591E+02  0.95925942959E+02  0.47000000000E+01 0.  1.
         11    1    6    6    0    0  0.21832649517E+02  0.45785113957E+02  0.23057283210E+02  0.55718754060E+02  0.00000000000E+00 0. -1.
        -12    1    6    6    0    0 -0.19271568801E+02 -0.12869182632E+01 -0.31662061591E+02  0.37088214662E+02  0.00000000000E+00 0.  1.
</event>
<event>
12    1  0.1348628E-002  0.1868056E+03  0.7818608E-02  0.1161374E+00
         -1   -1    0    0    0  501 -0.00000000000E+00  0.00000000000E+00  0.26808811297E+03  0.26808811297E+03  0.00000000000E+00 0. -1.
          1   -1    0    0  502    0  0.00000000000E+00 -0.00000000000E+00 -0.13416165283E+03  0.13416165283E+03  0.00000000000E+00 0.  1.
          6    2    1    2  502    0  0.67395486630E+02 -0.25370028882E+02  0.10182892975E+03  0.21317755313E+03  0.17288651839E+03 0.  0.
         24    2    3    3    0    0  0.77672394622E+02  0.30047406659E+02  0.25887706057E+02  0.11848929380E+03  0.80210297886E+02 0.  0.
         -6    2    1    2    0  501 -0.67395486630E+02  0.25370028882E+02  0.32097530390E+02  0.18907221267E+03  0.17184952767E+03 0.  0.
        -24    2    5    5    0    0 -0.10086491960E+02 -0.35060679250E+02  0.55680523641E+02  0.10238634919E+03  0.77792385478E+02 0.  0.
          5    1    3    3  502    0 -0.10276907992E+02 -0.55417435541E+02  0.75941223689E+02  0.94688259331E+02  0.47000000000E+01 0. -1.
        -11    1    4    4    0    0  0.32987430321E+02  0.24515815581E+02  0.52122851147E+02  0.66377612073E+02  0.00000000000E+00 0.  1.
         12    1    4    4    0    0  0.44684964301E+02  0.55315910781E+01 -0.26235145090E+02  0.52111681726E+02  0.00000000000E+00 0. -1.
         -5    1    5    5    0  501 -0.57308994670E+02  0.60430708132E+02 -0.23582993251E+02  0.86685863474E+02  0.47000000000E+01 0.  1.
         11    1    6    6    0    0  0.28180247371E+02 -0.33960457716E+02  0.15208526345E+02  0.46676956881E+02  0.00000000000E+00 0. -1.
        -12    1    6    6    0    0 -0.38266739331E+02 -0.11002215342E+01  0.40471997296E+02  0.55709392310E+02  0.00000000000E+00 0.  1.
</event>
<event>
12    1  0.1348628E-002  0.1983895E+03  0.7818608E-02  0.1151105E+00
          1   -1    0    0  502    0  0.00000000000E+00  0.00000000000E+00  0.11649781543E+04  0.11649781543E+04  0.00000000000E+00 0. -1.
         -1   -1    0    0    0  501 -0.00000000000E+00 -0.00000000000E+00 -0.39888668649E+02  0.39888668649E+02  0.00000000000E+00 0.  1.
          6    2    1    2  502    0  0.88448399914E+02 -0.45432864785E+02  0.32462112543E+03  0.37995104438E+03  0.17057742055E+03 0.  0.
         24    2    3    3    0    0  0.11804894885E+03 -0.16153158373E+02  0.18262417310E+03  0.23190132917E+03  0.78931356366E+02 0.  0.
         -6    2    1    2    0  501 -0.88448399914E+02  0.45432864785E+02  0.80046836026E+03  0.82491577861E+03  0.17276915630E+03 0.  0.
        -24    2    5    5    0    0 -0.10142930165E+03 -0.17463599890E+02  0.61462930481E+03  0.62823656362E+03  0.79492873769E+02 0.  0.
          5    1    3    3  502    0 -0.29600548934E+02 -0.29279706412E+02  0.14199695233E+03  0.14804971522E+03  0.47000000000E+01 0. -1.
        -11    1    4    4    0    0  0.37419310185E+02  0.30916560997E+02  0.49751194175E+02  0.69506976919E+02  0.00000000000E+00 0.  1.
         12    1    4    4    0    0  0.80629638663E+02 -0.47069719370E+02  0.13287297893E+03  0.16239435225E+03  0.00000000000E+00 0. -1.
         -5    1    5    5    0  501  0.12980901739E+02  0.62896464675E+02  0.18583905544E+03  0.19667921499E+03  0.47000000000E+01 0.  1.
         13    1    6    6    0    0  0.43498134422E+01  0.12464733277E+02  0.23340826678E+02  0.26815753628E+02  0.00000000000E+00 0. -1.
        -14    1    6    6    0    0 -0.10577911509E+03 -0.29928333167E+02  0.59128847814E+03  0.60142080999E+03  0.00000000000E+00 0.  1.
</event>
<event>
12    1  0.1348628E-002  0.1978130E+03  0.7818608E-02  0.1151597E+00
          2   -1    0    0  502    0  0.00000000000E+00  0.00000000000E+00  0.26827452474E+04  0.26827452474E+04  0.00000000000E+00 0. -1.
         -2   -1    0    0    0  501 -0.00000000000E+00 -0.00000000000E+00 -0.17929958648E+02  0.17929958648E+02  0.00000000000E+00 0.  1.
          6    2    1    2  502    0  0.41583441651E+02 -0.87603632676E+02  0.19148994087E+04  0.19250768195E+04  0.17227140397E+03 0.  0.
         24    2    3    3    0    0 -0.60119904249E+01 -0.11557091902E+03  0.14276345430E+04  0.14346722584E+04  0.82166411996E+02 0.  0.
         -6    2    1    2    0  501 -0.41583441651E+02  0.87603632676E+02  0.74991588005E+03  0.77559838650E+03  0.17255564586E+03 0.  0.
        -24    2    5    5    0    0 -0.39482687831E+02  0.12069752835E+03  0.68363179433E+03  0.70133339396E+03  0.91593249109E+02 0.  0.
          5    1    3    3  502    0  0.47595432075E+02  0.27967286339E+02  0.48726486567E+03  0.49040456113E+03  0.47000000000E+01 0. -1.
        -13    1    4    4    0    0  0.16353022386E+02 -0.10362392069E+03  0.84513432066E+03  0.85162043085E+03  0.00000000000E+00 0.  1.
         14    1    4    4    0    0 -0.22365012810E+02 -0.11946998321E+02  0.58250022233E+03  0.58305182753E+03  0.00000000000E+00 0. -1.
         -5    1    5    5    0  501 -0.21007538197E+01 -0.33093895670E+02  0.66284085720E+02  0.74264992540E+02  0.47000000000E+01 0.  1.
         11    1    6    6    0    0 -0.59368770065E+02  0.12279130056E+03  0.58406142579E+03  0.59977504404E+03  0.00000000000E+00 0. -1.
        -12    1    6    6    0    0  0.19886082234E+02 -0.20937722167E+01  0.99570368541E+02  0.10155834993E+03  0.00000000000E+00 0.  1.
</event>
<event>
12    1  0.1348628E-002  0.4052031E+03  0.7818608E-02  0.1041993E+00
         -2   -1    0    0    0  501 -0.00000000000E+00  0.00000000000E+00  0.21346453660E+03  0.21346453660E+03  0.00000000000E+00 0. -1.
          2   -1    0    0  502    0  0.00000000000E+00 -0.00000000000E+00 -0.78832959217E+03  0.78832959217E+03  0.00000000000E+00 0.  1.
          6    2    1    2  502    0 -0.30640141066E+03 -0.20191733801E+03 -0.20924808206E+03  0.45593055139E+03  0.17156768928E+03 0.  0.
         24    2    3    3    0    0 -0.67305645796E+02 -0.95315586307E+02 -0.56546912555E+02  0.15282915679E+03  0.80895530760E+02 0.  0.
         -6    2    1    2    0  501  0.30640141066E+03  0.20191733801E+03 -0.36561697351E+03  0.54586357737E+03  0.17215933881E+03 0.  0.
        -24    2    5    5    0    0  0.22941393910E+03  0.88761845420E+02 -0.17977784254E+03  0.31501837192E+03  0.80044246036E+02 0.  0.
          5    1    3    3  502    0 -0.23909576486E+03 -0.10660175170E+03 -0.15270116951E+03  0.30310139460E+03  0.47000000000E+01 0. -1.
        -13    1    4    4    0    0 -0.66579893716E+02 -0.91093433416E+02 -0.73950663658E+02  0.13490588021E+03  0.00000000000E+00 0.  1.
         14    1    4    4    0    0 -0.72575208058E+00 -0.42221528911E+01  0.17403751102E+02  0.17923276585E+02  0.00000000000E+00 0. -1.
         -5    1    5    5    0  501  0.76987471559E+02  0.11315549259E+03 -0.18583913097E+03  0.23084520545E+03  0.47000000000E+01 0.  1.
         13    1    6    6    0    0  0.11010641870E+03  0.74136378154E+02 -0.61183550749E+02  0.14616105120E+03  0.00000000000E+00 0. -1.
        -14    1    6    6    0    0  0.11930752040E+03  0.14625467266E+02 -0.11859429179E+03  0.16885732072E+03  0.00000000000E+00 0.  1.
</event>
<event>
12    1  0.1348628E-002  0.2015263E+03  0.7818608E-02  0.1148458E+00
         -2   -1    0    0    0  501 -0.00000000000E+00  0.00000000000E+00  0.86290459125E+03  0.86290459125E+03  0.00000000000E+00 0. -1.
          2   -1    0    0  502    0  0.00000000000E+00 -0.00000000000E+00 -0.47153237923E+02  0.47153237923E+02  0.00000000000E+00 0.  1.
          6    2    1    2  502    0 -0.94202662826E+02  0.37091833412E+02  0.43148517283E+03  0.47721416621E+03  0.17692925215E+03 0.  0.
         24    2    3    3    0    0 -0.60971996762E+01  0.56964325934E+02  0.13382098071E+03  0.16611361997E+03  0.80022306825E+02 0.  0.
         -6    2    1    2    0  501  0.94202662826E+02 -0.37091833412E+02  0.38426618050E+03  0.43284366297E+03  0.17159019001E+03 0.  0.
        -24    2    5    5    0    0  0.10998353820E+03  0.18901389883E+02  0.22617329089E+03  0.26432147206E+03  0.79106522278E+02 0.  0.
          5    1    3    3  502    0 -0.88105463150E+02 -0.19872492522E+02  0.29766419212E+03  0.31110054623E+03  0.47000000000E+01 0. -1.
        -11    1    4    4    0    0 -0.40471308690E+02  0.32723285619E+02  0.97581219406E+02  0.11059310390E+03  0.00000000000E+00 0.  1.
         12    1    4    4    0    0  0.34374109014E+02  0.24241040314E+02  0.36239761302E+02  0.55520516075E+02  0.00000000000E+00 0. -1.
         -5    1    5    5    0  501 -0.15780875374E+02 -0.55993223295E+02  0.15809288961E+03  0.16852219091E+03  0.47000000000E+01 0.  1.
         13    1    6    6    0    0  0.64674146927E+01 -0.78319783258E+01  0.92951870879E+02  0.93505174388E+02  0.00000000000E+00 0. -1.
        -14    1    6    6    0    0  0.10351612351E+03  0.26733368209E+02  0.13322142001E+03  0.17081629768E+03  0.00000000000E+00 0.  1.
</event>
<event>
12    1  0.1348628E-002  0.2575011E+03  0.7818608E-02  0.1108654E+00
          1   -1    0    0  502    0  0.00000000000E+00  0.00000000000E+00  0.91163474486E+03  0.91163474486E+03  0.00000000000E+00 0. -1.
         -1   -1    0    0    0  501 -0.00000000000E+00 -0.00000000000E+00 -0.13780916029E+03  0.13780916029E+03  0.00000000000E+00 0.  1.
          6    2    1    2  502    0  0.17000789877E+03  0.88440732302E+02  0.26655546262E+02  0.25927738722E+03  0.17259720914E+03 0.  0.
         24    2    3    3    0    0  0.16863471209E+03  0.27255190390E+02 -0.46934989218E+01  0.19035417767E+03  0.83858049702E+02 0.  0.
         -6    2    1    2    0  501 -0.17000789877E+03 -0.88440732302E+02  0.74717003831E+03  0.79016651792E+03  0.17139314782E+03 0.  0.
        -24    2    5    5    0    0 -0.68835580018E+02  0.17944539050E+02  0.26264095851E+03  0.28386208064E+03  0.80852113009E+02 0.  0.
          5    1    3    3  502    0  0.13731866814E+01  0.61185541913E+02  0.31349045183E+02  0.68923209550E+02  0.47000000000E+01 0. -1.
        -13    1    4    4    0    0  0.45872778960E+02 -0.29997017440E+02  0.18875158232E+00  0.54810295857E+02  0.00000000000E+00 0.  1.
         14    1    4    4    0    0  0.12276193313E+03  0.57252207829E+02 -0.48822505041E+01  0.13554388182E+03  0.00000000000E+00 0. -1.
         -5    1    5    5    0  501 -0.10117231876E+03 -0.10638527135E+03  0.48452907980E+03  0.50630443728E+03  0.47000000000E+01 0.  1.
         11    1    6    6    0    0 -0.71707471754E+01 -0.11696950100E+02  0.13780986697E+01  0.13789032332E+02  0.00000000000E+00 0. -1.
        -12    1    6    6    0    0 -0.61664832843E+02  0.29641489150E+02  0.26126285984E+03  0.27007304831E+03  0.00000000000E+00 0.  1.
</event>
<event>
12    1  0.1348628E-002  0.2639462E+03  0.7818608E-02  0.1104795E+00
          1   -1    0    0  502    0  0.00000000000E+00  0.00000000000E+00  0.14044100249E+04  0.14044100249E+04  0.00000000000E+00 0. -1.
         -1   -1    0    0    0  501 -0.00000000000E+00 -0.00000000000E+00 -0.58022875887E+02  0.58022875887E+02  0.00000000000E+00 0.  1.
          6    2    1    2  502    0 -0.18859102441E+03 -0.61699409684E+02  0.95558632407E+03  0.99185392937E+03  0.17679254175E+03 0.  0.
         24    2    3    3    0    0 -0.21564376116E+03 -0.60007153936E+02  0.83329294910E+03  0.86650452229E+03  0.79685995465E+02 0.  0.
         -6    2    1    2    0  501  0.18859102441E+03  0.61699409684E+02  0.39080082494E+03  0.47057897141E+03  0.17130642695E+03 0.  0.
        -24    2    5    5    0    0  0.59475302127E+02 -0.25147281610E+02  0.16420549407E+03  0.19565943499E+03  0.84554555673E+02 0.  0.
          5    1    3    3  502    0  0.27052736751E+02 -0.16922557484E+01  0.12229337497E+03  0.12534940708E+03  0.47000000000E+01 0. -1.
        -11    1    4    4    0    0 -0.10466596241E+03 -0.66996214546E+02  0.38158685454E+03  0.40131282562E+03  0.00000000000E+00 0.  1.
         12    1    4    4    0    0 -0.11097779875E+03  0.69890606103E+01  0.45170609456E+03  0.46519169666E+03  0.00000000000E+00 0. -1.
         -5    1    5    5    0  501  0.12911572228E+03  0.86846691294E+02  0.22659533087E+03  0.27491953641E+03  0.47000000000E+01 0.  1.
         13    1    6    6    0    0 -0.21619012543E+02 -0.78877044112E+00  0.30351774111E+02  0.37272430211E+02  0.00000000000E+00 0. -1.
        -14    1    6    6    0    0  0.81094314670E+02 -0.24358511168E+02  0.13385371996E+03  0.15838700478E+03  0.00000000000E+00 0.  1.
</event>
<event>
12    1  0.1348628E-002  0.1804355E+03  0.7818608E-02  0.1167382E+00
          4   -1    0    0  502    0  0.00000000000E+00  0.00000000000E+00  0.82689659126E+03  0.82689659126E+03  0.00000000000E+00 0. -1.
         -4   -1    0    0    0  501 -0.00000000000E+00 -0.00000000000E+00 -0.39381312693E+02  0.39381312693E+02  0.00000000000E+00 0.  1.
          6    2    1    2  502    0 -0.60581126520E+02  0.36997707441E+01  0.38583996225E+03  0.42561248074E+03  0.16908502626E+03 0.  0.
         24    2    3    3    0    0 -0.23611721856E+02 -0.21603172566E+02  0.36668169245E+03  0.37666245395E+03  0.79968307256E+02 0.  0.
         -6    2    1    2    0  501  0.60581126520E+02 -0.36997707441E+01  0.40167531632E+03  0.44066542321E+03  0.17076063445E+03 0.  0.
        -24    2    5    5    0    0 -0.16347452124E+02  0.36465624787E+02  0.15452160794E+03  0.17867628073E+03  0.80320016145E+02 0.  0.
          5    1    3    3  502    0 -0.36969404664E+02  0.25302943310E+02  0.19158269797E+02  0.48950026793E+02  0.47000000000E+01 0. -1.
        -11    1    4    4    0    0  0.98296017078E+00 -0.77481685908E+01 -0.10219453757E+01  0.78768457875E+01  0.00000000000E+00 0.  1.
         12    1    4    4    0    0 -0.24594682026E+02 -0.13855003976E+02  0.36770363782E+03  0.36878560816E+03  0.00000000000E+00 0. -1.
         -5    1    5    5    0  501  0.76928578644E+02 -0.40165395531E+02  0.24715370838E+03  0.26198914248E+03  0.47000000000E+01 0.  1.
         11    1    6    6    0    0  0.10151310134E+02 -0.11677101536E+02  0.10026340524E+03  0.10145025494E+03  0.00000000000E+00 0. -1.
        -12    1    6    6    0    0 -0.26498762259E+02  0.48142726323E+02  0.54258202707E+02  0.77226025795E+02  0.00000000000E+00 0.  1.
</event>
<event>
12    1  0.1348628E-002  0.2099700E+03  0.7818608E-02  0.1141590E+00
         -4   -1    0    0    0  501 -0.00000000000E+00  0.00000000000E+00  0.11124569665E+03  0.11124569665E+03  0.00000000000E+00 0.  1.
          4   -1    0    0  502    0  0.00000000000E+00 -0.00000000000E+00 -0.39725666127E+03  0.39725666127E+03  0.00000000000E+00 0. -1.
          6    2    1    2  502    0 -0.77304924672E+02 -0.80138254225E+02 -0.12875117283E+03  0.24188605264E+03  0.17185402756E+03 0.  0.
         24    2    3    3    0    0  0.23388920689E+02 -0.41013589315E+02 -0.81050100405E+02  0.12370199192E+03  0.80646809673E+02 0.  0.
         -6    2    1    2    0  501  0.77304924672E+02  0.80138254225E+02 -0.15725979179E+03  0.26661630528E+03  0.18426996760E+03 0.  0.
        -24    2    5    5    0    0  0.14588254530E+02 -0.24620391525E+02 -0.10556203717E+03  0.13394188271E+03  0.77318195810E+02 0.  0.
          5    1    3    3  502    0 -0.10069384536E+03 -0.39124664910E+02 -0.47701072424E+02  0.11818406072E+03  0.47000000000E+01 0. -1.
        -13    1    4    4    0    0  0.18107891612E+02 -0.23136206841E+02  0.97906605378E+01  0.30968319932E+02  0.00000000000E+00 0.  1.
         14    1    4    4    0    0  0.52810290766E+01 -0.17877382474E+02 -0.90840760943E+02  0.92733671991E+02  0.00000000000E+00 0. -1.
         -5    1    5    5    0  501  0.62716670142E+02  0.10475864575E+03 -0.51697754621E+02  0.13267442258E+03  0.47000000000E+01 0.  1.
         13    1    6    6    0    0 -0.17310997417E+02 -0.18381840565E+02 -0.97135654651E+02  0.10036382864E+03  0.00000000000E+00 0. -1.
        -14    1    6    6    0    0  0.31899251947E+02 -0.62385509601E+01 -0.84263825152E+01  0.33578054070E+02  0.00000000000E+00 0.  1.
</event>
<event>
12    1  0.1348628E-002  0.1794169E+03  0.7818608E-02  0.1168369E+00
          1   -1    0    0  502    0  0.00000000000E+00  0.00000000000E+00  0.87684143209E+02  0.87684143209E+02  0.00000000000E+00 0. -1.
         -1   -1    0    0    0  501 -0.00000000000E+00 -0.00000000000E+00 -0.41699539043E+03  0.41699539043E+03  0.00000000000E+00 0.  1.
          6    2    1    2  502    0  0.48958663211E+01  0.45732436544E+02 -0.25087971888E+03  0.30769656936E+03  0.17210787370E+03 0.  0.
         24    2    3    3    0    0  0.21033037919E+02  0.88435302699E+02 -0.22435142816E+03  0.25468918031E+03  0.79182218981E+02 0.  0.
         -6    2    1    2    0  501 -0.48958663211E+01 -0.45732436544E+02 -0.78431528341E+02  0.19698296428E+03  0.17474369322E+03 0.  0.
        -24    2    5    5    0    0 -0.33806552006E+02  0.36401952765E+02 -0.48613446742E+02  0.10482498229E+03  0.78466710045E+02 0.  0.
          5    1    3    3  502    0 -0.16137171598E+02 -0.42702866155E+02 -0.26528290722E+02  0.53007389048E+02  0.47000000000E+01 0. -1.
        -13    1    4    4    0    0 -0.30305222489E+02  0.37750088568E+02 -0.89721714332E+02  0.10194832868E+03  0.00000000000E+00 0.  1.
         14    1    4    4    0    0  0.51338260407E+02  0.50685214131E+02 -0.13462971383E+03  0.15274085164E+03  0.00000000000E+00 0. -1.
         -5    1    5    5    0  501  0.28910685685E+02 -0.82134389309E+02 -0.29818081598E+02  0.92157981988E+02  0.47000000000E+01 0.  1.
         13    1    6    6    0    0 -0.11306567040E+02 -0.19038481092E+02  0.69135129043E+01  0.23196958447E+02  0.00000000000E+00 0. -1.
        -14    1    6    6    0    0 -0.22499984966E+02  0.55440433856E+02 -0.55526959647E+02  0.81628023848E+02  0.00000000000E+00 0.  1.
</event>
<event>
12    1  0.1348628E-002  0.2001344E+03  0.7818608E-02  0.1149626E+00
         -2   -1    0    0    0  501 -0.00000000000E+00  0.00000000000E+00  0.99587275237E+03  0.99587275237E+03  0.00000000000E+00 0.  1.
          2   -1    0    0  502    0  0.00000000000E+00 -0.00000000000E+00 -0.41142428314E+02  0.41142428314E+02  0.00000000000E+00 0. -1.
          6    2    1    2  502    0  0.78582844874E+02  0.47012127853E+02  0.54086399978E+03  0.57484394413E+03  0.17183215695E+03 0.  0.
         24    2    3    3    0    0  0.70582619718E+02 -0.24817487944E+02  0.41880212918E+03  0.43291196195E+03  0.80123214375E+02 0.  0.
         -6    2    1    2    0  501 -0.78582844874E+02 -0.47012127853E+02  0.41386632428E+03  0.46217123656E+03  0.18420508642E+03 0.  0.
        -24    2    5    5    0    0 -0.12575959249E+03 -0.47693410516E+02  0.29577837632E+03  0.33491966245E+03  0.81216967993E+02 0.  0.
          5    1    3    3  502    0  0.80002251561E+01  0.71829615796E+02  0.12206187060E+03  0.14193198217E+03  0.47000000000E+01 0. -1.
        -11    1    4    4    0    0  0.44789183166E+02 -0.18437391966E+02  0.39266348785E+03  0.39563951148E+03  0.00000000000E+00 0.  1.
         12    1    4    4    0    0  0.25793436552E+02 -0.63800959775E+01  0.26138641330E+02  0.37272450475E+02  0.00000000000E+00 0. -1.
         -5    1    5    5    0  501  0.47176747611E+02  0.68128266369E+00  0.11808794795E+03  0.12725157411E+03  0.47000000000E+01 0.  1.
         13    1    6    6    0    0 -0.10731528861E+03 -0.24874910647E+02  0.14935894497E+03  0.18558940377E+03  0.00000000000E+00 0. -1.
        -14    1    6    6    0    0 -0.18444303879E+02 -0.22818499870E+02  0.14641943135E+03  0.14933025869E+03  0.00000000000E+00 0.  1.
</event>
<event>
12    1  0.1348628E-002  0.1723147E+03  0.7818608E-02  0.1175455E+00
         -1   -1    0    0    0  501 -0.00000000000E+00  0.00000000000E+00  0.19712311531E+02  0.19712311531E+02  0.00000000000E+00 0.  1.
          1   -1    0    0  502    0  0.00000000000E+00 -0.00000000000E+00 -0.16466344341E+04  0.16466344341E+04  0.00000000000E+00 0. -1.
          6    2    1    2  502    0 -0.19601377973E+02  0.61684884117E+01 -0.56502539896E+03  0.59036348199E+03  0.16986192960E+03 0.  0.
         24    2    3    3    0    0  0.32933290682E+02 -0.29167958995E+02 -0.43553891872E+03  0.44615046423E+03  0.86143575182E+02 0.  0.
         -6    2    1    2    0  501  0.19601377973E+02 -0.61684884117E+01 -0.10618967236E+04  0.10759832636E+04  0.17231676575E+03 0.  0.
        -24    2    5    5    0    0 -0.38666538245E+02 -0.23166069997E+02 -0.35505162555E+03  0.36652138976E+03  0.79022176435E+02 0.  0.
          5    1    3    3  502    0 -0.52534668655E+02  0.35336447407E+02 -0.12948648024E+03  0.14421301776E+03  0.47000000000E+01 0. -1.
        -11    1    4    4    0    0  0.42501952936E+02  0.19748219470E+02 -0.21533784284E+03  0.22037875291E+03  0.00000000000E+00 0.  1.
         12    1    4    4    0    0 -0.95686622532E+01 -0.48916178465E+02 -0.22020107588E+03  0.22577171132E+03  0.00000000000E+00 0. -1.
         -5    1    5    5    0  501  0.58267916218E+02  0.16997581585E+02 -0.70684509803E+03  0.70946187385E+03  0.47000000000E+01 0.  1.
         13    1    6    6    0    0 -0.21693303501E+02  0.13764070598E+02 -0.27995626531E+03  0.28113263692E+03  0.00000000000E+00 0. -1.
        -14    1    6    6    0    0 -0.16973234745E+02 -0.36930140595E+02 -0.75095360237E+02  0.85388752837E+02  0.00000000000E+00 0.  1.
</event>
<event>
12    1  0.1348628E-002  0.1757247E+03  0.7818608E-02  0.1172006E+00
         -1   -1    0    0    0  501 -0.00000000000E+00  0.00000000000E+00  0.19128746821E+02  0.19128746821E+02  0.00000000000E+00 0.  1.
          1   -1    0    0  502    0  0.00000000000E+00 -0.00000000000E+00 -0.17700043020E+04  0.17700043020E+04  0.00000000000E+00 0. -1.
          6    2    1    2  502    0  0.46825337224E+02  0.65272955700E+00 -0.60558744308E+03  0.63028936600E+03  0.16833150453E+03 0.  0.
         24    2    3    3    0    0  0.23224663187E+02 -0.50520135777E+01 -0.12694155411E+03  0.15100499015E+03  0.78252418933E+02 0.  0.
         -6    2    1    2    0  501 -0.46825337224E+02 -0.65272955700E+00 -0.11452881121E+04  0.11588436829E+04  0.17041356528E+03 0.  0.
        -24    2    5    5    0    0 -0.40836122072E+02 -0.51563681643E+02 -0.99776704915E+03  0.10025991637E+04  0.73072543134E+02 0.  0.
          5    1    3    3  502    0  0.23600674037E+02  0.57047431347E+01 -0.47864588897E+03  0.47928437586E+03  0.47000000000E+01 0. -1.
        -13    1    4    4    0    0 -0.26192343244E+02  0.12213720148E+02 -0.53660171606E+02  0.60947746646E+02  0.00000000000E+00 0.  1.
         14    1    4    4    0    0  0.49417006431E+02 -0.17265733726E+02 -0.73281382499E+02  0.90057243499E+02  0.00000000000E+00 0. -1.
         -5    1    5    5    0  501 -0.59892151517E+01  0.50910952086E+02 -0.14752106299E+03  0.15624451916E+03  0.47000000000E+01 0.  1.
         13    1    6    6    0    0  0.17053544733E+02  0.45715653494E+01 -0.18766149119E+03  0.18849020631E+03  0.00000000000E+00 0. -1.
        -14    1    6    6    0    0 -0.57889666805E+02 -0.56135246993E+02 -0.81010555796E+03  0.81410895739E+03  0.00000000000E+00 0.  1.
</event>
<event>
12    1  0.1348628E-002  0.1958875E+03  0.7818608E-02  0.1153256E+00
         -4   -1    0    0    0  501 -0.00000000000E+00  0.00000000000E+00  0.12670800930E+03  0.12670800930E+03  0.00000000000E+00 0. -1.
          4   -1    0    0  502    0  0.00000000000E+00 -0.00000000000E+00 -0.31338241246E+03  0.31338241246E+03  0.00000000000E+00 0.  1.
          6    2    1    2  502    0  0.76797981264E+02 -0.54561342840E+02 -0.53102802107E+02  0.20322842808E+03  0.17206689493E+03 0.  0.
         24    2    3    3    0    0  0.10309186518E+03  0.65400360890E+01 -0.34969629211E+02  0.13412235890E+03  0.78071937677E+02 0.  0.
         -6    2    1    2    0  501 -0.76797981264E+02  0.54561342840E+02 -0.13357160105E+03  0.23686199368E+03  0.17142742309E+03 0.  0.
        -24    2    5    5    0    0  0.44229965994E+01  0.38138289830E+01 -0.39537123086E+02  0.10256109848E+03  0.94453621572E+02 0.  0.
          5    1    3    3  502    0 -0.26293883912E+02 -0.61101378929E+02 -0.18133172897E+02  0.69106069180E+02  0.47000000000E+01 0. -1.
        -13    1    4    4    0    0  0.23101006897E+02 -0.21055281309E+02 -0.38305287425E+02  0.49439624142E+02  0.00000000000E+00 0.  1.
         14    1    4    4    0    0  0.79990858280E+02  0.27595317398E+02  0.33356582139E+01  0.84682734760E+02  0.00000000000E+00 0. -1.
         -5    1    5    5    0  501 -0.81220977864E+02  0.50747513857E+02 -0.94034477961E+02  0.13430089521E+03  0.47000000000E+01 0.  1.
         13    1    6    6    0    0  0.32029738501E+02  0.32729186179E+02  0.75615387528E+00  0.45800388045E+02  0.00000000000E+00 0. -1.
        -14    1    6    6    0    0 -0.27606741902E+02 -0.28915357196E+02 -0.40293276962E+02  0.56760710430E+02  0.00000000000E+00 0.  1.
</event>
<event>
12    1  0.1348628E-002  0.2357747E+03  0.7818608E-02  0.1122640E+00
          1   -1    0    0  502    0  0.00000000000E+00  0.00000000000E+00  0.41691358831E+03  0.41691358831E+03  0.00000000000E+00 0. -1.
         -1   -1    0    0    0  501 -0.00000000000E+00 -0.00000000000E+00 -0.27555520499E+03  0.27555520499E+03  0.00000000000E+00 0.  1.
          6    2    1    2  502    0 -0.66291101966E+02  0.14457381845E+03 -0.17816524808E+03  0.29493473232E+03  0.17305357992E+03 0.  0.
         24    2    3    3    0    0 -0.21575654446E+02 -0.12328683334E+01 -0.58803674155E+02  0.10121241433E+03  0.79492464368E+02 0.  0.
         -6    2    1    2    0  501  0.66291101966E+02 -0.14457381845E+03  0.31952363141E+03  0.39753406098E+03  0.17504822031E+03 0.  0.
        -24    2    5    5    0    0  0.91079102743E+02 -0.70748433721E+02  0.27251196334E+03  0.30644718296E+03  0.79664056834E+02 0.  0.
          5    1    3    3  502    0 -0.44715447519E+02  0.14580668679E+03 -0.11936157393E+03  0.19372231799E+03  0.47000000000E+01 0. -1.
        -13    1    4    4    0    0 -0.25575820687E+02 -0.16630345492E+02 -0.73484215445E+02  0.79565199142E+02  0.00000000000E+00 0.  1.
         14    1    4    4    0    0  0.40001662404E+01  0.15397477159E+02  0.14680541290E+02  0.21647215188E+02  0.00000000000E+00 0. -1.
         -5    1    5    5    0  501 -0.24788000777E+02 -0.73825384732E+02  0.47011668067E+02  0.91086878021E+02  0.47000000000E+01 0.  1.
         13    1    6    6    0    0 -0.23505291369E+00 -0.44188115399E+02  0.10305802773E+03  0.11213207335E+03  0.00000000000E+00 0. -1.
        -14    1    6    6    0    0  0.91314155656E+02 -0.26560318322E+02  0.16945393560E+03  0.19431510961E+03  0.00000000000E+00 0.  1.
</event>
<event>
12    1  0.1348628E-002  0.1750479E+03  0.7818608E-02  0.1172684E+00
         -2   -1    0    0    0  501 -0.00000000000E+00  0.00000000000E+00  0.36929084439E+03  0.36929084439E+03  0.00000000000E+00 0. -1.
          2   -1    0    0  502    0  0.00000000000E+00 -0.00000000000E+00 -0.13858921475E+03  0.13858921475E+03  0.00000000000E+00 0.  1.
          6    2    1    2  502    0 -0.32371004765E+02  0.55084143018E+01 -0.45563102631E+02  0.18075968387E+03  0.17181339416E+03 0.  0.
         24    2    3    3    0    0  0.23479724193E+02  0.39537983147E+02 -0.66589944849E+02  0.11190088941E+03  0.77285436762E+02 0.  0.
         -6    2    1    2    0  501  0.32371004765E+02 -0.55084143018E+01  0.27626473227E+03  0.32712037528E+03  0.17206775713E+03 0.  0.
        -24    2    5    5    0    0 -0.23630115566E+02 -0.52524261644E+02  0.19548224864E+03  0.21805839729E+03  0.77582051230E+02 0.  0.
          5    1    3    3  502    0 -0.55850728958E+02 -0.34029568845E+02  0.21026842218E+02  0.68858794461E+02  0.47000000000E+01 0. -1.
        -13    1    4    4    0    0  0.46390704988E+02  0.40608967042E+01 -0.43715328684E+02  0.63871890165E+02  0.00000000000E+00 0.  1.
         14    1    4    4    0    0 -0.22910980795E+02  0.35477086443E+02 -0.22874616165E+02  0.48028999242E+02  0.00000000000E+00 0. -1.
         -5    1    5    5    0  501  0.56001120331E+02  0.47015847342E+02  0.80782483636E+02  0.10906197799E+03  0.47000000000E+01 0.  1.
         13    1    6    6    0    0  0.23503959707E+02 -0.33662968245E+02  0.12216910126E+03  0.12888336144E+03  0.00000000000E+00 0. -1.
        -14    1    6    6    0    0 -0.47134075273E+02 -0.18861293399E+02  0.73313147374E+02  0.89175035848E+02  0.00000000000E+00 0.  1.
</event>
<event>
12    1  0.1348628E-002  0.2190284E+03  0.7818608E-02  0.1134609E+00
         -2   -1    0    0    0  501 -0.00000000000E+00  0.00000000000E+00  0.36329932897E+02  0.36329932897E+02  0.00000000000E+00 0. -1.
          2   -1    0    0  502    0  0.00000000000E+00 -0.00000000000E+00 -0.14732829906E+04  0.14732829906E+04  0.00000000000E+00 0.  1.
          6    2    1    2  502    0 -0.13919064702E+03  0.33399280922E+01 -0.48380695540E+03  0.53224275147E+03  0.17270780253E+03 0.  0.
         24    2    3    3    0    0 -0.14339251714E+03  0.13728938613E+01 -0.49381208923E+03  0.52025452228E+03  0.79063832901E+02 0.  0.
         -6    2    1    2    0  501  0.13919064702E+03 -0.33399280922E+01 -0.95314610226E+03  0.97737017199E+03  0.16546833385E+03 0.  0.
        -24    2    5    5    0    0  0.22198460755E+02 -0.37051929491E+02 -0.51801077602E+03  0.52549794135E+03  0.77118772989E+02 0.  0.
          5    1    3    3  502    0  0.42018701234E+01  0.19670342309E+01  0.10005133825E+02  0.11988229188E+02  0.47000000000E+01 0. -1.
        -11    1    4    4    0    0 -0.40046373560E+02  0.36891858729E+02 -0.16827759758E+03  0.17686738287E+03  0.00000000000E+00 0.  1.
         12    1    4    4    0    0 -0.10334614358E+03 -0.35518964868E+02 -0.32553449165E+03  0.34338713941E+03  0.00000000000E+00 0. -1.
         -5    1    5    5    0  501  0.11699218627E+03  0.33712001399E+02 -0.43513532623E+03  0.45187223064E+03  0.47000000000E+01 0.  1.
         13    1    6    6    0    0 -0.15324622919E+01 -0.14744694628E+02 -0.44839643856E+03  0.44864141647E+03  0.00000000000E+00 0. -1.
        -14    1    6    6    0    0  0.23730923047E+02 -0.22307234863E+02 -0.69614337469E+02  0.76856524883E+02  0.00000000000E+00 0.  1.
</event>
<event>
12    1  0.1348628E-002  0.1751763E+03  0.7818608E-02  0.1172555E+00
         -1   -1    0    0    0  501 -0.00000000000E+00  0.00000000000E+00  0.64057982551E+02  0.64057982551E+02  0.00000000000E+00 0. -1.
          1   -1    0    0  502    0  0.00000000000E+00 -0.00000000000E+00 -0.48290358467E+03  0.48290358467E+03  0.00000000000E+00 0.  1.
          6    2    1    2  502    0 -0.24168198836E+02  0.17656791299E+02 -0.18538536283E+03  0.25528884833E+03  0.17294160637E+03 0.  0.
         24    2    3    3    0    0  0.56866751451E+02  0.27987470552E+01 -0.11498651208E+03  0.14681989962E+03  0.71361926530E+02 0.  0.
         -6    2    1    2    0  501  0.24168198836E+02 -0.17656791299E+02 -0.23346023929E+03  0.29167271889E+03  0.17225976752E+03 0.  0.
        -24    2    5    5    0    0  0.90144422423E+02 -0.82317107890E+01 -0.12295480261E+03  0.16254009034E+03  0.55746027007E+02 0.  0.
          5    1    3    3  502    0 -0.81034950287E+02  0.14858044244E+02 -0.70398850749E+02  0.10846894871E+03  0.47000000000E+01 0. -1.
        -11    1    4    4    0    0  0.80553967004E+01 -0.30483952543E+02 -0.48817618988E+02  0.58114720187E+02  0.00000000000E+00 0.  1.
         12    1    4    4    0    0  0.48811354751E+02  0.33282699599E+02 -0.66168893096E+02  0.88705179436E+02  0.00000000000E+00 0. -1.
         -5    1    5    5    0  501 -0.65976223587E+02 -0.94250805097E+01 -0.11050543668E+03  0.12913262855E+03  0.47000000000E+01 0.  1.
         11    1    6    6    0    0  0.74700257035E+02 -0.27542659007E+01 -0.55442767464E+02  0.93067797040E+02  0.00000000000E+00 0. -1.
        -12    1    6    6    0    0  0.15444165387E+02 -0.54774448884E+01 -0.67512035148E+02  0.69472293304E+02  0.00000000000E+00 0.  1.
</event>
<event>
12    1  0.1348628E-002  0.2170620E+03  0.7818608E-02  0.1136093E+00
          3   -1    0    0  502    0  0.00000000000E+00  0.00000000000E+00  0.44281540686E+03  0.44281540686E+03  0.00000000000E+00 0.  1.
         -3   -1    0    0    0  501 -0.00000000000E+00 -0.00000000000E+00 -0.10641626094E+03  0.10641626094E+03  0.00000000000E+00 0. -1.
          6    2    1    2  502    0 -0.12041816750E+03  0.53657836496E+02  0.17113795766E+03  0.27608450271E+03  0.17191496039E+03 0.  0.
         24    2    3    3    0    0 -0.10897271543E+03 -0.12643440920E+02  0.15586697344E+03  0.20693140648E+03  0.80567886102E+02 0.  0.
         -6    2    1    2    0  501  0.12041816750E+03 -0.53657836496E+02  0.16526118827E+03  0.27314716509E+03  0.17296940471E+03 0.  0.
        -24    2    5    5    0    0  0.15064287961E+03 -0.20144101775E+02  0.12948495961E+03  0.21536540175E+03  0.80726944027E+02 0.  0.
          5    1    3    3  502    0 -0.11445452070E+02  0.66301277416E+02  0.15270984217E+02  0.69153096236E+02  0.47000000000E+01 0. -1.
        -13    1    4    4    0    0 -0.52032863155E+02  0.31352470685E+02  0.94596827156E+02  0.11242311139E+03  0.00000000000E+00 0.  1.
         14    1    4    4    0    0 -0.56939852276E+02 -0.43995911605E+02  0.61270146284E+02  0.94508295090E+02  0.00000000000E+00 0. -1.
         -5    1    5    5    0  501 -0.30224712112E+02 -0.33513734722E+02  0.35776228659E+02  0.57781763337E+02  0.47000000000E+01 0.  1.
         13    1    6    6    0    0  0.63243396279E+02 -0.45430372483E+02  0.39167014624E+02  0.87164791926E+02  0.00000000000E+00 0. -1.
        -14    1    6    6    0    0  0.87399483333E+02  0.25286270708E+02  0.90317944983E+02  0.12820060982E+03  0.00000000000E+00 0.  1.
</event>
<event>
12    1  0.1348628E-002  0.1931091E+03  0.7818608E-02  0.1155687E+00
          2   -1    0    0  502    0  0.00000000000E+00  0.00000000000E+00  0.85568646096E+03  0.85568646096E+03  0.00000000000E+00 0. -1.
         -2   -1    0    0    0  501 -0.00000000000E+00 -0.00000000000E+00 -0.71099022885E+02  0.71099022885E+02  0.00000000000E+00 0.  1.
          6    2    1    2  502    0 -0.33605193456E+02  0.83544807112E+02  0.68041221567E+03  0.70724714247E+03  0.17067130241E+03 0.  0.
         24    2    3    3    0    0  0.21734594305E+02  0.95970927371E+02  0.56001115832E+03  0.57407280115E+03  0.79147154620E+02 0.  0.
         -6    2    1    2    0  501  0.33605193456E+02 -0.83544807112E+02  0.10417522240E+03  0.21953834137E+03  0.17098410028E+03 0.  0.
        -24    2    5    5    0    0  0.55021056130E+02 -0.75750743340E+02  0.13326697534E+03  0.18228506375E+03  0.81867368441E+02 0.  0.
          5    1    3    3  502    0 -0.55339787761E+02 -0.12426120259E+02  0.12040105735E+03  0.13317434132E+03  0.47000000000E+01 0. -1.
        -13    1    4    4    0    0  0.12668624840E+02  0.89302759282E+02  0.28721808372E+03  0.30104767809E+03  0.00000000000E+00 0.  1.
         14    1    4    4    0    0  0.90659694647E+01  0.66681680892E+01  0.27279307460E+03  0.27302512305E+03  0.00000000000E+00 0. -1.
         -5    1    5    5    0  501 -0.21415862674E+02 -0.77940637724E+01 -0.29091752946E+02  0.37253277623E+02  0.47000000000E+01 0.  1.
         13    1    6    6    0    0  0.16939507868E+02 -0.21727390341E+01  0.84373871854E+02  0.86084946265E+02  0.00000000000E+00 0. -1.
        -14    1    6    6    0    0  0.38081548262E+02 -0.73578004306E+02  0.48893103489E+02  0.96200117486E+02  0.00000000000E+00 0.  1.
</event>
<event>
12    1  0.1348628E-002  0.2648213E+03  0.7818608E-02  0.1104281E+00
          2   -1    0    0  502    0  0.00000000000E+00  0.00000000000E+00  0.74917864255E+03  0.74917864255E+03  0.00000000000E+00 0. -1.
         -2   -1    0    0    0  501 -0.00000000000E+00 -0.00000000000E+00 -0.94088383905E+02  0.94088383905E+02  0.00000000000E+00 0.  1.
          6    2    1    2  502    0 -0.16743890536E+03 -0.11318429751E+03  0.29787663482E+03  0.39879192068E+03  0.17163342972E+03 0.  0.
         24    2    3    3    0    0 -0.78413978754E+02 -0.12485801459E+03  0.15478017109E+03  0.22979369240E+03  0.84320601490E+02 0.  0.
         -6    2    1    2    0  501  0.16743890536E+03  0.11318429751E+03  0.35721362383E+03  0.44447510578E+03  0.17061674707E+03 0.  0.
        -24    2    5    5    0    0  0.66355456400E+02  0.12318886293E+03  0.24653145534E+03  0.29417345109E+03  0.78623904175E+02 0.  0.
          5    1    3    3  502    0 -0.89024926603E+02  0.11673717080E+02  0.14309646373E+03  0.16899822828E+03  0.47000000000E+01 0. -1.
        -13    1    4    4    0    0 -0.57717357402E+02 -0.25034162152E+02  0.33225582344E+02  0.71147325615E+02  0.00000000000E+00 0.  1.
         14    1    4    4    0    0 -0.20696621353E+02 -0.99823852436E+02  0.12155458874E+03  0.15864636679E+03  0.00000000000E+00 0. -1.
         -5    1    5    5    0  501  0.10108344896E+03 -0.10004565424E+02  0.11068216849E+03  0.15030165469E+03  0.47000000000E+01 0.  1.
         11    1    6    6    0    0  0.59431283889E+02  0.10754426290E+03  0.24823445800E+03  0.27698049052E+03  0.00000000000E+00 0. -1.
        -12    1    6    6    0    0  0.69241725114E+01  0.15644600031E+02 -0.17030026616E+01  0.17192960570E+02  0.00000000000E+00 0.  1.
</event>
<event>
12    1  0.1348628E-002  0.1693602E+03  0.7818608E-02  0.1178517E+00
         -1   -1    0    0    0  501 -0.00000000000E+00  0.00000000000E+00  0.57501149044E+02  0.57501149044E+02  0.00000000000E+00 0. -1.
          1   -1    0    0  502    0  0.00000000000E+00 -0.00000000000E+00 -0.70656585365E+03  0.70656585365E+03  0.00000000000E+00 0.  1.
          6    2    1    2  502    0 -0.20667896728E+01 -0.23237416319E+02 -0.12497578980E+03  0.21489559296E+03  0.17325391396E+03 0.  0.
         24    2    3    3    0    0  0.64969524140E+02 -0.29486316320E+02 -0.72561456716E+02  0.12944228154E+03  0.79997858302E+02 0.  0.
         -6    2    1    2    0  501  0.20667896728E+01  0.23237416319E+02 -0.52408891480E+03  0.54917140973E+03  0.16240627298E+03 0.  0.
        -24    2    5    5    0    0 -0.18505892651E+02  0.70416410174E+02 -0.41278768258E+03  0.42645569348E+03  0.78548384625E+02 0.  0.
          5    1    3    3  502    0 -0.67036313813E+02  0.62489000012E+01 -0.52414333082E+02  0.85453311424E+02  0.47000000000E+01 0. -1.
        -13    1    4    4    0    0  0.13298263393E+02  0.20137429921E+02  0.41429090088E+01  0.24485170780E+02  0.00000000000E+00 0.  1.
         14    1    4    4    0    0  0.51671260746E+02 -0.49623746240E+02 -0.76704365725E+02  0.10495711076E+03  0.00000000000E+00 0. -1.
         -5    1    5    5    0  501  0.20572682323E+02 -0.47178993855E+02 -0.11130123222E+03  0.12271571624E+03  0.47000000000E+01 0.  1.
         11    1    6    6    0    0 -0.17193884382E+02  0.71645571106E+02 -0.19186808028E+03  0.20552877596E+03  0.00000000000E+00 0. -1.
        -12    1    6    6    0    0 -0.13120082688E+01 -0.12291609320E+01 -0.22091960231E+03  0.22092691752E+03  0.00000000000E+00 0.  1.
</event>
<event>
12    1  0.1348628E-002  0.2424279E+03  0.7818608E-02  0.1118186E+00
         -2   -1    0    0    0  501 -0.00000000000E+00  0.00000000000E+00  0.30874543237E+02  0.30874543237E+02  0.00000000000E+00 0. -1.
          2   -1    0    0  502    0  0.00000000000E+00 -0.00000000000E+00 -0.19974351010E+04  0.19974351010E+04  0.00000000000E+00 0.  1.
          6    2    1    2  502    0 -0.21104350999E+02  0.16912448630E+03 -0.12036868676E+04  0.12278847671E+04  0.17259907493E+03 0.  0.
         24    2    3    3    0    0  0.31341620315E+02  0.29265471409E+02 -0.52176383717E+03  0.52977859085E+03  0.81173201031E+02 0.  0.
         -6    2    1    2    0  501  0.21104350999E+02 -0.16912448630E+03 -0.76287369018E+03  0.80042487710E+03  0.17220694301E+03 0.  0.
        -24    2    5    5    0    0  0.77117004427E+02 -0.93011759537E+02 -0.51296799763E+03  0.53320678324E+03  0.81086912114E+02 0.  0.
          5    1    3    3  502    0 -0.52445971314E+02  0.13985901489E+03 -0.68192303038E+03  0.69810617625E+03  0.47000000000E+01 0. -1.
        -11    1    4    4    0    0 -0.21754553798E+02  0.31488335570E+02 -0.19478803092E+03  0.19851234943E+03  0.00000000000E+00 0.  1.
         12    1    4    4    0    0  0.53096174112E+02 -0.22228641615E+01 -0.32697580626E+03  0.33126624142E+03  0.00000000000E+00 0. -1.
         -5    1    5    5    0  501 -0.56012653428E+02 -0.76112726763E+02 -0.24990569254E+03  0.26721809386E+03  0.47000000000E+01 0.  1.
         11    1    6    6    0    0  0.50067001659E+02 -0.43997045486E+02 -0.12922192425E+03  0.14539859137E+03  0.00000000000E+00 0. -1.
        -12    1    6    6    0    0  0.27050002769E+02 -0.49014714051E+02 -0.38374607339E+03  0.38780819187E+03  0.00000000000E+00 0.  1.
</event>
<event>
12    1  0.1348628E-002  0.3133378E+03  0.7818608E-02  0.1078757E+00
          2   -1    0    0  502    0  0.00000000000E+00  0.00000000000E+00  0.48425368198E+03  0.48425368198E+03  0.00000000000E+00 0.  1.
         -2   -1    0    0    0  501 -0.00000000000E+00 -0.00000000000E+00 -0.21607937038E+03  0.21607937038E+03  0.00000000000E+00 0. -1.
          6    2    1    2  502    0  0.13776614652E+03  0.22274919344E+03  0.22130006140E+03  0.38407933617E+03  0.17305058508E+03 0.  0.
         24    2    3    3    0    0  0.42109385655E+02  0.17476558243E+03  0.18825094519E+03  0.27197680763E+03  0.78846409934E+02 0.  0.
         -6    2    1    2    0  501 -0.13776614652E+03 -0.22274919344E+03  0.46874250205E+02  0.31625371619E+03  0.17094590772E+03 0.  0.
        -24    2    5    5    0    0 -0.50760779579E+02 -0.77125220508E+02 -0.36831852261E+02  0.12703142110E+03  0.79091341015E+02 0.  0.
          5    1    3    3  502    0  0.95656760864E+02  0.47983611008E+02  0.33049116205E+02  0.11210252855E+03  0.47000000000E+01 0. -1.
        -11    1    4    4    0    0 -0.23629279579E+02  0.45322180101E+02  0.49978964313E+02  0.71486640265E+02  0.00000000000E+00 0.  1.
         12    1    4    4    0    0  0.65738665234E+02  0.12944340233E+03  0.13827198088E+03  0.20049016736E+03  0.00000000000E+00 0. -1.
         -5    1    5    5    0  501 -0.87005366940E+02 -0.14562397293E+03  0.83706102467E+02  0.18922229509E+03  0.47000000000E+01 0.  1.
         13    1    6    6    0    0 -0.46266094157E+02 -0.93017999156E+02 -0.25412078658E+02  0.10695173387E+03  0.00000000000E+00 0. -1.
        -14    1    6    6    0    0 -0.44946854220E+01  0.15892778648E+02 -0.11419773603E+02  0.20079687232E+02  0.00000000000E+00 0.  1.
</event>
<event>
12    1  0.1348628E-002  0.2296758E+03  0.7818608E-02  0.1126868E+00
         -2   -1    0    0    0  501 -0.00000000000E+00  0.00000000000E+00  0.81404704262E+03  0.81404704262E+03  0.00000000000E+00 0.  1.
          2   -1    0    0  502    0  0.00000000000E+00 -0.00000000000E+00 -0.68994798961E+02  0.68994798961E+02  0.00000000000E+00 0. -1.
          6    2    1    2  502    0  0.14756487873E+03  0.37167773244E+02  0.48083825982E+03  0.53272250602E+03  0.17155465459E+03 0.  0.
         24    2    3    3    0    0  0.14629694363E+03  0.76019517861E+02  0.35085670724E+03  0.39697141126E+03  0.85464083253E+02 0.  0.
         -6    2    1    2    0  501 -0.14756487873E+03 -0.37167773244E+02  0.26421398383E+03  0.35031933556E+03  0.17250440808E+03 0.  0.
        -24    2    5    5    0    0 -0.68675472359E+02 -0.41670434824E+02  0.53760910498E+02  0.12547183507E+03  0.80001251590E+02 0.  0.
          5    1    3    3  502    0  0.12679351036E+01 -0.38851744617E+02  0.12998155258E+03  0.13575109477E+03  0.47000000000E+01 0. -1.
        -11    1    4    4    0    0  0.68549590101E+02  0.18339517803E+02  0.23764559193E+03  0.24801373264E+03  0.00000000000E+00 0.  1.
         12    1    4    4    0    0  0.77747353527E+02  0.57680000057E+02  0.11321111532E+03  0.14895767861E+03  0.00000000000E+00 0. -1.
         -5    1    5    5    0  501 -0.78889406372E+02  0.45026615805E+01  0.21045307333E+03  0.22484750049E+03  0.47000000000E+01 0.  1.
         13    1    6    6    0    0 -0.77672862215E+02 -0.50462828100E+02  0.61047272159E+02  0.11093394423E+03  0.00000000000E+00 0. -1.
        -14    1    6    6    0    0  0.89973898566E+01  0.87923932758E+01 -0.72863616615E+01  0.14537890838E+02  0.00000000000E+00 0.  1.
</event>
<event>
12    1  0.1348628E-002  0.2017734E+03  0.7818608E-02  0.1148251E+00
          1   -1    0    0  502    0  0.00000000000E+00  0.00000000000E+00  0.25528215395E+02  0.25528215395E+02  0.00000000000E+00 0. -1.
         -1   -1    0    0    0  501 -0.00000000000E+00 -0.00000000000E+00 -0.18041003619E+04  0.18041003619E+04  0.00000000000E+00 0.  1.
          6    2    1    2  502    0 -0.66647585842E+02 -0.76738861309E+02 -0.12103141796E+04  0.12274295883E+04  0.17717851832E+03 0.  0.
         24    2    3    3    0    0  0.25767629705E+02 -0.41425841643E+02 -0.37844154638E+03  0.38968156573E+03  0.79080007235E+02 0.  0.
         -6    2    1    2    0  501  0.66647585842E+02  0.76738861309E+02 -0.56825796690E+03  0.60219898899E+03  0.17145189373E+03 0.  0.
        -24    2    5    5    0    0  0.25999673030E+02 -0.12122388332E+01 -0.12648304396E+03  0.15173722661E+03  0.79679188053E+02 0.  0.
          5    1    3    3  502    0 -0.92415215547E+02 -0.35313019666E+02 -0.83187263321E+03  0.83774802256E+03  0.47000000000E+01 0. -1.
        -11    1    4    4    0    0  0.43061704409E+02 -0.54368428509E+02 -0.25026034025E+03  0.25969303862E+03  0.00000000000E+00 0.  1.
         12    1    4    4    0    0 -0.17294074704E+02  0.12942586866E+02 -0.12818120613E+03  0.12998852711E+03  0.00000000000E+00 0. -1.
         -5    1    5    5    0  501  0.40647912812E+02  0.77951100142E+02 -0.44177492294E+03  0.45046176239E+03  0.47000000000E+01 0.  1.
         13    1    6    6    0    0  0.26546574613E+01 -0.31165670762E+02 -0.10167167640E+03  0.10637422630E+03  0.00000000000E+00 0. -1.
        -14    1    6    6    0    0  0.23345015569E+02  0.29953431929E+02 -0.24811367560E+02  0.45363000302E+02  0.00000000000E+00 0.  1.
</event>
<event>
12    1  0.1348628E-002  0.1848126E+03  0.7818608E-02  0.1163225E+00
          1   -1    0    0  502    0  0.00000000000E+00  0.00000000000E+00  0.33013562196E+04  0.33013562196E+04  0.00000000000E+00 0.  1.
         -1   -1    0    0    0  501 -0.00000000000E+00 -0.00000000000E+00 -0.16570122936E+02  0.16570122936E+02  0.00000000000E+00 0. -1.
          6    2    1    2  502    0  0.72053508794E+02 -0.21340859857E+02  0.26449770442E+04  0.26512530173E+04  0.16610796702E+03 0.  0.
         24    2    3    3    0    0 -0.18647974504E+02 -0.17498341793E+02  0.16780548216E+04  0.16800670420E+04  0.78123890789E+02 0.  0.
         -6    2    1    2    0  501 -0.72053508794E+02  0.21340859857E+02  0.63980905250E+03  0.66667332533E+03  0.17161165055E+03 0.  0.
        -24    2    5    5    0    0 -0.32291740090E+02  0.67613492173E+02  0.52666006854E+03  0.53803842600E+03  0.80623689188E+02 0.  0.
          5    1    3    3  502    0  0.90701483298E+02 -0.38425180634E+01  0.96692222261E+03  0.97118597529E+03  0.47000000000E+01 0. -1.
        -11    1    4    4    0    0 -0.47891087665E+01 -0.33415518493E+02  0.15433311339E+04  0.15437002693E+04  0.00000000000E+00 0.  1.
         12    1    4    4    0    0 -0.13858865737E+02  0.15917176700E+02  0.13472368769E+03  0.13636677271E+03  0.00000000000E+00 0. -1.
         -5    1    5    5    0  501 -0.39761768704E+02 -0.46272632316E+02  0.11314898396E+03  0.12863489932E+03  0.47000000000E+01 0.  1.
         13    1    6    6    0    0 -0.13975026239E+02  0.86683917688E+01  0.13774166382E+02  0.21451574156E+02  0.00000000000E+00 0. -1.
        -14    1    6    6    0    0 -0.18316713851E+02  0.58945100404E+02  0.51288590216E+03  0.51658685185E+03  0.00000000000E+00 0.  1.
</event>
<event>
12    1  0.1348628E-002  0.1938455E+03  0.7818608E-02  0.1155038E+00
          2   -1    0    0  502    0  0.00000000000E+00  0.00000000000E+00  0.39871185458E+03  0.39871185458E+03  0.00000000000E+00 0. -1.
         -2   -1    0    0    0  501 -0.00000000000E+00 -0.00000000000E+00 -0.94324137475E+02  0.94324137475E+02  0.00000000000E+00 0.  1.
          6    2    1    2  502    0 -0.77620368551E+02  0.41207382769E+02  0.15993235480E+03  0.25190273791E+03  0.17364809601E+03 0.  0.
         24    2    3    3    0    0 -0.81659798036E+02 -0.14308139894E+02  0.41951242828E+02  0.12136568176E+03  0.78081217026E+02 0.  0.
         -6    2    1    2    0  501  0.77620368551E+02 -0.41207382769E+02  0.14445536231E+03  0.24113325414E+03  0.17191545755E+03 0.  0.
        -24    2    5    5    0    0  0.66617118175E+02 -0.30424860946E+02  0.17506955569E+03  0.20654057960E+03  0.81523917319E+02 0.  0.
          5    1    3    3  502    0  0.40394294844E+01  0.55515522663E+02  0.11798111197E+03  0.13053705615E+03  0.47000000000E+01 0. -1.
        -13    1    4    4    0    0 -0.88765405190E+02 -0.10126472033E+01  0.52344825401E+02  0.10305485607E+03  0.00000000000E+00 0.  1.
         14    1    4    4    0    0  0.71056071541E+01 -0.13295492691E+02 -0.10393582573E+02  0.18310825695E+02  0.00000000000E+00 0. -1.
         -5    1    5    5    0  501  0.11003250376E+02 -0.10782521823E+02 -0.30614193380E+02  0.34592674542E+02  0.47000000000E+01 0.  1.
         13    1    6    6    0    0  0.92277087232E+01  0.21133569043E+02  0.84387331886E+02  0.87481427352E+02  0.00000000000E+00 0. -1.
        -14    1    6    6    0    0  0.57389409452E+02 -0.51558429989E+02  0.90682223802E+02  0.11905915225E+03  0.00000000000E+00 0.  1.
</event>
<event>
12    1  0.1348628E-002  0.1750039E+03  0.7818608E-02  0.1172728E+00
          2   -1    0    0  502    0  0.00000000000E+00  0.00000000000E+00  0.10636802778E+04  0.10636802778E+04  0.00000000000E+00 0. -1.
         -2   -1    0    0    0  501 -0.00000000000E+00 -0.00000000000E+00 -0.31521349311E+02  0.31521349311E+02  0.00000000000E+00 0.  1.
          6    2    1    2  502    0 -0.28588710616E+02 -0.16755044011E+02  0.67770187201E+03  0.69998061525E+03  0.17203194040E+03 0.  0.
         24    2    3    3    0    0  0.11957414170E+02  0.29501146364E+02  0.26536519364E+03  0.28305466293E+03  0.93209220686E+02 0.  0.
         -6    2    1    2    0  501  0.28588710616E+02  0.16755044011E+02  0.35445705647E+03  0.39522101186E+03  0.17164439244E+03 0.  0.
        -24    2    5    5    0    0 -0.33192117939E+02 -0.34576277730E+02  0.22862195762E+03  0.24586125332E+03  0.76697592543E+02 0.  0.
          5    1    3    3  502    0 -0.40546124786E+02 -0.46256190375E+02  0.41233667837E+03  0.41692595232E+03  0.47000000000E+01 0. -1.
        -13    1    4    4    0    0 -0.34329454274E+02  0.38202848118E+02  0.14225099501E+03  0.15123926281E+03  0.00000000000E+00 0.  1.
         14    1    4    4    0    0  0.46286868444E+02 -0.87017017540E+01  0.12311419863E+03  0.13181540012E+03  0.00000000000E+00 0. -1.
         -5    1    5    5    0  501  0.61780828554E+02  0.51331321740E+02  0.12583509885E+03  0.14935975854E+03  0.47000000000E+01 0.  1.
         11    1    6    6    0    0  0.12412146859E+02 -0.42356713425E+02  0.10792951767E+03  0.11660588899E+03  0.00000000000E+00 0. -1.
        -12    1    6    6    0    0 -0.45604264797E+02  0.77804356948E+01  0.12069243995E+03  0.12925536433E+03  0.00000000000E+00 0.  1.
</event>
<event>
12    1  0.1348628E-002  0.1827462E+03  0.7818608E-02  0.1165171E+00
         -2   -1    0    0    0  501 -0.00000000000E+00  0.00000000000E+00  0.11935998332E+03  0.11935998332E+03  0.00000000000E+00 0.  1.
          2   -1    0    0  502    0  0.00000000000E+00 -0.00000000000E+00 -0.35577004919E+03  0.35577004919E+03  0.00000000000E+00 0. -1.
          6    2    1    2  502    0  0.50000216730E+02 -0.37095650048E+02 -0.80406971433E+01  0.18216849447E+03  0.17101052202E+03 0.  0.
         24    2    3    3    0    0 -0.29798728316E+02 -0.54358856120E+02  0.11972968928E+01  0.99868309492E+02  0.78290460933E+02 0.  0.
         -6    2    1    2    0  501 -0.50000216730E+02  0.37095650048E+02 -0.22836936872E+03  0.29296153804E+03  0.17262035012E+03 0.  0.
        -24    2    5    5    0    0 -0.20143874755E+02  0.30525041683E+02 -0.31451805994E+02  0.93629677662E+02  0.80248031621E+02 0.  0.
          5    1    3    3  502    0  0.79798945046E+02  0.17263206072E+02 -0.92379940361E+01  0.82300184982E+02  0.47000000000E+01 0. -1.
        -11    1    4    4    0    0  0.91030325126E+01 -0.47619651911E+02  0.24188172912E+02  0.54180846780E+02  0.00000000000E+00 0.  1.
         12    1    4    4    0    0 -0.38901760829E+02 -0.67392042090E+01 -0.22990876019E+02  0.45687462712E+02  0.00000000000E+00 0. -1.
         -5    1    5    5    0  501 -0.29856341974E+02  0.65706083652E+01 -0.19691756273E+03  0.19933186038E+03  0.47000000000E+01 0.  1.
         11    1    6    6    0    0 -0.47415318812E+02  0.26557224426E+01 -0.80889282344E+01  0.48173603557E+02  0.00000000000E+00 0. -1.
        -12    1    6    6    0    0  0.27271444056E+02  0.27869319240E+02 -0.23362877760E+02  0.45456074105E+02  0.00000000000E+00 0.  1.
</event>
<event>
12    1  0.1348628E-002  0.1915877E+03  0.7818608E-02  0.1157037E+00
          1   -1    0    0  502    0  0.00000000000E+00  0.00000000000E+00  0.14540685988E+04  0.14540685988E+04  0.00000000000E+00 0.  1.
         -1   -1    0    0    0  501 -0.00000000000E+00 -0.00000000000E+00 -0.26494450691E+02  0.26494450691E+02  0.00000000000E+00 0. -1.
          6    2    1    2  502    0  0.70806176200E+02  0.46014024561E+02  0.87283033555E+03  0.89350151990E+03  0.17140993661E+03 0.  0.
         24    2    3    3    0    0 -0.56297014784E+01  0.22946763537E+02  0.17507452067E+03  0.19117694456E+03  0.73070437587E+02 0.  0.
         -6    2    1    2    0  501 -0.70806176200E+02 -0.46014024561E+02  0.55474381253E+03  0.58706152956E+03  0.17253908805E+03 0.  0.
        -24    2    5    5    0    0 -0.10003583512E+03  0.10475120103E+02  0.28647553796E+03  0.31131644154E+03  0.68795323067E+02 0.  0.
          5    1    3    3  502    0  0.76435877678E+02  0.23067261024E+02  0.69775581488E+03  0.70232457534E+03  0.47000000000E+01 0. -1.
        -11    1    4    4    0    0  0.10694964337E+02 -0.45892244423E+01  0.15016618915E+03  0.15061649181E+03  0.00000000000E+00 0.  1.
         12    1    4    4    0    0 -0.16324665815E+02  0.27535987979E+02  0.24908331520E+02  0.40560452748E+02  0.00000000000E+00 0. -1.
         -5    1    5    5    0  501  0.29229658916E+02 -0.56489144664E+02  0.26826827457E+03  0.27574508802E+03  0.47000000000E+01 0.  1.
         13    1    6    6    0    0 -0.43998471886E+02  0.37712202240E+02  0.16334278308E+03  0.17331745587E+03  0.00000000000E+00 0. -1.
        -14    1    6    6    0    0 -0.56037363230E+02 -0.27237082137E+02  0.12313275488E+03  0.13799898567E+03  0.00000000000E+00 0.  1.
</event>
<event>
12    1  0.1348628E-002  0.1889249E+03  0.7818608E-02  0.1159435E+00
         -2   -1    0    0    0  501 -0.00000000000E+00  0.00000000000E+00  0.20466266823E+03  0.20466266823E+03  0.00000000000E+00 0.  1.
          2   -1    0    0  502    0  0.00000000000E+00 -0.00000000000E+00 -0.20325162034E+03  0.20325162034E+03  0.00000000000E+00 0. -1.
          6    2    1    2  502    0 -0.50960365972E+01 -0.72076168778E+02  0.77551366566E+02  0.20485499956E+03  0.17530092040E+03 0.  0.
         24    2    3    3    0    0 -0.13127837276E+02 -0.10231244791E+03  0.12007758253E+02  0.13207590236E+03  0.81606866238E+02 0.  0.
         -6    2    1    2    0  501  0.50960365972E+01  0.72076168778E+02 -0.76140318672E+02  0.20305928900E+03  0.17382400015E+03 0.  0.
        -24    2    5    5    0    0  0.55790030516E+02  0.18766188725E+02 -0.87000026646E+02  0.12854849616E+03  0.74101375729E+02 0.  0.
          5    1    3    3  502    0  0.80318006792E+01  0.30236279135E+02  0.65543608314E+02  0.72779097197E+02  0.47000000000E+01 0. -1.
        -13    1    4    4    0    0 -0.77208900154E+01 -0.37730535326E+02 -0.34979619469E+02  0.52026716375E+02  0.00000000000E+00 0.  1.
         14    1    4    4    0    0 -0.54069472610E+01 -0.64581912588E+02  0.46987377721E+02  0.80049185988E+02  0.00000000000E+00 0. -1.
         -5    1    5    5    0  501 -0.50693993919E+02  0.53309980053E+02  0.10859707974E+02  0.74510792842E+02  0.47000000000E+01 0.  1.
         11    1    6    6    0    0  0.81657817418E+00 -0.24580650595E+02 -0.24122987100E+02  0.34449872137E+02  0.00000000000E+00 0. -1.
        -12    1    6    6    0    0  0.54973452342E+02  0.43346839320E+02 -0.62877039546E+02  0.94098624025E+02  0.00000000000E+00 0.  1.
</event>
<event>
12    1  0.1348628E-002  0.2311815E+03  0.7818608E-02  0.1125811E+00
          1   -1    0    0  502    0  0.00000000000E+00  0.00000000000E+00  0.81645662362E+03  0.81645662362E+03  0.00000000000E+00 0.  1.
         -1   -1    0    0    0  501 -0.00000000000E+00 -0.00000000000E+00 -0.76940140743E+02  0.76940140743E+02  0.00000000000E+00 0. -1.
          6    2    1    2  502    0 -0.11250366546E+03  0.10883571011E+03  0.54115107231E+03  0.58813227486E+03  0.16897574718E+03 0.  0.
         24    2    3    3    0    0 -0.78417910665E+02  0.89217976747E+01  0.18423579198E+03  0.21590219022E+03  0.80261830959E+02 0.  0.
         -6    2    1    2    0  501  0.11250366546E+03 -0.10883571011E+03  0.19836541057E+03  0.30526448951E+03  0.17127546791E+03 0.  0.
        -24    2    5    5    0    0 -0.42776392764E+00 -0.37724192134E+01  0.11863408601E+03  0.13156654205E+03  0.56756448907E+02 0.  0.
          5    1    3    3  502    0 -0.34085754796E+02  0.99913912431E+02  0.35691528033E+03  0.37223008464E+03  0.47000000000E+01 0. -1.
        -13    1    4    4    0    0 -0.69659691114E+01  0.26352362501E+02  0.10198413897E+03  0.10556389693E+03  0.00000000000E+00 0.  1.
         14    1    4    4    0    0 -0.71451941554E+02 -0.17430564826E+02  0.82251653009E+02  0.11033829328E+03  0.00000000000E+00 0. -1.
         -5    1    5    5    0  501  0.11293142939E+03 -0.10506329089E+03  0.79731324559E+02  0.17369794746E+03  0.47000000000E+01 0.  1.
         11    1    6    6    0    0  0.15850234196E+02  0.17519243702E+02  0.25987701081E+02  0.35121424108E+02  0.00000000000E+00 0. -1.
        -12    1    6    6    0    0 -0.16277998123E+02 -0.21291662915E+02  0.92646384933E+02  0.96445117937E+02  0.00000000000E+00 0.  1.
</event>
<event>
12    1  0.1348628E-002  0.7069496E+03  0.7818608E-02  0.9705421E-01
         -1   -1    0    0    0  501 -0.00000000000E+00  0.00000000000E+00  0.26419440493E+03  0.26419440493E+03  0.00000000000E+00 0. -1.
          1   -1    0    0  502    0  0.00000000000E+00 -0.00000000000E+00 -0.22049325925E+04  0.22049325925E+04  0.00000000000E+00 0.  1.
          6    2    1    2  502    0  0.58950141884E+03  0.35033009536E+03 -0.50496370362E+03  0.86870953871E+03  0.17153664958E+03 0.  0.
         24    2    3    3    0    0  0.41837275288E+03  0.31882587913E+03 -0.39623175342E+03  0.66347244911E+03  0.80686967709E+02 0.  0.
         -6    2    1    2    0  501 -0.58950141884E+03 -0.35033009536E+03 -0.14357744840E+04  0.16004174587E+04  0.17217599985E+03 0.  0.
        -24    2    5    5    0    0 -0.27799980189E+03 -0.12867508689E+03 -0.53357951745E+03  0.62054907588E+03  0.80826272289E+02 0.  0.
          5    1    3    3  502    0  0.17112866596E+03  0.31504216231E+02 -0.10873195020E+03  0.20523708960E+03  0.47000000000E+01 0. -1.
        -11    1    4    4    0    0  0.24318169578E+02 -0.13953154953E+01 -0.16400709718E+02  0.29365005640E+02  0.00000000000E+00 0.  1.
         12    1    4    4    0    0  0.39405458330E+03  0.32022119462E+03 -0.37983104370E+03  0.63410744347E+03  0.00000000000E+00 0. -1.
         -5    1    5    5    0  501 -0.31150161694E+03 -0.22165500847E+03 -0.90219496651E+03  0.97986838287E+03  0.47000000000E+01 0.  1.
         11    1    6    6    0    0 -0.10331401496E+03 -0.87948017670E+02 -0.26263758884E+03  0.29561316373E+03  0.00000000000E+00 0. -1.
        -12    1    6    6    0    0 -0.17468578693E+03 -0.40727069219E+02 -0.27094192861E+03  0.32493591215E+03  0.00000000000E+00 0.  1.
</event>
<event>
12    1  0.1348628E-002  0.1740941E+03  0.7818608E-02  0.1173644E+00
         -2   -1    0    0    0  501 -0.00000000000E+00  0.00000000000E+00  0.11726550917E+03  0.11726550917E+03  0.00000000000E+00 0.  1.
          2   -1    0    0  502    0  0.00000000000E+00 -0.00000000000E+00 -0.26013844335E+03  0.26013844335E+03  0.00000000000E+00 0. -1.
          6    2    1    2  502    0 -0.23104053931E+02 -0.45844232735E+01 -0.56710608907E+02  0.18399873800E+03  0.17344920922E+03 0.  0.
         24    2    3    3    0    0  0.31555516033E+01  0.57992335257E+02 -0.67609757537E+01  0.99603990277E+02  0.80636069048E+02 0.  0.
         -6    2    1    2    0  501  0.23104053931E+02  0.45844232735E+01 -0.86162325267E+02  0.19340521452E+03  0.17154246257E+03 0.  0.
        -24    2    5    5    0    0 -0.19539057804E+02  0.14689071959E+02 -0.11432131005E+03  0.14110265887E+03  0.79013003950E+02 0.  0.
          5    1    3    3  502    0 -0.26259605535E+02 -0.62576758530E+02 -0.49949633153E+02  0.84394747722E+02  0.47000000000E+01 0. -1.
        -11    1    4    4    0    0 -0.20272577868E+02 -0.11797852043E+02  0.74844419354E+01  0.24620796033E+02  0.00000000000E+00 0.  1.
         12    1    4    4    0    0  0.23428129471E+02  0.69790187300E+02 -0.14245417689E+02  0.74983194244E+02  0.00000000000E+00 0. -1.
         -5    1    5    5    0  501  0.42643111735E+02 -0.10104648686E+02  0.28158984788E+02  0.52302555653E+02  0.47000000000E+01 0.  1.
         13    1    6    6    0    0  0.14502259480E+02 -0.10058368332E+02 -0.91580326229E+02  0.93265440843E+02  0.00000000000E+00 0. -1.
        -14    1    6    6    0    0 -0.34041317283E+02  0.24747440291E+02 -0.22740983826E+02  0.47837218028E+02  0.00000000000E+00 0.  1.
</event>
<event>
12    1  0.1348628E-002  0.5092448E+03  0.7818608E-02  0.1011394E+00
         -1   -1    0    0    0  501 -0.00000000000E+00  0.00000000000E+00  0.34586164392E+03  0.34586164392E+03  0.00000000000E+00 0. -1.
          1   -1    0    0  502    0  0.00000000000E+00 -0.00000000000E+00 -0.75582850109E+03  0.75582850109E+03  0.00000000000E+00 0.  1.
          6    2    1    2  502    0  0.26779844583E+03  0.39774516148E+03 -0.25406291656E+03  0.56892910844E+03  0.17092438035E+03 0.  0.
         24    2    3    3    0    0  0.20975302418E+03  0.25361934025E+03 -0.10520707457E+03  0.35370440026E+03  0.75625216186E+02 0.  0.
         -6    2    1    2    0  501 -0.26779844583E+03 -0.39774516148E+03 -0.15590394061E+03  0.53276103657E+03  0.17207865156E+03 0.  0.
        -24    2    5    5    0    0 -0.17675612275E+03 -0.17523130046E+03 -0.12724889697E+03  0.29059513380E+03  0.79400972401E+02 0.  0.
          5    1    3    3  502    0  0.58045421650E+02  0.14412582122E+03 -0.14885584199E+03  0.21522470818E+03  0.47000000000E+01 0. -1.
        -11    1    4    4    0    0  0.16297990836E+03  0.20114180981E+03 -0.11397750189E+03  0.28286277436E+03  0.00000000000E+00 0.  1.
         12    1    4    4    0    0  0.46773115821E+02  0.52477530448E+02  0.87704273206E+01  0.70841625906E+02  0.00000000000E+00 0. -1.
         -5    1    5    5    0  501 -0.91042323072E+02 -0.22251386102E+03 -0.28655043643E+02  0.24216590277E+03  0.47000000000E+01 0.  1.
         11    1    6    6    0    0 -0.57752778497E+02 -0.28138626600E+02 -0.31422217437E+01  0.64319820339E+02  0.00000000000E+00 0. -1.
        -12    1    6    6    0    0 -0.11900334426E+03 -0.14709267386E+03 -0.12410667523E+03  0.22627531346E+03  0.00000000000E+00 0.  1.
</event>
<event>
12    1  0.1348628E-002  0.1866804E+03  0.7818608E-02  0.1161490E+00
          2   -1    0    0  502    0  0.00000000000E+00  0.00000000000E+00  0.27415511915E+03  0.27415511915E+03  0.00000000000E+00 0. -1.
         -2   -1    0    0    0  501 -0.00000000000E+00 -0.00000000000E+00 -0.14131427858E+03  0.14131427858E+03  0.00000000000E+00 0.  1.
          6    2    1    2  502    0  0.92982966639E+01  0.71867215299E+02  0.13218362980E+03  0.22853064477E+03  0.17176259387E+03 0.  0.
         24    2    3    3    0    0 -0.49890393954E+02  0.10447534658E+02  0.42282025509E+02  0.10451424778E+03  0.80853298746E+02 0.  0.
         -6    2    1    2    0  501 -0.92982966639E+01 -0.71867215299E+02  0.65721076658E+00  0.18693875297E+03  0.17232037164E+03 0.  0.
        -24    2    5    5    0    0 -0.68621015267E+02 -0.57529153075E+02  0.22279676520E+02  0.12202045050E+03  0.79838331422E+02 0.  0.
          5    1    3    3  502    0  0.59188690618E+02  0.61419680641E+02  0.89901604294E+02  0.12401639699E+03  0.47000000000E+01 0. -1.
        -11    1    4    4    0    0 -0.41150911058E+02 -0.15715505891E+02 -0.10208580923E+02  0.45217139790E+02  0.00000000000E+00 0.  1.
         12    1    4    4    0    0 -0.87394828959E+01  0.26163040549E+02  0.52490606433E+02  0.59297107988E+02  0.00000000000E+00 0. -1.
         -5    1    5    5    0  501  0.59322718603E+02 -0.14338062223E+02 -0.21622465753E+02  0.64918302473E+02  0.47000000000E+01 0.  1.
         11    1    6    6    0    0 -0.53257865321E+02 -0.66143018013E+02 -0.97400490519E+01  0.85476123017E+02  0.00000000000E+00 0. -1.
        -12    1    6    6    0    0 -0.15363149945E+02  0.86138649375E+01  0.32019725572E+02  0.36544327481E+02  0.00000000000E+00 0.  1.
</event>
<event>
12    1  0.1348628E-002  0.1976494E+03  0.7818608E-02  0.1151737E+00
          3   -1    0    0  502    0  0.00000000000E+00  0.00000000000E+00  0.34895137237E+03  0.34895137237E+03  0.00000000000E+00 0.  1.
         -3   -1    0    0    0  501 -0.00000000000E+00 -0.00000000000E+00 -0.12397748717E+03  0.12397748717E+03  0.00000000000E+00 0. -1.
          6    2    1    2  502    0  0.94481235230E+02  0.27483988430E+02  0.18622556044E+03  0.27168696767E+03  0.17161519633E+03 0.  0.
         24    2    3    3    0    0  0.72756249177E+01 -0.91332277536E+01  0.25268708089E+02  0.84938909288E+02  0.80248116087E+02 0.  0.
         -6    2    1    2    0  501 -0.94481235230E+02 -0.27483988430E+02  0.38748324762E+02  0.20124189187E+03  0.17121563287E+03 0.  0.
        -24    2    5    5    0    0 -0.11969723017E+03 -0.59375178294E+02  0.26240663246E+02  0.15844672873E+03  0.81018237023E+02 0.  0.
          5    1    3    3  502    0  0.87205610313E+02  0.36617216184E+02  0.16095685235E+03  0.18674805838E+03  0.47000000000E+01 0. -1.
        -13    1    4    4    0    0  0.31526094668E+02 -0.31166225059E+02  0.13126006467E+01  0.44350322997E+02  0.00000000000E+00 0.  1.
         14    1    4    4    0    0 -0.24250469751E+02  0.22032997305E+02  0.23956107442E+02  0.40588586292E+02  0.00000000000E+00 0. -1.
         -5    1    5    5    0  501  0.25215994937E+02  0.31891189863E+02  0.12507661516E+02  0.42795163140E+02  0.47000000000E+01 0.  1.
         13    1    6    6    0    0 -0.12564398842E+03 -0.45888453333E+02  0.38590674310E+02  0.13921710426E+03  0.00000000000E+00 0. -1.
        -14    1    6    6    0    0  0.59467582526E+01 -0.13486724961E+02 -0.12350011064E+02  0.19229624467E+02  0.00000000000E+00 0.  1.
</event>
<event>
12    1  0.1348628E-002  0.2000807E+03  0.7818608E-02  0.1149671E+00
         -2   -1    0    0    0  501 -0.00000000000E+00  0.00000000000E+00  0.56452813303E+02  0.56452813303E+02  0.00000000000E+00 0.  1.
          2   -1    0    0  502    0  0.00000000000E+00 -0.00000000000E+00 -0.78225205105E+03  0.78225205105E+03  0.00000000000E+00 0. -1.
          6    2    1    2  502    0  0.26593333072E+02  0.98318998571E+02 -0.23398443876E+03  0.30758728801E+03  0.17171893115E+03 0.  0.
         24    2    3    3    0    0  0.46305803559E+02  0.23740498594E+02 -0.41434667974E+02  0.10010707598E+03  0.74811471276E+02 0.  0.
         -6    2    1    2    0  501 -0.26593333072E+02 -0.98318998571E+02 -0.49181479899E+03  0.53111757635E+03  0.17271436698E+03 0.  0.
        -24    2    5    5    0    0 -0.63849973442E+02 -0.34172968360E+02 -0.39337144149E+03  0.40776460687E+03  0.79286018710E+02 0.  0.
          5    1    3    3  502    0 -0.19712470488E+02  0.74578499977E+02 -0.19254977079E+03  0.20748021203E+03  0.47000000000E+01 0. -1.
        -13    1    4    4    0    0  0.41599319736E+02  0.17477709523E+02 -0.62812268337E+02  0.77339218940E+02  0.00000000000E+00 0.  1.
         14    1    4    4    0    0  0.47064838230E+01  0.62627890707E+01  0.21377600363E+02  0.22767857040E+02  0.00000000000E+00 0. -1.
         -5    1    5    5    0  501  0.37256640370E+02 -0.64146030211E+02 -0.98443357499E+02  0.12335296948E+03  0.47000000000E+01 0.  1.
         13    1    6    6    0    0 -0.74084289082E+02 -0.48998251884E+02 -0.34114986878E+03  0.35252311065E+03  0.00000000000E+00 0. -1.
        -14    1    6    6    0    0  0.10234315640E+02  0.14825283524E+02 -0.52221572710E+02  0.55241496219E+02  0.00000000000E+00 0.  1.
</event>
<event>
12    1  0.1348628E-002  0.2304510E+03  0.7818608E-02  0.1126323E+00
         -1   -1    0    0    0  501 -0.00000000000E+00  0.00000000000E+00  0.18675099418E+03  0.18675099418E+03  0.00000000000E+00 0. -1.
          1   -1    0    0  502    0  0.00000000000E+00 -0.00000000000E+00 -0.28662486799E+03  0.28662486799E+03  0.00000000000E+00 0.  1.
          6    2    1    2  502    0 -0.15232393181E+03  0.18907688693E+02 -0.28935822066E+02  0.23207267444E+03  0.17164021537E+03 0.  0.
         24    2    3    3    0    0 -0.13466303669E+02 -0.11565867947E+02 -0.37217487957E+02  0.89591958074E+02  0.79539090427E+02 0.  0.
         -6    2    1    2    0  501  0.15232393181E+03 -0.18907688693E+02 -0.70938051747E+02  0.24130318772E+03  0.17214801865E+03 0.  0.
        -24    2    5    5    0    0  0.15091086742E+03 -0.60599454922E+02 -0.79113745909E+02  0.19853483380E+03  0.81918933079E+02 0.  0.
          5    1    3    3  502    0 -0.13885762814E+03  0.30473556640E+02  0.82816658907E+01  0.14248071637E+03  0.47000000000E+01 0. -1.
        -11    1    4    4    0    0  0.15207355061E+02 -0.20792885092E+02  0.14633372107E+02  0.29626732821E+02  0.00000000000E+00 0.  1.
         12    1    4    4    0    0 -0.28673658729E+02  0.92270171450E+01 -0.51850860064E+02  0.59965225254E+02  0.00000000000E+00 0. -1.
         -5    1    5    5    0  501  0.14130643855E+01  0.41691766229E+02  0.81756941620E+01  0.42768353923E+02  0.47000000000E+01 0.  1.
         11    1    6    6    0    0  0.10023356226E+03 -0.46476443234E+02 -0.89606414557E+01  0.11084728176E+03  0.00000000000E+00 0. -1.
        -12    1    6    6    0    0  0.50677305164E+02 -0.14123011688E+02 -0.70153104453E+02  0.87687552037E+02  0.00000000000E+00 0.  1.
</event>
<event>
12    1  0.1348628E-002  0.1989885E+03  0.7818608E-02  0.1150595E+00
          1   -1    0    0  502    0  0.00000000000E+00  0.00000000000E+00  0.56475012033E+03  0.56475012033E+03  0.00000000000E+00 0. -1.
         -1   -1    0    0    0  501 -0.00000000000E+00 -0.00000000000E+00 -0.85405448622E+02  0.85405448622E+02  0.00000000000E+00 0.  1.
          6    2    1    2  502    0  0.27875380422E+02 -0.92464456982E+02  0.10412280310E+03  0.22635956900E+03  0.17626793161E+03 0.  0.
         24    2    3    3    0    0  0.27889826678E+02 -0.12838312810E+03  0.10902653504E+03  0.18980429947E+03  0.82938632377E+02 0.  0.
         -6    2    1    2    0  501 -0.27875380422E+02  0.92464456982E+02  0.37522186862E+03  0.42379599996E+03  0.17171163692E+03 0.  0.
        -24    2    5    5    0    0 -0.32170044925E+02 -0.22102643102E+02  0.20791004923E+03  0.22091820553E+03  0.63677518333E+02 0.  0.
          5    1    3    3  502    0 -0.14446255811E-01  0.35918671116E+02 -0.49037319474E+01  0.36555269531E+02  0.47000000000E+01 0. -1.
        -13    1    4    4    0    0 -0.34704977965E+01 -0.85884516265E+02  0.10659298270E+03  0.13693158310E+03  0.00000000000E+00 0.  1.
         14    1    4    4    0    0  0.31360324475E+02 -0.42498611834E+02  0.24335523385E+01  0.52872716366E+02  0.00000000000E+00 0. -1.
         -5    1    5    5    0  501  0.42946645027E+01  0.11456710008E+03  0.16731181938E+03  0.20287779442E+03  0.47000000000E+01 0.  1.
         11    1    6    6    0    0 -0.11653570341E+02  0.15789265207E+02  0.13348104760E+03  0.13491588737E+03  0.00000000000E+00 0. -1.
        -12    1    6    6    0    0 -0.20516474584E+02 -0.37891908309E+02  0.74429001635E+02  0.86002318161E+02  0.00000000000E+00 0.  1.
</event>
<event>
12    1  0.1348628E-002  0.2922336E+03  0.7818608E-02  0.1089189E+00
          2   -1    0    0  502    0  0.00000000000E+00  0.00000000000E+00  0.32496693776E+04  0.32496693776E+04  0.00000000000E+00 0.  1.
         -2   -1    0    0    0  501 -0.00000000000E+00 -0.00000000000E+00 -0.61047318047E+02  0.61047318047E+02  0.00000000000E+00 0. -1.
          6    2    1    2  502    0  0.14839683591E+03 -0.17656483412E+03  0.28515857566E+04  0.28668783225E+04  0.18507627387E+03 0.  0.
         24    2    3    3    0    0  0.18334190368E+03 -0.14949477148E+03  0.25150006665E+04  0.25273705038E+04  0.80064791198E+02 0.  0.
         -6    2    1    2    0  501 -0.14839683591E+03  0.17656483412E+03  0.33703630295E+03  0.44383837316E+03  0.17378800427E+03 0.  0.
        -24    2    5    5    0    0 -0.16383481843E+03  0.10854926174E+03  0.20811869880E+03  0.29718814967E+03  0.79891260845E+02 0.  0.
          5    1    3    3  502    0 -0.34945067768E+02 -0.27070062633E+02  0.33658509019E+03  0.33950781874E+03  0.47000000000E+01 0. -1.
        -11    1    4    4    0    0 -0.57227890888E+01 -0.46399874942E+01  0.20307022575E+03  0.20320382965E+03  0.00000000000E+00 0.  1.
         12    1    4    4    0    0  0.18906469276E+03 -0.14485478399E+03  0.23119304407E+04  0.23241666741E+04  0.00000000000E+00 0. -1.
         -5    1    5    5    0  501  0.15437982520E+02  0.68015572376E+02  0.12891760415E+03  0.14665022349E+03  0.47000000000E+01 0.  1.
         11    1    6    6    0    0 -0.14144815123E+03  0.68500626920E+02  0.19296773282E+03  0.24887037044E+03  0.00000000000E+00 0. -1.
        -12    1    6    6    0    0 -0.22386667198E+02  0.40048634820E+02  0.15150965982E+02  0.48317779226E+02  0.00000000000E+00 0.  1.
</event>
<event>
12    1  0.1348628E-002  0.2314217E+03  0.7818608E-02  0.1125643E+00
          1   -1    0    0  502    0  0.00000000000E+00  0.00000000000E+00  0.10622585170E+03  0.10622585170E+03  0.00000000000E+00 0. -1.
         -1   -1    0    0    0  501 -0.00000000000E+00 -0.00000000000E+00 -0.51328996692E+03  0.51328996692E+03  0.00000000000E+00 0.  1.
          6    2    1    2  502    0  0.14353317460E+03  0.58250297164E+02 -0.16212659833E+03  0.28244859710E+03  0.17174779996E+03 0.  0.
         24    2    3    3    0    0  0.15876495348E+03  0.68119189027E+02 -0.94641258878E+02  0.21240744380E+03  0.79457031995E+02 0.  0.
         -6    2    1    2    0  501 -0.14353317460E+03 -0.58250297164E+02 -0.24493751689E+03  0.33706722152E+03  0.17211930547E+03 0.  0.
        -24    2    5    5    0    0 -0.10092106690E+03  0.48440252260E+01 -0.65650676506E+02  0.14222742483E+03  0.75565221660E+02 0.  0.
          5    1    3    3  502    0 -0.15231778886E+02 -0.98688918630E+01 -0.67485339450E+02  0.70041153298E+02  0.47000000000E+01 0. -1.
        -11    1    4    4    0    0  0.96442051273E+02  0.34154806093E+02 -0.97560262959E+02  0.14137052360E+03  0.00000000000E+00 0.  1.
         12    1    4    4    0    0  0.62322902209E+02  0.33964382934E+02  0.29190040817E+01  0.71036920208E+02  0.00000000000E+00 0. -1.
         -5    1    5    5    0  501 -0.42612107696E+02 -0.63094322390E+02 -0.17928684038E+03  0.19483979669E+03  0.47000000000E+01 0.  1.
         13    1    6    6    0    0 -0.51202183159E+02 -0.26678488229E+02 -0.53946322934E+01  0.57987130917E+02  0.00000000000E+00 0. -1.
        -14    1    6    6    0    0 -0.49718883741E+02  0.31522513455E+02 -0.60256044212E+02  0.84240293916E+02  0.00000000000E+00 0.  1.
</event>
<event>
12    1  0.1348628E-002  0.1874643E+03  0.7818608E-02  0.1160768E+00
         -1   -1    0    0    0  501 -0.00000000000E+00  0.00000000000E+00  0.19992402347E+03  0.19992402347E+03  0.00000000000E+00 0. -1.
          1   -1    0    0  502    0  0.00000000000E+00 -0.00000000000E+00 -0.18063982931E+03  0.18063982931E+03  0.00000000000E+00 0.  1.
          6    2    1    2  502    0  0.81059620243E+01  0.72542532791E+02  0.40871587604E+02  0.19239930038E+03  0.17325956952E+03 0.  0.
         24    2    3    3    0    0 -0.13731249906E+02  0.26363610001E+02 -0.42692517047E+02  0.94346221280E+02  0.78708139996E+02 0.  0.
         -6    2    1    2    0  501 -0.81059620243E+01 -0.72542532791E+02 -0.21587393444E+02  0.18816455240E+03  0.17208067161E+03 0.  0.
        -24    2    5    5    0    0  0.26775505651E+02 -0.55440419725E+02  0.45248447541E+02  0.11071573899E+03  0.80124808974E+02 0.  0.
          5    1    3    3  502    0  0.21837211930E+02  0.46178922790E+02  0.83564104651E+02  0.98053079100E+02  0.47000000000E+01 0. -1.
        -11    1    4    4    0    0 -0.31776204491E+02 -0.17780879083E+02 -0.17212464933E+02  0.40275995108E+02  0.00000000000E+00 0.  1.
         12    1    4    4    0    0  0.18044954585E+02  0.44144489085E+02 -0.25480052114E+02  0.54070226172E+02  0.00000000000E+00 0. -1.
         -5    1    5    5    0  501 -0.34881467675E+02 -0.17102113066E+02 -0.66835840985E+02  0.77448813410E+02  0.47000000000E+01 0.  1.
         11    1    6    6    0    0 -0.29070038705E+01 -0.67099121938E+02  0.20107897545E+02  0.70107562931E+02  0.00000000000E+00 0. -1.
        -12    1    6    6    0    0  0.29682509521E+02  0.11658702213E+02  0.25140549996E+02  0.40608176059E+02  0.00000000000E+00 0.  1.
</event>
<event>
12    1  0.1348628E-002  0.2319917E+03  0.7818608E-02  0.1125246E+00
          2   -1    0    0  502    0  0.00000000000E+00  0.00000000000E+00  0.24271645781E+03  0.24271645781E+03  0.00000000000E+00 0.  1.
         -2   -1    0    0    0  501 -0.00000000000E+00 -0.00000000000E+00 -0.22811738317E+03  0.22811738317E+03  0.00000000000E+00 0. -1.
          6    2    1    2  502    0 -0.82716372406E+02 -0.12768694996E+03 -0.31730340613E+02  0.23813441775E+03  0.18043068183E+03 0.  0.
         24    2    3    3    0    0 -0.36059170639E+02 -0.15312846884E+03  0.20083052163E+00  0.17595841716E+03  0.78820888591E+02 0.  0.
         -6    2    1    2    0  501  0.82716372406E+02  0.12768694996E+03  0.46329415249E+02  0.23269942323E+03  0.16987245627E+03 0.  0.
        -24    2    5    5    0    0  0.10342502320E+02  0.12383482668E+03  0.31743274874E+01  0.14821707285E+03  0.80722937741E+02 0.  0.
          5    1    3    3  502    0 -0.46657201767E+02  0.25441518876E+02 -0.31931171135E+02  0.62176000591E+02  0.47000000000E+01 0. -1.
        -11    1    4    4    0    0  0.13559093326E+02 -0.44109792634E+02 -0.26534793214E+02  0.53231739300E+02  0.00000000000E+00 0.  1.
         12    1    4    4    0    0 -0.49618263965E+02 -0.10901867621E+03  0.26735623735E+02  0.12272667786E+03  0.00000000000E+00 0. -1.
         -5    1    5    5    0  501  0.72373870086E+02  0.38521232849E+01  0.43155087762E+02  0.84482350374E+02  0.47000000000E+01 0.  1.
         13    1    6    6    0    0 -0.34786024800E+02  0.49373031707E+02 -0.58576568804E+01  0.60680111449E+02  0.00000000000E+00 0. -1.
        -14    1    6    6    0    0  0.45128527119E+02  0.74461794973E+02  0.90319843678E+01  0.87536961406E+02  0.00000000000E+00 0.  1.
</event>
<event>
12    1  0.1348628E-002  0.2511734E+03  0.7818608E-02  0.1112566E+00
         -1   -1    0    0    0  501 -0.00000000000E+00  0.00000000000E+00  0.26767245261E+03  0.26767245261E+03  0.00000000000E+00 0. -1.
          1   -1    0    0  502    0  0.00000000000E+00 -0.00000000000E+00 -0.23592049703E+03  0.23592049703E+03  0.00000000000E+00 0.  1.
          6    2    1    2  502    0 -0.18225584225E+03 -0.15659815943E+02  0.23732221628E+02  0.25243142293E+03  0.17232522471E+03 0.  0.
         24    2    3    3    0    0 -0.52445169608E+02  0.21386619351E+01  0.72468793186E+02  0.11255669343E+03  0.68280403929E+02 0.  0.
         -6    2    1    2    0  501  0.18225584225E+03  0.15659815943E+02  0.80197339557E+01  0.25116152671E+03  0.17191676620E+03 0.  0.
        -24    2    5    5    0    0  0.35597804468E+02  0.11145224744E+02  0.49623827860E+02  0.98577280449E+02  0.76573730559E+02 0.  0.
          5    1    3    3  502    0 -0.12981067264E+03 -0.17798477878E+02 -0.48736571558E+02  0.13987472950E+03  0.47000000000E+01 0. -1.
        -11    1    4    4    0    0 -0.35229141568E+02 -0.23048188077E+02  0.10353120491E+02  0.43353183195E+02  0.00000000000E+00 0.  1.
         12    1    4    4    0    0 -0.17216028040E+02  0.25186850012E+02  0.62115672695E+02  0.69203510238E+02  0.00000000000E+00 0. -1.
         -5    1    5    5    0  501  0.14665803778E+03  0.45145911995E+01 -0.41604093904E+02  0.15258424626E+03  0.47000000000E+01 0.  1.
         11    1    6    6    0    0  0.32295835009E+01 -0.31198982943E+02  0.23674415799E+02  0.39297388078E+02  0.00000000000E+00 0. -1.
        -12    1    6    6    0    0  0.32368220968E+02  0.42344207687E+02  0.25949412061E+02  0.59279892371E+02  0.00000000000E+00 0.  1.
</event>
<event>
12    1  0.1348628E-002  0.1884873E+03  0.7818608E-02  0.1159833E+00
         -2   -1    0    0    0  501 -0.00000000000E+00  0.00000000000E+00  0.10310345715E+02  0.10310345715E+02  0.00000000000E+00 0.  1.
          2   -1    0    0  502    0  0.00000000000E+00 -0.00000000000E+00 -0.37353067826E+04  0.37353067826E+04  0.00000000000E+00 0. -1.
          6    2    1    2  502    0  0.79103855614E+02  0.95371834010E+01 -0.13491433050E+04  0.13623676277E+04  0.17178334534E+03 0.  0.
         24    2    3    3    0    0  0.20822215151E+02  0.92108780044E+01 -0.25649095312E+03  0.26815187742E+03  0.74829241707E+02 0.  0.
         -6    2    1    2    0  501 -0.79103855614E+02 -0.95371834010E+01 -0.23758531319E+04  0.23832495006E+04  0.16985788194E+03 0.  0.
        -24    2    5    5    0    0 -0.11068195078E+03 -0.31468099774E+01 -0.13464116924E+04  0.13532932975E+04  0.79485263024E+02 0.  0.
          5    1    3    3  502    0  0.58281640463E+02  0.32630539664E+00 -0.10926523518E+04  0.10942157502E+04  0.47000000000E+01 0. -1.
        -11    1    4    4    0    0 -0.88126565719E+01 -0.24013661429E+02 -0.15811488535E+03  0.16017064594E+03  0.00000000000E+00 0.  1.
         12    1    4    4    0    0  0.29634871723E+02  0.33224539433E+02 -0.98376067772E+02  0.10798123148E+03  0.00000000000E+00 0. -1.
         -5    1    5    5    0  501  0.31578095168E+02 -0.63903734236E+01 -0.10294414395E+04  0.10299562031E+04  0.47000000000E+01 0.  1.
         11    1    6    6    0    0 -0.78948516236E+02  0.27135756461E+02 -0.10868429718E+04  0.10900444316E+04  0.00000000000E+00 0. -1.
        -12    1    6    6    0    0 -0.31733434546E+02 -0.30282566438E+02 -0.25956872062E+03  0.26324886595E+03  0.00000000000E+00 0.  1.
</event>
<event>
12    1  0.1348628E-002  0.2185885E+03  0.7818608E-02  0.1134940E+00
         -2   -1    0    0    0  501 -0.00000000000E+00  0.00000000000E+00  0.41612860081E+02  0.41612860081E+02  0.00000000000E+00 0.  1.
          2   -1    0    0  502    0  0.00000000000E+00 -0.00000000000E+00 -0.11482338038E+04  0.11482338038E+04  0.00000000000E+00 0. -1.
          6    2    1    2  502    0  0.98953093113E+02 -0.93062061392E+02 -0.55111787880E+03  0.59271224719E+03  0.17065939684E+03 0.  0.
         24    2    3    3    0    0  0.10164125305E+03 -0.95745163504E+01 -0.27274175470E+03  0.30203587586E+03  0.80093631867E+02 0.  0.
         -6    2    1    2    0  501 -0.98953093113E+02  0.93062061392E+02 -0.55550306490E+03  0.59713441667E+03  0.17185341007E+03 0.  0.
        -24    2    5    5    0    0 -0.19089698189E+02  0.75193516858E+02 -0.44970616496E+03  0.46329675094E+03  0.79935993578E+02 0.  0.
          5    1    3    3  502    0 -0.26881599357E+01 -0.83487545041E+02 -0.27837612410E+03  0.29067637133E+03  0.47000000000E+01 0. -1.
        -13    1    4    4    0    0  0.15456956841E+01  0.75374261533E+01  0.29472283848E+01  0.82394249385E+01  0.00000000000E+00 0.  1.
         14    1    4    4    0    0  0.10009555736E+03 -0.17111942504E+02 -0.27568898308E+03  0.29379645092E+03  0.00000000000E+00 0. -1.
         -5    1    5    5    0  501 -0.79863394924E+02  0.17868544534E+02 -0.10579689994E+03  0.13383766573E+03  0.47000000000E+01 0.  1.
         13    1    6    6    0    0  0.96907228202E+01  0.41961063293E+02 -0.36802533465E+03  0.37053648658E+03  0.00000000000E+00 0. -1.
        -14    1    6    6    0    0 -0.28780421010E+02  0.33232453565E+02 -0.81680830314E+02  0.92760264361E+02  0.00000000000E+00 0.  1.
</event>
<event>
12    1  0.1348628E-002  0.2044138E+03  0.7818608E-02  0.1146068E+00
         -1   -1    0    0    0  501 -0.00000000000E+00  0.00000000000E+00  0.17756824114E+03  0.17756824114E+03  0.00000000000E+00 0.  1.
          1   -1    0    0  502    0  0.00000000000E+00 -0.00000000000E+00 -0.39432438572E+03  0.39432438572E+03  0.00000000000E+00 0. -1.
          6    2    1    2  502    0 -0.11433490139E+03  0.64222701232E+00 -0.28959584058E+03  0.35382794154E+03  0.16809395944E+03 0.  0.
         24    2    3    3    0    0 -0.15626056138E+02  0.29934752983E+02 -0.19730062116E+03  0.21547337625E+03  0.79755737684E+02 0.  0.
         -6    2    1    2    0  501  0.11433490139E+03 -0.64222701232E+00  0.72839695993E+02  0.21806468532E+03  0.17080311338E+03 0.  0.
        -24    2    5    5    0    0 -0.94514066400E+01 -0.66706245191E+00  0.37852414952E+02  0.89343084541E+02  0.80371682686E+02 0.  0.
          5    1    3    3  502    0 -0.98708845253E+02 -0.29292525971E+02 -0.92295219416E+02  0.13835456529E+03  0.47000000000E+01 0. -1.
        -13    1    4    4    0    0  0.16079285957E+02  0.22667232957E+02 -0.17695600446E+02  0.32946641133E+02  0.00000000000E+00 0.  1.
         14    1    4    4    0    0 -0.31705342095E+02  0.72675200266E+01 -0.17960502072E+03  0.18252673511E+03  0.00000000000E+00 0. -1.
         -5    1    5    5    0  501  0.12378630803E+03  0.24835439593E-01  0.34987281041E+02  0.12872160078E+03  0.47000000000E+01 0.  1.
         13    1    6    6    0    0 -0.81935504080E+01  0.10739002429E+02 -0.23403325134E+02  0.27021770275E+02  0.00000000000E+00 0. -1.
        -14    1    6    6    0    0 -0.12578562320E+01 -0.11406064881E+02  0.61255740086E+02  0.62321314266E+02  0.00000000000E+00 0.  1.
</event>
<event>
12    1  0.1348628E-002  0.1837095E+03  0.7818608E-02  0.1164261E+00
         -2   -1    0    0    0  501 -0.00000000000E+00  0.00000000000E+00  0.40443906368E+03  0.40443906368E+03  0.00000000000E+00 0.  1.
          2   -1    0    0  502    0  0.00000000000E+00 -0.00000000000E+00 -0.87966354739E+02  0.87966354739E+02  0.00000000000E+00 0. -1.
          6    2    1    2  502    0 -0.43202116231E+02 -0.18161552188E+02  0.20864079503E+03  0.27418071377E+03  0.17160366438E+03 0.  0.
         24    2    3    3    0    0  0.79025872881E+01 -0.29009960755E+02  0.20388183606E+03  0.22151083261E+03  0.81210942487E+02 0.  0.
         -6    2    1    2    0  501  0.43202116231E+02  0.18161552188E+02  0.10783191391E+03  0.21822470465E+03  0.18384241958E+03 0.  0.
        -24    2    5    5    0    0 -0.40760175548E+02 -0.13942359859E+02  0.91839742342E+02  0.12680169244E+03  0.76081204143E+02 0.  0.
          5    1    3    3  502    0 -0.51104703519E+02  0.10848408567E+02  0.47589589631E+01  0.52669881153E+02  0.47000000000E+01 0. -1.
        -13    1    4    4    0    0  0.27338874115E+01 -0.14041891107E+02  0.20512826923E+03  0.20562649558E+03  0.00000000000E+00 0.  1.
         14    1    4    4    0    0  0.51686998766E+01 -0.14968069649E+02 -0.12464331670E+01  0.15884337036E+02  0.00000000000E+00 0. -1.
         -5    1    5    5    0  501  0.83962291779E+02  0.32103912047E+02  0.15992171571E+02  0.91423012207E+02  0.47000000000E+01 0.  1.
         13    1    6    6    0    0 -0.12709683233E+02 -0.43175006796E+02  0.61390294968E+02  0.76120861635E+02  0.00000000000E+00 0. -1.
        -14    1    6    6    0    0 -0.28050492314E+02  0.29232646938E+02  0.30449447375E+02  0.50680830809E+02  0.00000000000E+00 0.  1.
</event>
<event>
12    1  0.1348628E-002  0.1886042E+03  0.7818608E-02  0.1159726E+00
         -2   -1    0    0    0  501 -0.00000000000E+00  0.00000000000E+00  0.71005911719E+02  0.71005911719E+02  0.00000000000E+00 0.  1.
          2   -1    0    0  502    0  0.00000000000E+00 -0.00000000000E+00 -0.64670580978E+03  0.64670580978E+03  0.00000000000E+00 0. -1.
          6    2    1    2  502    0  0.65487931507E+02 -0.13581955570E+02 -0.11305693382E+03  0.21660844240E+03  0.17223300596E+03 0.  0.
         24    2    3    3    0    0 -0.20358493549E+02 -0.26796955496E+02 -0.92907516210E+02  0.12732051517E+03  0.80287993698E+02 0.  0.
         -6    2    1    2    0  501 -0.65487931507E+02  0.13581955570E+02 -0.46264296423E+03  0.50110327910E+03  0.18053488659E+03 0.  0.
        -24    2    5    5    0    0 -0.10909752054E+03  0.13532077936E+02 -0.25432176577E+03  0.28821455118E+03  0.79389425294E+02 0.  0.
          5    1    3    3  502    0  0.85846425056E+02  0.13214999927E+02 -0.20149417613E+02  0.89287927225E+02  0.47000000000E+01 0. -1.
        -11    1    4    4    0    0 -0.37491737758E+01 -0.15004200248E+02  0.12547978041E+02  0.19915674279E+02  0.00000000000E+00 0.  1.
         12    1    4    4    0    0 -0.16609319773E+02 -0.11792755249E+02 -0.10545549425E+03  0.10740484089E+03  0.00000000000E+00 0. -1.
         -5    1    5    5    0  501  0.43609589032E+02  0.49877633962E-01 -0.20832119847E+03  0.21288872792E+03  0.47000000000E+01 0.  1.
         13    1    6    6    0    0 -0.28769275454E+02  0.38272972860E+02 -0.12625479605E+03  0.13502875689E+03  0.00000000000E+00 0. -1.
        -14    1    6    6    0    0 -0.80328245085E+02 -0.24740894925E+02 -0.12806696972E+03  0.15318579430E+03  0.00000000000E+00 0.  1.
</event>
<event>
12    1  0.1348628E-002  0.1831584E+03  0.7818608E-02  0.1164781E+00
          2   -1    0    0  502    0  0.00000000000E+00  0.00000000000E+00  0.27824819052E+03  0.27824819052E+03  0.00000000000E+00 0.  1.
         -2   -1    0    0    0  501 -0.00000000000E+00 -0.00000000000E+00 -0.12112994143E+03  0.12112994143E+03  0.00000000000E+00 0. -1.
          6    2    1    2  502    0  0.43620173697E+02 -0.51962479621E+02  0.91085289089E+02  0.20265939269E+03  0.16784361983E+03 0.  0.
         24    2    3    3    0    0 -0.38564932241E+02 -0.38727017928E+02  0.39793328395E+02  0.10476902383E+03  0.80037512788E+02 0.  0.
         -6    2    1    2    0  501 -0.43620173697E+02  0.51962479621E+02  0.66032959997E+02  0.19671873926E+03  0.17243866077E+03 0.  0.
        -24    2    5    5    0    0 -0.22561753237E+02  0.40222075297E+02 -0.31162278426E+02  0.96467562016E+02  0.78791210641E+02 0.  0.
          5    1    3    3  502    0  0.82185105938E+02 -0.13235461693E+02  0.51291960694E+02  0.97890368863E+02  0.47000000000E+01 0. -1.
        -13    1    4    4    0    0 -0.17416487528E+02 -0.51451644406E+02  0.53747563156E+02  0.76416008108E+02  0.00000000000E+00 0.  1.
         14    1    4    4    0    0 -0.21148444712E+02  0.12724626478E+02 -0.13954234762E+02  0.28353015722E+02  0.00000000000E+00 0. -1.
         -5    1    5    5    0  501 -0.21058420460E+02  0.11740404324E+02  0.97195238423E+02  0.10025117724E+03  0.47000000000E+01 0.  1.
         11    1    6    6    0    0 -0.13956880668E+02  0.64167138072E+02 -0.25179565610E+02  0.70329415259E+02  0.00000000000E+00 0. -1.
        -12    1    6    6    0    0 -0.86048725690E+01 -0.23945062776E+02 -0.59827128157E+01  0.26138146757E+02  0.00000000000E+00 0.  1.
</event>
<event>
12    1  0.1348628E-002  0.1739029E+03  0.7818608E-02  0.1173838E+00
         -2   -1    0    0    0  501 -0.00000000000E+00  0.00000000000E+00  0.12275691128E+02  0.12275691128E+02  0.00000000000E+00 0. -1.
          2   -1    0    0  502    0  0.00000000000E+00 -0.00000000000E+00 -0.26572130768E+04  0.26572130768E+04  0.00000000000E+00 0.  1.
          6    2    1    2  502    0  0.30272525199E+02  0.18328346145E+02 -0.95087935697E+03  0.96636001798E+03  0.16860539369E+03 0.  0.
         24    2    3    3    0    0 -0.38338798262E+02 -0.23884272144E+02 -0.52274472255E+03  0.53068723476E+03  0.79539765353E+02 0.  0.
         -6    2    1    2    0  501 -0.30272525199E+02 -0.18328346145E+02 -0.16940580287E+04  0.17031287499E+04  0.17193772199E+03 0.  0.
        -24    2    5    5    0    0 -0.81738030197E+02  0.44908325141E+01 -0.97660416120E+03  0.98345413243E+03  0.82006522604E+02 0.  0.
          5    1    3    3  502    0  0.68611323461E+02  0.42212618289E+02 -0.42813463442E+03  0.43567278322E+03  0.47000000000E+01 0. -1.
        -11    1    4    4    0    0 -0.26598389165E+02  0.26491779671E+02 -0.27901386575E+03  0.28152801988E+03  0.00000000000E+00 0.  1.
         12    1    4    4    0    0 -0.11740409097E+02 -0.50376051815E+02 -0.24373085680E+03  0.24915921488E+03  0.00000000000E+00 0. -1.
         -5    1    5    5    0  501  0.51465504998E+02 -0.22819178659E+02 -0.71745386747E+03  0.71967461750E+03  0.47000000000E+01 0.  1.
         11    1    6    6    0    0 -0.46678049722E+02 -0.38388770597E+02 -0.52364246075E+03  0.52711854903E+03  0.00000000000E+00 0. -1.
        -12    1    6    6    0    0 -0.35059980475E+02  0.42879603111E+02 -0.45296170045E+03  0.45633558339E+03  0.00000000000E+00 0.  1.
</event>
<event>
12    1  0.1348628E-002  0.2652646E+03  0.7818608E-02  0.1104021E+00
          1   -1    0    0  502    0  0.00000000000E+00  0.00000000000E+00  0.42680431762E+03  0.42680431762E+03  0.00000000000E+00 0. -1.
         -1   -1    0    0    0  501 -0.00000000000E+00 -0.00000000000E+00 -0.16761642155E+03  0.16761642155E+03  0.00000000000E+00 0.  1.
          6    2    1    2  502    0  0.19319798589E+03 -0.59212830615E+02  0.16789028814E+03  0.31432523219E+03  0.17257340953E+03 0.  0.
         24    2    3    3    0    0  0.89762321476E+02 -0.66772096789E+02  0.29398331034E+02  0.14124088465E+03  0.81048987431E+02 0.  0.
         -6    2    1    2    0  501 -0.19319798589E+03  0.59212830615E+02  0.91297607930E+02  0.28009550698E+03  0.17113333619E+03 0.  0.
        -24    2    5    5    0    0 -0.81594348693E+02  0.50564173266E+02  0.11142079268E+03  0.16626579349E+03  0.77558672544E+02 0.  0.
          5    1    3    3  502    0  0.10343566441E+03  0.75592661738E+01  0.13849195711E+03  0.17308434754E+03  0.47000000000E+01 0. -1.
        -11    1    4    4    0    0  0.32430447647E+01 -0.22927639504E+02  0.37323630199E+02  0.43923198469E+02  0.00000000000E+00 0.  1.
         12    1    4    4    0    0  0.86519276711E+02 -0.43844457285E+02 -0.79252991647E+01  0.97317686183E+02  0.00000000000E+00 0. -1.
         -5    1    5    5    0  501 -0.11160363720E+03  0.86486573492E+01 -0.20123184748E+02  0.11382971349E+03  0.47000000000E+01 0.  1.
         13    1    6    6    0    0  0.13219169975E+02  0.11803962237E+01  0.26865193053E+02  0.29964618934E+02  0.00000000000E+00 0. -1.
        -14    1    6    6    0    0 -0.94813518668E+02  0.49383777042E+02  0.84555599624E+02  0.13630117456E+03  0.00000000000E+00 0.  1.
</event>
<event>
12    1  0.1348628E-002  0.1791921E+03  0.7818608E-02  0.1168587E+00
         -2   -1    0    0    0  501 -0.00000000000E+00  0.00000000000E+00  0.23830616067E+02  0.23830616067E+02  0.00000000000E+00 0.  1.
          2   -1    0    0  502    0  0.00000000000E+00 -0.00000000000E+00 -0.13493847212E+04  0.13493847212E+04  0.00000000000E+00 0. -1.
          6    2    1    2  502    0  0.62193824414E+02  0.69436670205E+01 -0.64799246391E+03  0.67300757226E+03  0.17067124165E+03 0.  0.
         24    2    3    3    0    0  0.73467685863E+02  0.60780910770E+02 -0.41977870358E+03  0.43821157747E+03  0.81996382037E+02 0.  0.
         -6    2    1    2    0  501 -0.62193824414E+02 -0.69436670205E+01 -0.67756164120E+03  0.70020776498E+03  0.16518126471E+03 0.  0.
        -24    2    5    5    0    0 -0.83170662290E+01 -0.60577302600E+02 -0.42689637081E+03  0.43822601044E+03  0.77863609138E+02 0.  0.
          5    1    3    3  502    0 -0.11273861450E+02 -0.53837243750E+02 -0.22821376033E+03  0.23479599479E+03  0.47000000000E+01 0. -1.
        -11    1    4    4    0    0 -0.14350884958E+02  0.28281778882E+02 -0.91578729395E+02  0.96914759420E+02  0.00000000000E+00 0.  1.
         12    1    4    4    0    0  0.87818570821E+02  0.32499131888E+02 -0.32819997418E+03  0.34129681805E+03  0.00000000000E+00 0. -1.
         -5    1    5    5    0  501 -0.53876758185E+02  0.53633635580E+02 -0.25066527039E+03  0.26198175455E+03  0.47000000000E+01 0.  1.
         11    1    6    6    0    0  0.27107936883E+02  0.19070163456E+01 -0.11715169684E+03  0.12026220115E+03  0.00000000000E+00 0. -1.
        -12    1    6    6    0    0 -0.35425003112E+02 -0.62484318946E+02 -0.30974467397E+03  0.31796380928E+03  0.00000000000E+00 0.  1.
</event>
<event>
12    1  0.1348628E-002  0.2251722E+03  0.7818608E-02  0.1130085E+00
         -4   -1    0    0    0  501 -0.00000000000E+00  0.00000000000E+00  0.74135873261E+02  0.74135873261E+02  0.00000000000E+00 0.  1.
          4   -1    0    0  502    0  0.00000000000E+00 -0.00000000000E+00 -0.72288063014E+03  0.72288063014E+03  0.00000000000E+00 0. -1.
          6    2    1    2  502    0 -0.64562727822E+02  0.12651881081E+03 -0.22941584045E+03  0.32018500260E+03  0.17237010393E+03 0.  0.
         24    2    3    3    0    0 -0.52136413064E+02  0.23391351162E+01 -0.12701875727E+03  0.15868497846E+03  0.79520315453E+02 0.  0.
         -6    2    1    2    0  501  0.64562727822E+02 -0.12651881081E+03 -0.41932891643E+03  0.47683150080E+03  0.17707677626E+03 0.  0.
        -24    2    5    5    0    0  0.20677424756E+02 -0.14333191642E+03 -0.22313351450E+03  0.27503128751E+03  0.69871665623E+02 0.  0.
          5    1    3    3  502    0 -0.12426314757E+02  0.12417967569E+03 -0.10239708318E+03  0.16150002414E+03  0.47000000000E+01 0. -1.
        -13    1    4    4    0    0 -0.69697508957E+02  0.11554029881E+02 -0.11646953027E+03  0.13622184055E+03  0.00000000000E+00 0.  1.
         14    1    4    4    0    0  0.17561095892E+02 -0.92148947644E+01 -0.10549226999E+02  0.22463137909E+02  0.00000000000E+00 0. -1.
         -5    1    5    5    0  501  0.43885303066E+02  0.16813105617E+02 -0.19619540193E+03  0.20180021329E+03  0.47000000000E+01 0.  1.
         11    1    6    6    0    0  0.83327262280E+01 -0.50044323054E+02 -0.14197326138E+03  0.15076563117E+03  0.00000000000E+00 0. -1.
        -12    1    6    6    0    0  0.12344698528E+02 -0.93287593370E+02 -0.81160253117E+02  0.12426565634E+03  0.00000000000E+00 0.  1.
</event>
<event>
12    1  0.1348628E-002  0.1929793E+03  0.7818608E-02  0.1155801E+00
         -2   -1    0    0    0  501 -0.00000000000E+00  0.00000000000E+00  0.26164907714E+02  0.26164907714E+02  0.00000000000E+00 0. -1.
          2   -1    0    0  502    0  0.00000000000E+00 -0.00000000000E+00 -0.14249857967E+04  0.14249857967E+04  0.00000000000E+00 0.  1.
          6    2    1    2  502    0 -0.75035947875E+01  0.87152662028E+02 -0.67562001820E+03  0.70271651327E+03  0.17232585008E+03 0.  0.
         24    2    3    3    0    0 -0.13926595928E+02  0.11903295730E+03 -0.62953127617E+03  0.64611377207E+03  0.82404998566E+02 0.  0.
         -6    2    1    2    0  501  0.75035947875E+01 -0.87152662028E+02 -0.72320087077E+03  0.74843419112E+03  0.17170424724E+03 0.  0.
        -24    2    5    5    0    0  0.21680476039E+02 -0.69153202950E+02 -0.71580620197E+03  0.72390389117E+03  0.80038218047E+02 0.  0.
          5    1    3    3  502    0  0.64230011409E+01 -0.31880295267E+02 -0.46088742027E+02  0.56602741202E+02  0.47000000000E+01 0. -1.
        -11    1    4    4    0    0 -0.39707767009E+02  0.45956312095E+02 -0.38012843545E+03  0.38494975882E+03  0.00000000000E+00 0.  1.
         12    1    4    4    0    0  0.25781171080E+02  0.73076645200E+02 -0.24940284072E+03  0.26116401325E+03  0.00000000000E+00 0. -1.
         -5    1    5    5    0  501 -0.14176881251E+02 -0.17999459078E+02 -0.73946688000E+01  0.24530299953E+02  0.47000000000E+01 0.  1.
         13    1    6    6    0    0 -0.29666964527E+02 -0.26302148076E+02 -0.21169326502E+03  0.21537402404E+03  0.00000000000E+00 0. -1.
        -14    1    6    6    0    0  0.51347440566E+02 -0.42851054874E+02 -0.50411293695E+03  0.50852986712E+03  0.00000000000E+00 0.  1.
</event>
<event>
12    1  0.1348628E-002  0.2444020E+03  0.7818608E-02  0.1116895E+00
          1   -1    0    0  502    0  0.00000000000E+00  0.00000000000E+00  0.92528220012E+03  0.92528220012E+03  0.00000000000E+00 0. -1.
         -1   -1    0    0    0  501 -0.00000000000E+00 -0.00000000000E+00 -0.70066767792E+02  0.70066767792E+02  0.00000000000E+00 0.  1.
          6    2    1    2  502    0  0.15749047079E+03  0.74966631493E+02  0.56624900352E+03  0.61651420389E+03  0.17037777257E+03 0.  0.
         24    2    3    3    0    0  0.38986161459E+02  0.37073641976E+02  0.38418247360E+03  0.39594797506E+03  0.79273262942E+02 0.  0.
         -6    2    1    2    0  501 -0.15749047079E+03 -0.74966631493E+02  0.28896642881E+03  0.37883476402E+03  0.17202016517E+03 0.  0.
        -24    2    5    5    0    0 -0.15282956665E+03 -0.30297971294E+01  0.19553058877E+03  0.26072897089E+03  0.79883221060E+02 0.  0.
          5    1    3    3  502    0  0.11850430933E+03  0.37892989517E+02  0.18206652992E+03  0.22056622883E+03  0.47000000000E+01 0. -1.
        -13    1    4    4    0    0  0.11269855908E+02  0.48493333381E+01  0.33050486784E+01  0.12706259590E+02  0.00000000000E+00 0.  1.
         14    1    4    4    0    0  0.27716305551E+02  0.32224308638E+02  0.38087742493E+03  0.38324171547E+03  0.00000000000E+00 0. -1.
         -5    1    5    5    0  501 -0.46609041387E+01 -0.71936834363E+02  0.93435840046E+02  0.11810579313E+03  0.47000000000E+01 0.  1.
         13    1    6    6    0    0 -0.10847585817E+02 -0.11102981902E+02  0.67873611902E+02  0.69625954341E+02  0.00000000000E+00 0. -1.
        -14    1    6    6    0    0 -0.14198198083E+03  0.80731847722E+01  0.12765697686E+03  0.19110301655E+03  0.00000000000E+00 0.  1.
</event>
<event>
12    1  0.1348628E-002  0.2610733E+03  0.7818608E-02  0.1106500E+00
          2   -1    0    0  502    0  0.00000000000E+00  0.00000000000E+00  0.26253944937E+04  0.26253944937E+04  0.00000000000E+00 0. -1.
         -2   -1    0    0    0  501 -0.00000000000E+00 -0.00000000000E+00 -0.30439323339E+02  0.30439323339E+02  0.00000000000E+00 0.  1.
          6    2    1    2  502    0  0.13160209951E+03  0.14405164234E+03  0.18087866583E+04  0.18275982659E+04  0.17417306888E+03 0.  0.
         24    2    3    3    0    0  0.10150874386E+03  0.13398004616E+03  0.93986881615E+03  0.95808843067E+03  0.79532204609E+02 0.  0.
         -6    2    1    2    0  501 -0.13160209951E+03 -0.14405164234E+03  0.78616851206E+03  0.82823555116E+03  0.17275187582E+03 0.  0.
        -24    2    5    5    0    0 -0.96682885687E+02 -0.21353740075E+02  0.47912069935E+03  0.49570799440E+03  0.79788524059E+02 0.  0.
          5    1    3    3  502    0  0.30093355656E+02  0.10071596181E+02  0.86891784216E+03  0.86950983521E+03  0.47000000000E+01 0. -1.
        -13    1    4    4    0    0  0.16522512298E+02 -0.79468589897E+01  0.14751977658E+03  0.14865473575E+03  0.00000000000E+00 0.  1.
         14    1    4    4    0    0  0.84986231560E+02  0.14192690515E+03  0.79234903957E+03  0.80943369492E+03  0.00000000000E+00 0. -1.
         -5    1    5    5    0  501 -0.34919213827E+02 -0.12269790226E+03  0.30704781271E+03  0.33252755676E+03  0.47000000000E+01 0.  1.
         11    1    6    6    0    0  0.44777032220E-01 -0.51558004572E+01  0.19625275606E+03  0.19632047408E+03  0.00000000000E+00 0. -1.
        -12    1    6    6    0    0 -0.96727662719E+02 -0.16197939618E+02  0.28286794329E+03  0.29938752032E+03  0.00000000000E+00 0.  1.
</event>
<event>
12    1  0.1348628E-002  0.2004049E+03  0.7818608E-02  0.1149398E+00
         -1   -1    0    0    0  501 -0.00000000000E+00  0.00000000000E+00  0.15426329055E+03  0.15426329055E+03  0.00000000000E+00 0.  1.
          1   -1    0    0  502    0  0.00000000000E+00 -0.00000000000E+00 -0.28453973734E+03  0.28453973734E+03  0.00000000000E+00 0. -1.
          6    2    1    2  502    0 -0.53178917505E+02 -0.81884424729E+02 -0.20947338987E+01  0.20330615564E+03  0.17831418545E+03 0.  0.
         24    2    3    3    0    0 -0.70176585196E+02 -0.25166266992E+02  0.52327758576E+02  0.12274706049E+03  0.82283366719E+02 0.  0.
         -6    2    1    2    0  501  0.53178917505E+02  0.81884424729E+02 -0.12818171289E+03  0.23549687225E+03  0.17174157633E+03 0.  0.
        -24    2    5    5    0    0  0.83409652631E+02  0.89067259274E+02 -0.55029863156E+02  0.15588045700E+03  0.79876681251E+02 0.  0.
          5    1    3    3  502    0  0.16997667690E+02 -0.56718157737E+02 -0.54422492474E+02  0.80559095148E+02  0.47000000000E+01 0. -1.
        -13    1    4    4    0    0  0.17631318346E+01 -0.45520344248E+01  0.47506846318E+02  0.47756990047E+02  0.00000000000E+00 0.  1.
         14    1    4    4    0    0 -0.71939717030E+02 -0.20614232568E+02  0.48209122573E+01  0.74990070448E+02  0.00000000000E+00 0. -1.
         -5    1    5    5    0  501 -0.30230735125E+02 -0.71828345453E+01 -0.73151849735E+02  0.79616415255E+02  0.47000000000E+01 0.  1.
         13    1    6    6    0    0  0.40281678009E+02  0.90175916627E+01 -0.49965532578E+02  0.64811148643E+02  0.00000000000E+00 0. -1.
        -14    1    6    6    0    0  0.43127974622E+02  0.80049667612E+02 -0.50643305779E+01  0.91069308353E+02  0.00000000000E+00 0.  1.
</event>
<event>
12    1  0.1348628E-002  0.4023539E+03  0.7818608E-02  0.1042968E+00
         -2   -1    0    0    0  501 -0.00000000000E+00  0.00000000000E+00  0.22346139361E+03  0.22346139361E+03  0.00000000000E+00 0.  1.
          2   -1    0    0  502    0  0.00000000000E+00 -0.00000000000E+00 -0.83380348990E+03  0.83380348990E+03  0.00000000000E+00 0. -1.
          6    2    1    2  502    0  0.35587673357E+03 -0.73015314373E+02 -0.49692108656E+03  0.63969238960E+03  0.17405832762E+03 0.  0.
         24    2    3    3    0    0  0.26964400224E+03 -0.97592493658E+02 -0.44685379604E+03  0.53688701389E+03  0.79606330692E+02 0.  0.
         -6    2    1    2    0  501 -0.35587673357E+03  0.73015314373E+02 -0.11342100973E+03  0.41757249392E+03  0.17182251481E+03 0.  0.
        -24    2    5    5    0    0 -0.16631131223E+03 -0.24052786434E+02 -0.74024596170E+02  0.20093585674E+03  0.81594047440E+02 0.  0.
          5    1    3    3  502    0  0.86232731333E+02  0.24577179285E+02 -0.50067290519E+02  0.10280537571E+03  0.47000000000E+01 0. -1.
        -13    1    4    4    0    0  0.13874910496E+03 -0.15740549721E+02 -0.17099270570E+03  0.22076590415E+03  0.00000000000E+00 0.  1.
         14    1    4    4    0    0  0.13089489728E+03 -0.81851943937E+02 -0.27586109033E+03  0.31612110974E+03  0.00000000000E+00 0. -1.
         -5    1    5    5    0  501 -0.18956542134E+03  0.97068100807E+02 -0.39396413563E+02  0.21663663717E+03  0.47000000000E+01 0.  1.
         13    1    6    6    0    0 -0.34912628386E+02  0.84885637174E+00 -0.55989045021E+02  0.65987766596E+02  0.00000000000E+00 0. -1.
        -14    1    6    6    0    0 -0.13139868384E+03 -0.24901642806E+02 -0.18035551149E+02  0.13494809015E+03  0.00000000000E+00 0.  1.
</event>
<event>
12    1  0.1348628E-002  0.2428104E+03  0.7818608E-02  0.1117935E+00
         -1   -1    0    0    0  501 -0.00000000000E+00  0.00000000000E+00  0.90512885845E+03  0.90512885845E+03  0.00000000000E+00 0. -1.
          1   -1    0    0  502    0  0.00000000000E+00 -0.00000000000E+00 -0.68999730149E+02  0.68999730149E+02  0.00000000000E+00 0.  1.
          6    2    1    2  502    0  0.14204087358E+03  0.97711975764E+02  0.30369551705E+03  0.38916596552E+03  0.17174382570E+03 0.  0.
         24    2    3    3    0    0  0.13605636449E+03  0.10137778385E+03  0.17461043056E+03  0.25980483514E+03  0.90669512659E+02 0.  0.
         -6    2    1    2    0  501 -0.14204087358E+03 -0.97711975764E+02  0.53243361125E+03  0.58496262308E+03  0.17021304310E+03 0.  0.
        -24    2    5    5    0    0 -0.55314267201E+02 -0.12676528832E+02  0.11472562093E+03  0.14992861675E+03  0.78078546885E+02 0.  0.
          5    1    3    3  502    0  0.59845090889E+01 -0.36658080871E+01  0.12908508649E+03  0.12936113037E+03  0.47000000000E+01 0. -1.
        -11    1    4    4    0    0  0.78075697098E+01  0.20417591483E+02  0.75564825715E+02  0.78663073117E+02  0.00000000000E+00 0.  1.
         12    1    4    4    0    0  0.12824879478E+03  0.80960192368E+02  0.99045604847E+02  0.18114176203E+03  0.00000000000E+00 0. -1.
         -5    1    5    5    0  501 -0.86726606375E+02 -0.85035446932E+02  0.41770799032E+03  0.43503400633E+03  0.47000000000E+01 0.  1.
         11    1    6    6    0    0 -0.42636086734E+02  0.99852424575E+01  0.11593913286E+03  0.12393314120E+03  0.00000000000E+00 0. -1.
        -12    1    6    6    0    0 -0.12678180468E+02 -0.22661771289E+02 -0.12135119308E+01  0.25995475552E+02  0.00000000000E+00 0.  1.
</event>
<event>
12    1  0.1348628E-002  0.2080456E+03  0.7818608E-02  0.1143123E+00
         -2   -1    0    0    0  501 -0.00000000000E+00  0.00000000000E+00  0.48719211175E+02  0.48719211175E+02  0.00000000000E+00 0. -1.
          2   -1    0    0  502    0  0.00000000000E+00 -0.00000000000E+00 -0.89011110557E+03  0.89011110557E+03  0.00000000000E+00 0.  1.
          6    2    1    2  502    0 -0.10540600117E+03 -0.49884955824E+02 -0.39952590090E+03  0.45028751345E+03  0.17186903553E+03 0.  0.
         24    2    3    3    0    0 -0.30055908789E+02 -0.89961156539E+02 -0.27036050108E+03  0.29540197895E+03  0.71910786979E+02 0.  0.
         -6    2    1    2    0  501  0.10540600117E+03  0.49884955824E+02 -0.44186599350E+03  0.48854280330E+03  0.17271242152E+03 0.  0.
        -24    2    5    5    0    0  0.13675492407E+03  0.17879837587E+02 -0.37651316821E+03  0.40916922877E+03  0.81459769758E+02 0.  0.
          5    1    3    3  502    0 -0.75350092384E+02  0.40076200715E+02 -0.12916539982E+03  0.15488553450E+03  0.47000000000E+01 0. -1.
        -11    1    4    4    0    0 -0.49054767199E+02 -0.41881537904E+02 -0.18120000336E+03  0.19233791779E+03  0.00000000000E+00 0.  1.
         12    1    4    4    0    0  0.18998858410E+02 -0.48079618634E+02 -0.89160497717E+02  0.10306406116E+03  0.00000000000E+00 0. -1.
         -5    1    5    5    0  501 -0.31348922900E+02  0.32005118237E+02 -0.65352825288E+02  0.79373574529E+02  0.47000000000E+01 0.  1.
         11    1    6    6    0    0  0.54763247614E+02  0.39126183369E+02 -0.10471416489E+03  0.12447862404E+03  0.00000000000E+00 0. -1.
        -12    1    6    6    0    0  0.81991676459E+02 -0.21246345782E+02 -0.27179900332E+03  0.28469060474E+03  0.00000000000E+00 0.  1.
</event>
<event>
12    1  0.1348628E-002  0.1953145E+03  0.7818608E-02  0.1153753E+00
          1   -1    0    0  502    0  0.00000000000E+00  0.00000000000E+00  0.11894702364E+04  0.11894702364E+04  0.00000000000E+00 0.  1.
         -1   -1    0    0    0  501 -0.00000000000E+00 -0.00000000000E+00 -0.32281742449E+02  0.32281742449E+02  0.00000000000E+00 0. -1.
          6    2    1    2  502    0  0.84492940987E+02 -0.21626792648E+02  0.62238680871E+03  0.65178665141E+03  0.17278230253E+03 0.  0.
         24    2    3    3    0    0  0.10986618936E+03 -0.51843617096E+02  0.55009048188E+03  0.56928994186E+03  0.82055831336E+02 0.  0.
         -6    2    1    2    0  501 -0.84492940987E+02  0.21626792648E+02  0.53480168524E+03  0.56996532744E+03  0.17675083227E+03 0.  0.
        -24    2    5    5    0    0 -0.12493292342E+03  0.54480628243E+01  0.45867522899E+03  0.48213326712E+03  0.80197286927E+02 0.  0.
          5    1    3    3  502    0 -0.25373248378E+02  0.30216824448E+02  0.72296326833E+02  0.82496709550E+02  0.47000000000E+01 0. -1.
        -11    1    4    4    0    0  0.97267767564E+02 -0.32753846418E+02  0.52658153408E+03  0.53649039609E+03  0.00000000000E+00 0.  1.
         12    1    4    4    0    0  0.12598421800E+02 -0.19089770678E+02  0.23508947793E+02  0.32799545770E+02  0.00000000000E+00 0. -1.
         -5    1    5    5    0  501  0.40439982438E+02  0.16178729823E+02  0.76126456254E+02  0.87832060320E+02  0.47000000000E+01 0.  1.
         13    1    6    6    0    0 -0.30596518152E+02 -0.12923894064E+02  0.37335184745E+02  0.49970891334E+02  0.00000000000E+00 0. -1.
        -14    1    6    6    0    0 -0.94336405272E+02  0.18371956889E+02  0.42134004424E+03  0.43216237578E+03  0.00000000000E+00 0.  1.
</event>
<event>
12    1  0.1348628E-002  0.1819812E+03  0.7818608E-02  0.1165899E+00
         -1   -1    0    0    0  501 -0.00000000000E+00  0.00000000000E+00  0.15915072082E+03  0.15915072082E+03  0.00000000000E+00 0. -1.
          1   -1    0    0  502    0  0.00000000000E+00 -0.00000000000E+00 -0.26609138635E+03  0.26609138635E+03  0.00000000000E+00 0.  1.
          6    2    1    2  502    0  0.55582385002E+02  0.29288154274E+02  0.45493163057E+02  0.18883845084E+03  0.17217181862E+03 0.  0.
         24    2    3    3    0    0  0.52039769234E+02  0.50481893208E+01 -0.37402237056E+02  0.10227134746E+03  0.79541683271E+02 0.  0.
         -6    2    1    2    0  501 -0.55582385002E+02 -0.29288154274E+02 -0.15243382859E+03  0.23640365633E+03  0.16942083438E+03 0.  0.
        -24    2    5    5    0    0  0.25812888514E+02 -0.33824623317E+02 -0.11422058574E+03  0.14624761365E+03  0.80818388598E+02 0.  0.
          5    1    3    3  502    0  0.35426157688E+01  0.24239964953E+02  0.82895400114E+02  0.86567103379E+02  0.47000000000E+01 0. -1.
        -11    1    4    4    0    0  0.16303058838E+01 -0.29459811650E+02 -0.27597715959E+02  0.40400152548E+02  0.00000000000E+00 0.  1.
         12    1    4    4    0    0  0.50409463350E+02  0.34508000971E+02 -0.98045210970E+01  0.61871194914E+02  0.00000000000E+00 0. -1.
         -5    1    5    5    0  501 -0.81395273517E+02  0.45364690426E+01 -0.38213242849E+02  0.90156042678E+02  0.47000000000E+01 0.  1.
         11    1    6    6    0    0 -0.27131405339E+02 -0.47581833558E+01 -0.18911909324E+02  0.33412778675E+02  0.00000000000E+00 0. -1.
        -12    1    6    6    0    0  0.52944293853E+02 -0.29066439961E+02 -0.95308676414E+02  0.11283483497E+03  0.00000000000E+00 0.  1.
</event>
<event>
12    1  0.1348628E-002  0.1876713E+03  0.7818608E-02  0.1160579E+00
          1   -1    0    0  502    0  0.00000000000E+00  0.00000000000E+00  0.22770494099E+04  0.22770494099E+04  0.00000000000E+00 0.  1.
         -1   -1    0    0    0  501 -0.00000000000E+00 -0.00000000000E+00 -0.15911865274E+02  0.15911865274E+02  0.00000000000E+00 0. -1.
          6    2    1    2  502    0  0.94375635735E+01 -0.73713534459E+02  0.93692055974E+03  0.95546154304E+03  0.17194147895E+03 0.  0.
         24    2    3    3    0    0  0.36463981178E+02 -0.10591405528E+03  0.72248359829E+03  0.73689210046E+03  0.92086963771E+02 0.  0.
         -6    2    1    2    0  501 -0.94375635735E+01  0.73713534459E+02  0.13242169849E+04  0.13374997321E+04  0.17271988202E+03 0.  0.
        -24    2    5    5    0    0 -0.59830053760E+02  0.90807799495E+02  0.92143466257E+03  0.93119035970E+03  0.79044018287E+02 0.  0.
          5    1    3    3  502    0 -0.27026417604E+02  0.32200520826E+02  0.21443696145E+03  0.21856944257E+03  0.47000000000E+01 0. -1.
        -13    1    4    4    0    0 -0.13183633556E+02 -0.32587845290E+02  0.69029192306E+02  0.77464864583E+02  0.00000000000E+00 0.  1.
         14    1    4    4    0    0  0.49647614734E+02 -0.73326209995E+02  0.65345440599E+03  0.65942723588E+03  0.00000000000E+00 0. -1.
         -5    1    5    5    0  501  0.50392490186E+02 -0.17094265036E+02  0.40278232229E+03  0.40630937242E+03  0.47000000000E+01 0.  1.
         13    1    6    6    0    0 -0.35620914241E+02 -0.42627093745E+01  0.28225195722E+03  0.28452273649E+03  0.00000000000E+00 0. -1.
        -14    1    6    6    0    0 -0.24209139519E+02  0.95070508869E+02  0.63918270535E+03  0.64666762321E+03  0.00000000000E+00 0.  1.
</event>
<event>
12    1  0.1348628E-002  0.1925321E+03  0.7818608E-02  0.1156197E+00
         -1   -1    0    0    0  501 -0.00000000000E+00  0.00000000000E+00  0.46245732989E+03  0.46245732989E+03  0.00000000000E+00 0.  1.
          1   -1    0    0  502    0  0.00000000000E+00 -0.00000000000E+00 -0.80288771994E+02  0.80288771994E+02  0.00000000000E+00 0. -1.
          6    2    1    2  502    0 -0.20688972977E+02  0.81243095834E+02  0.18129907202E+03  0.26529996815E+03  0.17460310811E+03 0.  0.
         24    2    3    3    0    0 -0.79591134721E+02  0.62047976238E+02  0.14334307680E+03  0.19249430321E+03  0.79511753974E+02 0.  0.
         -6    2    1    2    0  501  0.20688972977E+02 -0.81243095834E+02  0.20086948588E+03  0.27744613373E+03  0.17204456558E+03 0.  0.
        -24    2    5    5    0    0 -0.33673746853E+02 -0.80925128290E+02  0.18650664776E+03  0.22102107255E+03  0.79892347808E+02 0.  0.
          5    1    3    3  502    0  0.58902161745E+02  0.19195119596E+02  0.37955995223E+02  0.72805664943E+02  0.47000000000E+01 0. -1.
        -13    1    4    4    0    0 -0.34347121598E+02  0.47876264872E+02  0.13078862561E+03  0.14344868800E+03  0.00000000000E+00 0.  1.
         14    1    4    4    0    0 -0.45244013123E+02  0.14171711366E+02  0.12554451190E+02  0.49045615209E+02  0.00000000000E+00 0. -1.
         -5    1    5    5    0  501  0.54362719830E+02 -0.31796754390E+00  0.14362838119E+02  0.56425061183E+02  0.47000000000E+01 0.  1.
         13    1    6    6    0    0  0.19763265957E+02 -0.46927375556E+02  0.54375971567E+02  0.74495043739E+02  0.00000000000E+00 0. -1.
        -14    1    6    6    0    0 -0.53437012810E+02 -0.33997752734E+02  0.13213067619E+03  0.14652602881E+03  0.00000000000E+00 0.  1.
</event>
<event>
12    1  0.1348628E-002  0.1881587E+03  0.7818608E-02  0.1160133E+00
         -2   -1    0    0    0  501 -0.00000000000E+00  0.00000000000E+00  0.37200540348E+02  0.37200540348E+02  0.00000000000E+00 0. -1.
          2   -1    0    0  502    0  0.00000000000E+00 -0.00000000000E+00 -0.95298101965E+03  0.95298101965E+03  0.00000000000E+00 0.  1.
          6    2    1    2  502    0  0.51701587333E+02  0.58286711955E+02 -0.47321503308E+03  0.50885501131E+03  0.17008985884E+03 0.  0.
         24    2    3    3    0    0  0.35652677752E+02 -0.24495906835E+02 -0.33232590233E+03  0.34459190945E+03  0.80199225746E+02 0.  0.
         -6    2    1    2    0  501 -0.51701587333E+02 -0.58286711955E+02 -0.44256544622E+03  0.48132654869E+03  0.17245485600E+03 0.  0.
        -24    2    5    5    0    0  0.31403484278E+02  0.11490110261E+01 -0.16454801060E+03  0.18509211010E+03  0.78711767724E+02 0.  0.
          5    1    3    3  502    0  0.16048909581E+02  0.82782618789E+02 -0.14088913074E+03  0.16426310186E+03  0.47000000000E+01 0. -1.
        -11    1    4    4    0    0  0.25759061514E+02 -0.34326382800E+02 -0.71484051871E+02  0.83377451857E+02  0.00000000000E+00 0.  1.
         12    1    4    4    0    0  0.98936162377E+01  0.98304759659E+01 -0.26084185046E+03  0.26121445759E+03  0.00000000000E+00 0. -1.
         -5    1    5    5    0  501 -0.83105071611E+02 -0.59435722981E+02 -0.27801743562E+03  0.29623443859E+03  0.47000000000E+01 0.  1.
         11    1    6    6    0    0  0.23025827554E+02 -0.12973436344E+02 -0.16647427550E+03  0.16855913855E+03  0.00000000000E+00 0. -1.
        -12    1    6    6    0    0  0.83776567243E+01  0.14122447370E+02  0.19262648993E+01  0.16532971553E+02  0.00000000000E+00 0.  1.
</event>
<event>
12    1  0.1348628E-002  0.1892291E+03  0.7818608E-02  0.1159158E+00
          1   -1    0    0  502    0  0.00000000000E+00  0.00000000000E+00  0.48578528183E+03  0.48578528183E+03  0.00000000000E+00 0.  1.
         -1   -1    0    0    0  501 -0.00000000000E+00 -0.00000000000E+00 -0.81341419562E+02  0.81341419562E+02  0.00000000000E+00 0. -1.
          6    2    1    2  502    0  0.79458742971E+02  0.49513913529E+02  0.29536312958E+03  0.35477706818E+03  0.17280645336E+03 0.  0.
         24    2    3    3    0    0  0.10513484985E+03 -0.97247236288E+00  0.16028459808E+03  0.20822865537E+03  0.81324892742E+02 0.  0.
         -6    2    1    2    0  501 -0.79458742971E+02 -0.49513913529E+02  0.10908073268E+03  0.21234963321E+03  0.15629600447E+03 0.  0.
        -24    2    5    5    0    0  0.17547002454E+02 -0.22142107388E+02  0.30097980075E+02  0.84210273033E+02  0.73398306962E+02 0.  0.
          5    1    3    3  502    0 -0.25676106880E+02  0.50486385892E+02  0.13507853151E+03  0.14654841282E+03  0.47000000000E+01 0. -1.
        -11    1    4    4    0    0  0.86795106218E+02  0.23380203200E+02  0.15207836377E+03  0.17665744562E+03  0.00000000000E+00 0.  1.
         12    1    4    4    0    0  0.18339743634E+02 -0.24352675562E+02  0.82062343077E+01  0.31571209750E+02  0.00000000000E+00 0. -1.
         -5    1    5    5    0  501 -0.97005745425E+02 -0.27371806140E+02  0.78982752609E+02  0.12813936018E+03  0.47000000000E+01 0.  1.
         13    1    6    6    0    0  0.37913875098E+02 -0.12762042811E+02  0.42681012275E+02  0.58497867230E+02  0.00000000000E+00 0. -1.
        -14    1    6    6    0    0 -0.20366872644E+02 -0.93800645776E+01 -0.12583032200E+02  0.25712405802E+02  0.00000000000E+00 0.  1.
</event>
<event>
12    1  0.1348628E-002  0.2676106E+03  0.7818608E-02  0.1102655E+00
         -4   -1    0    0    0  501 -0.00000000000E+00  0.00000000000E+00  0.17312979809E+03  0.17312979809E+03  0.00000000000E+00 0. -1.
          4   -1    0    0  502    0  0.00000000000E+00 -0.00000000000E+00 -0.41377524247E+03  0.41377524247E+03  0.00000000000E+00 0.  1.
          6    2    1    2  502    0  0.19407287396E+03  0.65506648635E+02 -0.12552778406E+03  0.29588560495E+03  0.17273003567E+03 0.  0.
         24    2    3    3    0    0  0.17838206890E+03  0.31713657856E+01 -0.12371104212E+03  0.23140863695E+03  0.80095663089E+02 0.  0.
         -6    2    1    2    0  501 -0.19407287396E+03 -0.65506648635E+02 -0.11511766032E+03  0.29101943561E+03  0.17171148699E+03 0.  0.
        -24    2    5    5    0    0 -0.16178606485E+03 -0.94881200340E+02 -0.13286451236E+03  0.24366605044E+03  0.80888766424E+02 0.  0.
          5    1    3    3  502    0  0.15690805054E+02  0.62335282849E+02 -0.18167419454E+01  0.64476968000E+02  0.47000000000E+01 0. -1.
        -13    1    4    4    0    0  0.14763913213E+02 -0.25047991230E+02 -0.13003771873E+02  0.31850794039E+02  0.00000000000E+00 0.  1.
         14    1    4    4    0    0  0.16361815569E+03  0.28219357015E+02 -0.11070727024E+03  0.19955784291E+03  0.00000000000E+00 0. -1.
         -5    1    5    5    0  501 -0.32286809109E+02  0.29374551705E+02  0.17746852037E+02  0.47353385175E+02  0.47000000000E+01 0.  1.
         11    1    6    6    0    0 -0.11720639872E+03 -0.76951295650E+02 -0.51881591872E+02  0.14950097450E+03  0.00000000000E+00 0. -1.
        -12    1    6    6    0    0 -0.44579666130E+02 -0.17929904690E+02 -0.80982920488E+02  0.94165075932E+02  0.00000000000E+00 0.  1.
</event>
<event>
12    1  0.1348628E-002  0.1965356E+03  0.7818608E-02  0.1152695E+00
          1   -1    0    0  502    0  0.00000000000E+00  0.00000000000E+00  0.56149084526E+03  0.56149084526E+03  0.00000000000E+00 0. -1.
         -1   -1    0    0    0  501 -0.00000000000E+00 -0.00000000000E+00 -0.10278093622E+03  0.10278093622E+03  0.00000000000E+00 0.  1.
          6    2    1    2  502    0 -0.24975941910E+02  0.91136613978E+02  0.41984274087E+03  0.46329282184E+03  0.17158855331E+03 0.  0.
         24    2    3    3    0    0 -0.62531155662E+02  0.11075001699E+03  0.28870118178E+03  0.32539692568E+03  0.79743809727E+02 0.  0.
         -6    2    1    2    0  501  0.24975941910E+02 -0.91136613978E+02  0.38867168175E+02  0.20097895964E+03  0.17306705457E+03 0.  0.
        -24    2    5    5    0    0 -0.13073998898E+02  0.16312158944E+02  0.26224560799E+02  0.86196720951E+02  0.79404855878E+02 0.  0.
          5    1    3    3  502    0  0.37555213752E+02 -0.19613403014E+02  0.13114155909E+03  0.13789589616E+03  0.47000000000E+01 0. -1.
        -11    1    4    4    0    0 -0.40997482492E+02  0.10973543201E+03  0.27726023437E+03  0.30099152176E+03  0.00000000000E+00 0.  1.
         12    1    4    4    0    0 -0.21533673170E+02  0.10145849807E+01  0.11440947411E+02  0.24405403921E+02  0.00000000000E+00 0. -1.
         -5    1    5    5    0  501  0.38049940809E+02 -0.10744877292E+03  0.12642607376E+02  0.11478223869E+03  0.47000000000E+01 0.  1.
         13    1    6    6    0    0 -0.16917152414E+02 -0.29359941674E+02  0.21476854238E+02  0.40117969650E+02  0.00000000000E+00 0. -1.
        -14    1    6    6    0    0  0.38431535158E+01  0.45672100618E+02  0.47477065608E+01  0.46078751301E+02  0.00000000000E+00 0.  1.
</event>
<event>
12    1  0.1348628E-002  0.2783728E+03  0.7818608E-02  0.1096581E+00
          3   -1    0    0  502    0  0.00000000000E+00  0.00000000000E+00  0.36535589291E+03  0.36535589291E+03  0.00000000000E+00 0.  1.
         -3   -1    0    0    0  501 -0.00000000000E+00 -0.00000000000E+00 -0.21253449612E+03  0.21253449612E+03  0.00000000000E+00 0. -1.
          6    2    1    2  502    0 -0.18051597826E+03 -0.12563958090E+03  0.89451678502E+02  0.29223011842E+03  0.17036876660E+03 0.  0.
         24    2    3    3    0    0 -0.14670184573E+03 -0.73345828849E+02 -0.80465940575E+00  0.18247435049E+03  0.79969987875E+02 0.  0.
         -6    2    1    2    0  501  0.18051597826E+03  0.12563958090E+03  0.63369718291E+02  0.28566027060E+03  0.17092321759E+03 0.  0.
        -24    2    5    5    0    0  0.20465026360E+03  0.10849035340E+03  0.69541516428E+02  0.25505404861E+03  0.81022577308E+02 0.  0.
          5    1    3    3  502    0 -0.33814132530E+02 -0.52293752048E+02  0.90256337908E+02  0.10975576793E+03  0.47000000000E+01 0. -1.
        -13    1    4    4    0    0 -0.46423707980E+01 -0.33396603308E+02  0.79598751295E+01  0.34644542589E+02  0.00000000000E+00 0.  1.
         14    1    4    4    0    0 -0.14205947493E+03 -0.39949225541E+02 -0.87645345352E+01  0.14782980790E+03  0.00000000000E+00 0. -1.
         -5    1    5    5    0  501 -0.24134285338E+02  0.17149227498E+02 -0.61717981378E+01  0.30606221995E+02  0.47000000000E+01 0.  1.
         11    1    6    6    0    0  0.10529610341E+03  0.66264220350E+02 -0.39229824669E+01  0.12447331474E+03  0.00000000000E+00 0. -1.
        -12    1    6    6    0    0  0.99354160185E+02  0.42226133049E+02  0.73464498895E+02  0.13058073386E+03  0.00000000000E+00 0.  1.
</event>
<event>
12    1  0.1348628E-002  0.1775366E+03  0.7818608E-02  0.1170209E+00
         -2   -1    0    0    0  501 -0.00000000000E+00  0.00000000000E+00  0.46469392588E+02  0.46469392588E+02  0.00000000000E+00 0. -1.
          2   -1    0    0  502    0  0.00000000000E+00 -0.00000000000E+00 -0.74208582101E+03  0.74208582101E+03  0.00000000000E+00 0.  1.
          6    2    1    2  502    0  0.15319423156E+02  0.54394142127E+01 -0.45353496947E+03  0.48520161888E+03  0.17164606165E+03 0.  0.
         24    2    3    3    0    0  0.50333477308E+02  0.35772081550E+02 -0.40609064367E+03  0.41872524153E+03  0.81290320794E+02 0.  0.
         -6    2    1    2    0  501 -0.15319423156E+02 -0.54394142127E+01 -0.24208145895E+03  0.30335359472E+03  0.18208706354E+03 0.  0.
        -24    2    5    5    0    0  0.29176190771E+02  0.34011922570E+02 -0.22164918380E+03  0.24029936805E+03  0.81285697519E+02 0.  0.
          5    1    3    3  502    0 -0.35014054152E+02 -0.30332667337E+02 -0.47444325796E+02  0.66476377355E+02  0.47000000000E+01 0. -1.
        -13    1    4    4    0    0  0.29396998300E+01  0.51612056101E+02 -0.22538440045E+03  0.23123705183E+03  0.00000000000E+00 0.  1.
         14    1    4    4    0    0  0.47393777478E+02 -0.15839974551E+02 -0.18070624322E+03  0.18748818970E+03  0.00000000000E+00 0. -1.
         -5    1    5    5    0  501 -0.44495613927E+02 -0.39451336782E+02 -0.20432275151E+02  0.63054226666E+02  0.47000000000E+01 0.  1.
         13    1    6    6    0    0  0.33303158505E+02 -0.51268932083E+01 -0.17949028495E+03  0.18262570408E+03  0.00000000000E+00 0. -1.
        -14    1    6    6    0    0 -0.41269677343E+01  0.39138815778E+02 -0.42158898853E+02  0.57673663969E+02  0.00000000000E+00 0.  1.
</event>
<event>
12    1  0.1348628E-002  0.2422790E+03  0.7818608E-02  0.1118284E+00
         -2   -1    0    0    0  501 -0.00000000000E+00  0.00000000000E+00  0.93330350237E+02  0.93330350237E+02  0.00000000000E+00 0.  1.
          2   -1    0    0  502    0  0.00000000000E+00 -0.00000000000E+00 -0.62910733562E+03  0.62910733562E+03  0.00000000000E+00 0. -1.
          6    2    1    2  502    0  0.11963986513E+03  0.11750942378E+03 -0.26900477496E+03  0.36439551596E+03  0.17971744794E+03 0.  0.
         24    2    3    3    0    0  0.74965945542E+02  0.49934556258E+01 -0.65248309264E+02  0.12734195768E+03  0.79459453389E+02 0.  0.
         -6    2    1    2    0  501 -0.11963986513E+03 -0.11750942378E+03 -0.26677221042E+03  0.35804216990E+03  0.17001359111E+03 0.  0.
        -24    2    5    5    0    0 -0.12843010080E+03 -0.14390995916E+03 -0.24997597354E+03  0.32520225387E+03  0.77872661693E+02 0.  0.
          5    1    3    3  502    0  0.44673919593E+02  0.11251596816E+03 -0.20375646569E+03  0.23705355828E+03  0.47000000000E+01 0. -1.
        -11    1    4    4    0    0  0.24104112070E+02  0.10959282984E+00  0.17709800625E+02  0.29910821912E+02  0.00000000000E+00 0.  1.
         12    1    4    4    0    0  0.50861833472E+02  0.48838627959E+01 -0.82958109889E+02  0.97431135764E+02  0.00000000000E+00 0. -1.
         -5    1    5    5    0  501  0.87902356644E+01  0.26400535374E+02 -0.16796236880E+02  0.32839916023E+02  0.47000000000E+01 0.  1.
         11    1    6    6    0    0 -0.74045386414E+02 -0.13342171626E+03 -0.18594049161E+03  0.24053677481E+03  0.00000000000E+00 0. -1.
        -12    1    6    6    0    0 -0.54384714385E+02 -0.10488242903E+02 -0.64035481939E+02  0.84665479064E+02  0.00000000000E+00 0.  1.
</event>
<event>
12    1  0.1348628E-002  0.1787477E+03  0.7818608E-02  0.1169021E+00
          1   -1    0    0  502    0  0.00000000000E+00  0.00000000000E+00  0.13031072547E+04  0.13031072547E+04  0.00000000000E+00 0.  1.
         -1   -1    0    0    0  501 -0.00000000000E+00 -0.00000000000E+00 -0.25344403274E+02  0.25344403274E+02  0.00000000000E+00 0. -1.
          6    2    1    2  502    0 -0.29193788729E+02 -0.33834481429E+02  0.51898077767E+03  0.54889841258E+03  0.17306464199E+03 0.  0.
         24    2    3    3    0    0 -0.43971975561E+02 -0.12428876101E+02  0.51257758207E+03  0.52170124987E+03  0.85722837570E+02 0.  0.
         -6    2    1    2    0  501  0.29193788729E+02  0.33834481429E+02  0.75878207380E+03  0.77955324544E+03  0.17307795215E+03 0.  0.
        -24    2    5    5    0    0 -0.50762910467E+01  0.21302143147E+02  0.16923931740E+03  0.18886360654E+03  0.80919498826E+02 0.  0.
          5    1    3    3  502    0  0.14778186832E+02 -0.21405605327E+02  0.64031956015E+01  0.27197162708E+02  0.47000000000E+01 0. -1.
        -13    1    4    4    0    0 -0.10934181353E+02  0.32922155029E+02  0.29389366468E+03  0.29593396350E+03  0.00000000000E+00 0.  1.
         14    1    4    4    0    0 -0.33037794208E+02 -0.45351031131E+02  0.21868391739E+03  0.22576728638E+03  0.00000000000E+00 0. -1.
         -5    1    5    5    0  501  0.34270079776E+02  0.12532338282E+02  0.58954275640E+03  0.59068963890E+03  0.47000000000E+01 0.  1.
         13    1    6    6    0    0 -0.25489048822E+02  0.16733764737E+02  0.16464853119E+03  0.16744804960E+03  0.00000000000E+00 0. -1.
        -14    1    6    6    0    0  0.20412757775E+02  0.45683784102E+01  0.45907862104E+01  0.21415556946E+02  0.00000000000E+00 0.  1.
</event>
<event>
12    1  0.1348628E-002  0.3371107E+03  0.7818608E-02  0.1068033E+00
         -2   -1    0    0    0  501 -0.00000000000E+00  0.00000000000E+00  0.48398894372E+03  0.48398894372E+03  0.00000000000E+00 0.  1.
          2   -1    0    0  502    0  0.00000000000E+00 -0.00000000000E+00 -0.28469959426E+03  0.28469959426E+03  0.00000000000E+00 0. -1.
          6    2    1    2  502    0 -0.15607128476E+03  0.24352203082E+03 -0.61037861780E+02  0.34344752695E+03  0.17484094993E+03 0.  0.
         24    2    3    3    0    0 -0.18288130418E+03  0.19845092413E+03 -0.32453489954E+02  0.28353644189E+03  0.80692900340E+02 0.  0.
         -6    2    1    2    0  501  0.15607128476E+03 -0.24352203082E+03  0.26032721124E+03  0.42524101103E+03  0.17145971867E+03 0.  0.
        -24    2    5    5    0    0  0.29286658356E+02 -0.67173357731E+02  0.38900554907E+02  0.11503938284E+03  0.79692145699E+02 0.  0.
          5    1    3    3  502    0  0.26810019418E+02  0.45071106699E+02 -0.28584371826E+02  0.59911085059E+02  0.47000000000E+01 0. -1.
        -13    1    4    4    0    0 -0.64168196256E+02  0.20006325466E+02 -0.11473292635E+02  0.68186852936E+02  0.00000000000E+00 0.  1.
         14    1    4    4    0    0 -0.11871310792E+03  0.17844459866E+03 -0.20980197319E+02  0.21534958896E+03  0.00000000000E+00 0. -1.
         -5    1    5    5    0  501  0.12678462641E+03 -0.17634867309E+03  0.22142665634E+03  0.31020162819E+03  0.47000000000E+01 0.  1.
         11    1    6    6    0    0  0.49191037087E+02 -0.23076129549E+02  0.38612436531E+02  0.66657228712E+02  0.00000000000E+00 0. -1.
        -12    1    6    6    0    0 -0.19904378731E+02 -0.44097228183E+02  0.28811837530E+00  0.48382154130E+02  0.00000000000E+00 0.  1.
</event>
<event>
12    1  0.1348628E-002  0.1798365E+03  0.7818608E-02  0.1167961E+00
         -2   -1    0    0    0  501 -0.00000000000E+00  0.00000000000E+00  0.30332367819E+02  0.30332367819E+02  0.00000000000E+00 0. -1.
          2   -1    0    0  502    0  0.00000000000E+00 -0.00000000000E+00 -0.16155105044E+04  0.16155105044E+04  0.00000000000E+00 0.  1.
          6    2    1    2  502    0  0.19576870549E+01 -0.52530566318E+02 -0.30755751563E+03  0.35537356709E+03  0.17010424399E+03 0.  0.
         24    2    3    3    0    0  0.54755008114E+02 -0.24593753102E+02 -0.10952944962E+03  0.14847932461E+03  0.80289762085E+02 0.  0.
         -6    2    1    2    0  501 -0.19576870549E+01  0.52530566318E+02 -0.12776206209E+04  0.12904693051E+04  0.17387720805E+03 0.  0.
        -24    2    5    5    0    0 -0.68549207164E+02  0.28322476079E+02 -0.86680624207E+03  0.87356283352E+03  0.79106297799E+02 0.  0.
          5    1    3    3  502    0 -0.52797321059E+02 -0.27936813216E+02 -0.19802806601E+03  0.20689424248E+03  0.47000000000E+01 0. -1.
        -13    1    4    4    0    0  0.26975786172E+02  0.15556198507E+02 -0.91131170738E+02  0.96304613761E+02  0.00000000000E+00 0.  1.
         14    1    4    4    0    0  0.27779221941E+02 -0.40149951609E+02 -0.18398278886E+02  0.52174710846E+02  0.00000000000E+00 0. -1.
         -5    1    5    5    0  501  0.66591520109E+02  0.24208090240E+02 -0.41081437883E+03  0.41690647157E+03  0.47000000000E+01 0.  1.
         11    1    6    6    0    0  0.12855691005E+02 -0.11953986861E+02 -0.12998716327E+03  0.13116718038E+03  0.00000000000E+00 0. -1.
        -12    1    6    6    0    0 -0.81404898169E+02  0.40276462940E+02 -0.73681907880E+03  0.74239565314E+03  0.00000000000E+00 0.  1.
</event>
<event>
12    1  0.1348628E-002  0.2190096E+03  0.7818608E-02  0.1134624E+00
         -2   -1    0    0    0  501 -0.00000000000E+00  0.00000000000E+00  0.10276743401E+03  0.10276743401E+03  0.00000000000E+00 0. -1.
          2   -1    0    0  502    0  0.00000000000E+00 -0.00000000000E+00 -0.53636059097E+03  0.53636059097E+03  0.00000000000E+00 0.  1.
          6    2    1    2  502    0  0.11358915133E+03 -0.73235991053E+02 -0.33166574644E+03  0.39728081325E+03  0.17194147705E+03 0.  0.
         24    2    3    3    0    0  0.13969255322E+03 -0.34065296710E+02 -0.29405172940E+03  0.33684377855E+03  0.79516399046E+02 0.  0.
         -6    2    1    2    0  501 -0.11358915133E+03  0.73235991053E+02 -0.10192741051E+03  0.24184721173E+03  0.17272773698E+03 0.  0.
        -24    2    5    5    0    0 -0.70552123784E+02  0.67636873800E+02 -0.13671414937E+03  0.18602837034E+03  0.79771217024E+02 0.  0.
          5    1    3    3  502    0 -0.26103401894E+02 -0.39170694343E+02 -0.37614017045E+02  0.60437034706E+02  0.47000000000E+01 0. -1.
        -13    1    4    4    0    0  0.15406418488E+02 -0.20874210546E+02 -0.11873891208E+03  0.12154019763E+03  0.00000000000E+00 0.  1.
         14    1    4    4    0    0  0.12428613474E+03 -0.13191086164E+02 -0.17531281732E+03  0.21530358092E+03  0.00000000000E+00 0. -1.
         -5    1    5    5    0  501 -0.43037027547E+02  0.55991172529E+01  0.34786738856E+02  0.55818841391E+02  0.47000000000E+01 0.  1.
         13    1    6    6    0    0 -0.12486598288E+02  0.78109139575E+00  0.90734438799E+01  0.15454857632E+02  0.00000000000E+00 0. -1.
        -14    1    6    6    0    0 -0.58065525495E+02  0.66855782404E+02 -0.14578759325E+03  0.17057351271E+03  0.00000000000E+00 0.  1.
</event>
<event>
12    1  0.1348628E-002  0.1919511E+03  0.7818608E-02  0.1156713E+00
         -2   -1    0    0    0  501 -0.00000000000E+00  0.00000000000E+00  0.32701924693E+02  0.32701924693E+02  0.00000000000E+00 0.  1.
          2   -1    0    0  502    0  0.00000000000E+00 -0.00000000000E+00 -0.11298758167E+04  0.11298758167E+04  0.00000000000E+00 0. -1.
          6    2    1    2  502    0  0.40926877481E+02  0.68638418943E+02 -0.57276428293E+03  0.60341270197E+03  0.17222579147E+03 0.  0.
         24    2    3    3    0    0  0.57200226291E+02  0.83748685022E+02 -0.56497975175E+03  0.57941622415E+03  0.78964123404E+02 0.  0.
         -6    2    1    2    0  501 -0.40926877481E+02 -0.68638418943E+02 -0.52440960905E+03  0.55916503939E+03  0.17684417253E+03 0.  0.
        -24    2    5    5    0    0 -0.19567305221E+02 -0.10217490733E+02 -0.46757686512E+03  0.47477732131E+03  0.79360591517E+02 0.  0.
          5    1    3    3  502    0 -0.16273348810E+02 -0.15110266079E+02 -0.77845311796E+01  0.23996477828E+02  0.47000000000E+01 0. -1.
        -11    1    4    4    0    0  0.68571559903E+02  0.41271762538E+02 -0.28579779917E+03  0.29679251881E+03  0.00000000000E+00 0.  1.
         12    1    4    4    0    0 -0.11371333612E+02  0.42476922485E+02 -0.27918195258E+03  0.28262370534E+03  0.00000000000E+00 0. -1.
         -5    1    5    5    0  501 -0.21359572260E+02 -0.58420928210E+02 -0.56832743925E+02  0.84387718076E+02  0.47000000000E+01 0.  1.
         13    1    6    6    0    0 -0.22989181819E+02 -0.34108258435E+02 -0.13030058693E+03  0.13663864288E+03  0.00000000000E+00 0. -1.
        -14    1    6    6    0    0  0.34218765977E+01  0.23890767701E+02 -0.33727627819E+03  0.33813867843E+03  0.00000000000E+00 0.  1.
</event>
<event>
12    1  0.1348628E-002  0.2092029E+03  0.7818608E-02  0.1142199E+00
         -2   -1    0    0    0  501 -0.00000000000E+00  0.00000000000E+00  0.13029928423E+03  0.13029928423E+03  0.00000000000E+00 0. -1.
          2   -1    0    0  502    0  0.00000000000E+00 -0.00000000000E+00 -0.38832680166E+03  0.38832680166E+03  0.00000000000E+00 0.  1.
          6    2    1    2  502    0 -0.11808658667E+03 -0.12620316342E+02 -0.22478152252E+03  0.30768912550E+03  0.17332671677E+03 0.  0.
         24    2    3    3    0    0 -0.32533253626E+01 -0.42619943816E+02 -0.77312177716E+02  0.11833244299E+03  0.78729603740E+02 0.  0.
         -6    2    1    2    0  501  0.11808658667E+03  0.12620316342E+02 -0.33245994902E+02  0.21093696039E+03  0.17112974828E+03 0.  0.
        -24    2    5    5    0    0  0.96579897897E+02  0.26880500014E+02  0.40981618394E+02  0.13221136687E+03  0.75829509586E+02 0.  0.
          5    1    3    3  502    0 -0.11483326130E+03  0.29999627474E+02 -0.14746934481E+03  0.18935668250E+03  0.47000000000E+01 0. -1.
        -11    1    4    4    0    0 -0.20722550974E+02  0.17215842797E+02 -0.18919155023E+02  0.32920264107E+02  0.00000000000E+00 0.  1.
         12    1    4    4    0    0  0.17469225612E+02 -0.59835786613E+02 -0.58393022692E+02  0.85412178887E+02  0.00000000000E+00 0. -1.
         -5    1    5    5    0  501  0.21506688771E+02 -0.14260183673E+02 -0.74227613297E+02  0.78725593526E+02  0.47000000000E+01 0.  1.
         13    1    6    6    0    0  0.39436549508E+02  0.27904831606E+02 -0.16598478916E+02  0.51082585745E+02  0.00000000000E+00 0. -1.
        -14    1    6    6    0    0  0.57143348389E+02 -0.10243315918E+01  0.57580097310E+02  0.81128781123E+02  0.00000000000E+00 0.  1.
</event>
<event>
12    1  0.1348628E-002  0.2093981E+03  0.7818608E-02  0.1142043E+00
          2   -1    0    0  502    0  0.00000000000E+00  0.00000000000E+00  0.37315373302E+04  0.37315373302E+04  0.00000000000E+00 0. -1.
         -2   -1    0    0    0  501 -0.00000000000E+00 -0.00000000000E+00 -0.13457148158E+02  0.13457148158E+02  0.00000000000E+00 0.  1.
          6    2    1    2  502    0  0.10462812650E+03  0.56387151663E+02  0.25340340134E+04  0.25427589643E+04  0.17368999290E+03 0.  0.
         24    2    3    3    0    0  0.10814807208E+03  0.65270313818E+02  0.12733339144E+04  0.12820138948E+04  0.78893279515E+02 0.  0.
         -6    2    1    2    0  501 -0.10462812650E+03 -0.56387151663E+02  0.11840461686E+04  0.12022355140E+04  0.17110916429E+03 0.  0.
        -24    2    5    5    0    0 -0.88537262028E+02  0.11567621130E+02  0.96137275535E+03  0.96882106283E+03  0.80025123689E+02 0.  0.
          5    1    3    3  502    0 -0.35199455796E+01 -0.88831621547E+01  0.12607000990E+04  0.12607450695E+04  0.47000000000E+01 0. -1.
        -11    1    4    4    0    0  0.29573764010E+02 -0.17791591015E+02  0.31329789057E+03  0.31519314152E+03  0.00000000000E+00 0.  1.
         12    1    4    4    0    0  0.78574308069E+02  0.83061904833E+02  0.96003602385E+03  0.96682075330E+03  0.00000000000E+00 0. -1.
         -5    1    5    5    0  501 -0.16090864472E+02 -0.67954772793E+02  0.22267341326E+03  0.23341445122E+03  0.47000000000E+01 0.  1.
         13    1    6    6    0    0 -0.66721075677E+01  0.22510180333E+02  0.46753872571E+03  0.46812785143E+03  0.00000000000E+00 0. -1.
        -14    1    6    6    0    0 -0.81865154460E+02 -0.10942559203E+02  0.49383402964E+03  0.50069321140E+03  0.00000000000E+00 0.  1.
</event>
<event>
12    1  0.1348628E-002  0.3942765E+03  0.7818608E-02  0.1045780E+00
          2   -1    0    0  502    0  0.00000000000E+00  0.00000000000E+00  0.72876450481E+03  0.72876450481E+03  0.00000000000E+00 0. -1.
         -2   -1    0    0    0  501 -0.00000000000E+00 -0.00000000000E+00 -0.27082485234E+03  0.27082485234E+03  0.00000000000E+00 0.  1.
          6    2    1    2  502    0 -0.33612094968E+03  0.11458766158E+03  0.45922383892E+03  0.60516719543E+03  0.17097711891E+03 0.  0.
         24    2    3    3    0    0 -0.14146573238E+03  0.30547648675E+02  0.28793453329E+03  0.33255851322E+03  0.82116727753E+02 0.  0.
         -6    2    1    2    0  501  0.33612094968E+03 -0.11458766158E+03 -0.12841864539E+01  0.39442216172E+03  0.17163789652E+03 0.  0.
        -24    2    5    5    0    0  0.24375549395E+03 -0.11937678387E+03  0.51234827373E+02  0.28795784884E+03  0.81407357253E+02 0.  0.
          5    1    3    3  502    0 -0.19465521730E+03  0.84040012910E+02  0.17128930563E+03  0.27260868221E+03  0.47000000000E+01 0. -1.
        -13    1    4    4    0    0 -0.87900356793E+02 -0.22381475974E+02  0.14592636082E+03  0.17181939930E+03  0.00000000000E+00 0.  1.
         14    1    4    4    0    0 -0.53565375585E+02  0.52929124649E+02  0.14200817246E+03  0.16073911392E+03  0.00000000000E+00 0. -1.
         -5    1    5    5    0  501  0.92365455729E+02  0.47891222802E+01 -0.52519013827E+02  0.10646431288E+03  0.47000000000E+01 0.  1.
         13    1    6    6    0    0  0.54416885138E+02 -0.64703086749E+02  0.30148052264E+02  0.89758519809E+02  0.00000000000E+00 0. -1.
        -14    1    6    6    0    0  0.18933860881E+03 -0.54673697116E+02  0.21086775109E+02  0.19819932903E+03  0.00000000000E+00 0.  1.
</event>
<event>
12    1  0.1348628E-002  0.2370759E+03  0.7818608E-02  0.1121756E+00
         -2   -1    0    0    0  501 -0.00000000000E+00  0.00000000000E+00  0.20572190241E+02  0.20572190241E+02  0.00000000000E+00 0. -1.
          2   -1    0    0  502    0  0.00000000000E+00 -0.00000000000E+00 -0.29725188407E+04  0.29725188407E+04  0.00000000000E+00 0.  1.
          6    2    1    2  502    0 -0.98272084776E+02 -0.12903429390E+03 -0.10465734648E+04  0.10729432468E+04  0.17199983160E+03 0.  0.
         24    2    3    3    0    0  0.95916985235E+01 -0.84694991291E+02 -0.62532448504E+03  0.63582385531E+03  0.77304729231E+02 0.  0.
         -6    2    1    2    0  501  0.98272084776E+02  0.12903429390E+03 -0.19053731857E+04  0.19201477841E+04  0.17381968961E+03 0.  0.
        -24    2    5    5    0    0  0.18381869548E+02 -0.56807697050E+01 -0.60492002132E+03  0.61028858651E+03  0.78445919997E+02 0.  0.
          5    1    3    3  502    0 -0.10786378330E+03 -0.44339302613E+02 -0.42124897973E+03  0.43711939151E+03  0.47000000000E+01 0. -1.
        -11    1    4    4    0    0 -0.21152443300E+02 -0.32926149260E+02 -0.10551199313E+03  0.11253594029E+03  0.00000000000E+00 0.  1.
         12    1    4    4    0    0  0.30744141824E+02 -0.51768842031E+02 -0.51981249190E+03  0.52328791501E+03  0.00000000000E+00 0. -1.
         -5    1    5    5    0  501  0.79890215228E+02  0.13471506361E+03 -0.13004531644E+04  0.13098591976E+04  0.47000000000E+01 0.  1.
         13    1    6    6    0    0  0.48209897914E+02  0.30408853881E+01 -0.31083394220E+03  0.31456506618E+03  0.00000000000E+00 0. -1.
        -14    1    6    6    0    0 -0.29828028366E+02 -0.87216550931E+01 -0.29408607912E+03  0.29572352033E+03  0.00000000000E+00 0.  1.
</event>
<event>
12    1  0.1348628E-002  0.1912507E+03  0.7818608E-02  0.1157338E+00
          1   -1    0    0  502    0  0.00000000000E+00  0.00000000000E+00  0.19981538527E+03  0.19981538527E+03  0.00000000000E+00 0. -1.
         -1   -1    0    0    0  501 -0.00000000000E+00 -0.00000000000E+00 -0.19126722256E+03  0.19126722256E+03  0.00000000000E+00 0.  1.
          6    2    1    2  502    0 -0.21168682125E+02  0.94809045718E+02 -0.35723888485E+02  0.20014405847E+03  0.17130259682E+03 0.  0.
         24    2    3    3    0    0  0.38231744449E+02  0.84904351104E+02  0.13802205743E+02  0.12203235856E+03  0.77659387924E+02 0.  0.
         -6    2    1    2    0  501  0.21168682125E+02 -0.94809045718E+02  0.44272051203E+02  0.19093854936E+03  0.15830554906E+03 0.  0.
        -24    2    5    5    0    0  0.48757753856E+02 -0.46311674454E+02  0.73113999863E+02  0.12795363132E+03  0.80649767761E+02 0.  0.
          5    1    3    3  502    0 -0.59400426574E+02  0.99046946139E+01 -0.49526094227E+02  0.78111699905E+02  0.47000000000E+01 0. -1.
        -11    1    4    4    0    0 -0.25466993164E+01  0.34504091785E+02 -0.28327145061E+02  0.44715155984E+02  0.00000000000E+00 0.  1.
         12    1    4    4    0    0  0.40778443765E+02  0.50400259319E+02  0.42129350804E+02  0.77317202578E+02  0.00000000000E+00 0. -1.
         -5    1    5    5    0  501 -0.27589071731E+02 -0.48497371263E+02 -0.28841948660E+02  0.62984918044E+02  0.47000000000E+01 0.  1.
         11    1    6    6    0    0 -0.17056865052E+02 -0.21195087369E+02  0.43996519965E+02  0.51728736143E+02  0.00000000000E+00 0. -1.
        -12    1    6    6    0    0  0.65814618909E+02 -0.25116587086E+02  0.29117479898E+02  0.76224895176E+02  0.00000000000E+00 0.  1.
</event>
<event>
12    1  0.1348628E-002  0.2837545E+03  0.7818608E-02  0.1093656E+00
         -1   -1    0    0    0  501 -0.00000000000E+00  0.00000000000E+00  0.24719529610E+03  0.24719529610E+03  0.00000000000E+00 0.  1.
          1   -1    0    0  502    0  0.00000000000E+00 -0.00000000000E+00 -0.32681327344E+03  0.32681327344E+03  0.00000000000E+00 0. -1.
          6    2    1    2  502    0 -0.19958564570E+03 -0.11301984340E+03 -0.23070371488E+02  0.28182065709E+03  0.16211947987E+03 0.  0.
         24    2    3    3    0    0 -0.56840833749E+02 -0.11267188530E+02  0.21898282274E+02  0.10078487628E+03  0.79499852846E+02 0.  0.
         -6    2    1    2    0  501  0.19958564570E+03  0.11301984340E+03 -0.56547605844E+02  0.29218791245E+03  0.17195414936E+03 0.  0.
        -24    2    5    5    0    0  0.37568441874E+02  0.77536565103E+02 -0.37938335296E+02  0.12522374766E+03  0.82573379119E+02 0.  0.
          5    1    3    3  502    0 -0.14274481195E+03 -0.10175265487E+03 -0.44968653762E+02  0.18103578081E+03  0.47000000000E+01 0. -1.
        -13    1    4    4    0    0  0.13389550312E+02  0.75927516710E+01  0.23448978353E+02  0.28049679522E+02  0.00000000000E+00 0.  1.
         14    1    4    4    0    0 -0.70230384061E+02 -0.18859940201E+02 -0.15506960792E+01  0.72735196762E+02  0.00000000000E+00 0. -1.
         -5    1    5    5    0  501  0.16201720382E+03  0.35483278296E+02 -0.18609270548E+02  0.16696416479E+03  0.47000000000E+01 0.  1.
         13    1    6    6    0    0  0.15923625589E+02  0.63881857570E+02 -0.61752807328E+02  0.90265512746E+02  0.00000000000E+00 0. -1.
        -14    1    6    6    0    0  0.21644816285E+02  0.13654707534E+02  0.23814472032E+02  0.34958234910E+02  0.00000000000E+00 0.  1.
</event>
<event>
12    1  0.1348628E-002  0.1775407E+03  0.7818608E-02  0.1170205E+00
         -2   -1    0    0    0  501 -0.00000000000E+00  0.00000000000E+00  0.25673833093E+02  0.25673833093E+02  0.00000000000E+00 0. -1.
          2   -1    0    0  502    0  0.00000000000E+00 -0.00000000000E+00 -0.12289953427E+04  0.12289953427E+04  0.00000000000E+00 0.  1.
          6    2    1    2  502    0 -0.44815472960E+02 -0.87979142958E+01 -0.62051289525E+03  0.64531588503E+03  0.17120312028E+03 0.  0.
         24    2    3    3    0    0 -0.27191926340E+02 -0.72338983292E+02 -0.38320488119E+03  0.39897214068E+03  0.79752484037E+02 0.  0.
         -6    2    1    2    0  501  0.44815472960E+02  0.87979142958E+01 -0.58280861438E+03  0.60935329078E+03  0.17192941016E+03 0.  0.
        -24    2    5    5    0    0  0.76921736221E+02 -0.38951854111E+02 -0.33503923760E+03  0.35494690998E+03  0.79383989126E+02 0.  0.
          5    1    3    3  502    0 -0.17623546620E+02  0.63541068996E+02 -0.23730801406E+03  0.24634374435E+03  0.47000000000E+01 0. -1.
        -11    1    4    4    0    0  0.12355487450E+02 -0.20093195943E+02 -0.24376560069E+03  0.24490419080E+03  0.00000000000E+00 0.  1.
         12    1    4    4    0    0 -0.39547413790E+02 -0.52245787349E+02 -0.13943928050E+03  0.15406794988E+03  0.00000000000E+00 0. -1.
         -5    1    5    5    0  501 -0.32106263260E+02  0.47749768407E+02 -0.24776937678E+03  0.25440638080E+03  0.47000000000E+01 0.  1.
         11    1    6    6    0    0  0.89649312627E+02 -0.18903724724E+02 -0.28850603986E+03  0.30270461691E+03  0.00000000000E+00 0. -1.
        -12    1    6    6    0    0 -0.12727576406E+02 -0.20048129387E+02 -0.46533197739E+02  0.52242293067E+02  0.00000000000E+00 0.  1.
</event>
<event>
12    1  0.1348628E-002  0.1822830E+03  0.7818608E-02  0.1165612E+00
          1   -1    0    0  502    0  0.00000000000E+00  0.00000000000E+00  0.52138039984E+02  0.52138039984E+02  0.00000000000E+00 0. -1.
         -1   -1    0    0    0  501 -0.00000000000E+00 -0.00000000000E+00 -0.66258334582E+03  0.66258334582E+03  0.00000000000E+00 0.  1.
          6    2    1    2  502    0  0.12628314100E+02 -0.60302138782E+02 -0.37540125301E+03  0.41741427578E+03  0.17179276646E+03 0.  0.
         24    2    3    3    0    0  0.68203381769E+02 -0.50169249929E+02 -0.18658094100E+03  0.22026848250E+03  0.80852346369E+02 0.  0.
         -6    2    1    2    0  501 -0.12628314100E+02  0.60302138782E+02 -0.23504405283E+03  0.29730711003E+03  0.17131838384E+03 0.  0.
        -24    2    5    5    0    0  0.41995621934E+02  0.47761933342E+02 -0.21622111525E+03  0.23799923433E+03  0.76467184628E+02 0.  0.
          5    1    3    3  502    0 -0.55575067670E+02 -0.10132888853E+02 -0.18882031201E+03  0.19714579328E+03  0.47000000000E+01 0. -1.
        -13    1    4    4    0    0  0.53520138193E+01 -0.71434197040E+00 -0.10804333666E+03  0.10817817217E+03  0.00000000000E+00 0.  1.
         14    1    4    4    0    0  0.62851367950E+02 -0.49454907959E+02 -0.78537604339E+02  0.11209031033E+03  0.00000000000E+00 0. -1.
         -5    1    5    5    0  501 -0.54623936034E+02  0.12540205440E+02 -0.18822937583E+02  0.59307875696E+02  0.47000000000E+01 0.  1.
         11    1    6    6    0    0  0.41466659648E+02  0.26089872771E+02 -0.48690783626E+02  0.69072119800E+02  0.00000000000E+00 0. -1.
        -12    1    6    6    0    0  0.52896228647E+00  0.21672060571E+02 -0.16753033162E+03  0.16892711453E+03  0.00000000000E+00 0.  1.
</event>
<event>
12    1  0.1348628E-002  0.1809263E+03  0.7818608E-02  0.1166910E+00
          1   -1    0    0  502    0  0.00000000000E+00  0.00000000000E+00  0.21736928965E+03  0.21736928965E+03  0.00000000000E+00 0. -1.
         -1   -1    0    0    0  501 -0.00000000000E+00 -0.00000000000E+00 -0.33824929006E+03  0.33824929006E+03  0.00000000000E+00 0.  1.
          6    2    1    2  502    0  0.44062737106E+02  0.34998890995E+02 -0.26754311248E+03  0.32368002406E+03  0.17327144533E+03 0.  0.
         24    2    3    3    0    0 -0.40469725914E+02  0.16311245167E+02 -0.13412998749E+03  0.16456963053E+03  0.84784752831E+02 0.  0.
         -6    2    1    2    0  501 -0.44062737106E+02 -0.34998890995E+02  0.14666311208E+03  0.23193855564E+03  0.17064283747E+03 0.  0.
        -24    2    5    5    0    0 -0.69736952058E+01 -0.64112646033E+02  0.15251284841E+03  0.18419426618E+03  0.80674004224E+02 0.  0.
          5    1    3    3  502    0  0.84532463019E+02  0.18687645829E+02 -0.13341312499E+03  0.15911039353E+03  0.47000000000E+01 0. -1.
        -11    1    4    4    0    0 -0.32487807541E+02  0.33570099996E+02 -0.13753451066E+03  0.14525202537E+03  0.00000000000E+00 0.  1.
         12    1    4    4    0    0 -0.79819183731E+01 -0.17258854829E+02  0.34045231662E+01  0.19317605155E+02  0.00000000000E+00 0. -1.
         -5    1    5    5    0  501 -0.37089041900E+02  0.29113755037E+02 -0.58497363317E+01  0.47744289466E+02  0.47000000000E+01 0.  1.
         13    1    6    6    0    0 -0.47664513019E+01  0.17142252382E+02  0.51804231685E+02  0.54774577088E+02  0.00000000000E+00 0. -1.
        -14    1    6    6    0    0 -0.22072439039E+01 -0.81254898415E+02  0.10070861672E+03  0.12941968909E+03  0.00000000000E+00 0.  1.
</event>
<event>
12    1  0.1348628E-002  0.1737414E+03  0.7818608E-02  0.1174001E+00
          1   -1    0    0  502    0  0.00000000000E+00  0.00000000000E+00  0.21811345067E+02  0.21811345067E+02  0.00000000000E+00 0.  1.
         -1   -1    0    0    0  501 -0.00000000000E+00 -0.00000000000E+00 -0.14632423910E+04  0.14632423910E+04  0.00000000000E+00 0. -1.
          6    2    1    2  502    0  0.87992900584E+01 -0.32682960756E+02 -0.55090993136E+03  0.57788816924E+03  0.17119398427E+03 0.  0.
         24    2    3    3    0    0 -0.44095924856E+02 -0.18186219198E+02 -0.15435082041E+03  0.17752673535E+03  0.73596038227E+02 0.  0.
         -6    2    1    2    0  501 -0.87992900584E+01  0.32682960756E+02 -0.89052111458E+03  0.90716556684E+03  0.16963462708E+03 0.  0.
        -24    2    5    5    0    0 -0.13136579317E+02  0.73363401688E+02 -0.50179298504E+03  0.51626230636E+03  0.95790452077E+02 0.  0.
          5    1    3    3  502    0  0.52895214914E+02 -0.14496741558E+02 -0.39655911094E+03  0.40036143389E+03  0.47000000000E+01 0. -1.
        -13    1    4    4    0    0  0.10129665216E+02 -0.29796336165E+01  0.25180563274E+01  0.10854904032E+02  0.00000000000E+00 0.  1.
         14    1    4    4    0    0 -0.54225590071E+02 -0.15206585582E+02 -0.15686887674E+03  0.16667183131E+03  0.00000000000E+00 0. -1.
         -5    1    5    5    0  501  0.43372892583E+01 -0.40680440932E+02 -0.38872812954E+03  0.39090326048E+03  0.47000000000E+01 0.  1.
         11    1    6    6    0    0  0.10910468058E+02 -0.19770812255E+02 -0.14424461547E+03  0.14600148089E+03  0.00000000000E+00 0. -1.
        -12    1    6    6    0    0 -0.24047047374E+02  0.93134213943E+02 -0.35754836957E+03  0.37026082547E+03  0.00000000000E+00 0.  1.
</event>
<event>
12    1  0.1348628E-002  0.2346313E+03  0.7818608E-02  0.1123422E+00
          2   -1    0    0  502    0  0.00000000000E+00  0.00000000000E+00  0.15284167846E+04  0.15284167846E+04  0.00000000000E+00 0.  1.
         -2   -1    0    0    0  501 -0.00000000000E+00 -0.00000000000E+00 -0.36364134081E+02  0.36364134081E+02  0.00000000000E+00 0. -1.
          6    2    1    2  502    0  0.28427069736E+02  0.15639513305E+03  0.82112678453E+03  0.85389311330E+03  0.17209508053E+03 0.  0.
         24    2    3    3    0    0 -0.49286503824E+02  0.88636816517E+02  0.45601382045E+03  0.47447229744E+03  0.83004288401E+02 0.  0.
         -6    2    1    2    0  501 -0.28427069736E+02 -0.15639513305E+03  0.67092586598E+03  0.71088780536E+03  0.17306766954E+03 0.  0.
        -24    2    5    5    0    0  0.18775381161E+02 -0.23752273337E+02  0.34192263106E+03  0.35299477918E+03  0.82325834776E+02 0.  0.
          5    1    3    3  502    0  0.77713573559E+02  0.67758316535E+02  0.36511296407E+03  0.37942081586E+03  0.47000000000E+01 0. -1.
        -13    1    4    4    0    0  0.98708563893E+01  0.67401329543E+02  0.22882218238E+03  0.23874665271E+03  0.00000000000E+00 0.  1.
         14    1    4    4    0    0 -0.59157360213E+02  0.21235486974E+02  0.22719163807E+03  0.23572564473E+03  0.00000000000E+00 0. -1.
         -5    1    5    5    0  501 -0.47202450896E+02 -0.13264285971E+03  0.32900323492E+03  0.35789302618E+03  0.47000000000E+01 0.  1.
         11    1    6    6    0    0  0.74025493412E+01 -0.87299557373E+00 -0.23190155924E+01  0.78062597535E+01  0.00000000000E+00 0. -1.
        -12    1    6    6    0    0  0.11372831820E+02 -0.22879277763E+02  0.34424164665E+03  0.34518851943E+03  0.00000000000E+00 0.  1.
</event>
<event>
12    1  0.1348628E-002  0.1831826E+03  0.7818608E-02  0.1164758E+00
         -2   -1    0    0    0  501 -0.00000000000E+00  0.00000000000E+00  0.23476465019E+02  0.23476465019E+02  0.00000000000E+00 0. -1.
          2   -1    0    0  502    0  0.00000000000E+00 -0.00000000000E+00 -0.27528332082E+04  0.27528332082E+04  0.00000000000E+00 0.  1.
          6    2    1    2  502    0 -0.60734519525E+02  0.27098610770E+02 -0.23273321071E+04  0.23345328273E+04  0.17072131781E+03 0.  0.
         24    2    3    3    0    0 -0.12760290077E+02 -0.11185653431E+01 -0.70592020214E+03  0.71215913690E+03  0.93183841310E+02 0.  0.
         -6    2    1    2    0  501  0.60734519525E+02 -0.27098610770E+02 -0.40202463608E+03  0.44177684593E+03  0.17064570613E+03 0.  0.
        -24    2    5    5    0    0  0.49283770331E+02 -0.82916517693E+02 -0.27545726871E+03  0.30289507293E+03  0.81022709135E+02 0.  0.
          5    1    3    3  502    0 -0.47974229449E+02  0.28217176113E+02 -0.16214119049E+04  0.16223736904E+04  0.47000000000E+01 0. -1.
        -11    1    4    4    0    0  0.27930187364E+02  0.29565418556E+02 -0.23548436147E+03  0.23897090584E+03  0.00000000000E+00 0.  1.
         12    1    4    4    0    0 -0.40690477441E+02 -0.30683983899E+02 -0.47043584067E+03  0.47318823106E+03  0.00000000000E+00 0. -1.
         -5    1    5    5    0  501  0.11450749194E+02  0.55817906922E+02 -0.12656736736E+03  0.13888177300E+03  0.47000000000E+01 0.  1.
         13    1    6    6    0    0  0.48511295619E+02 -0.12080302428E+02 -0.73643768268E+02  0.89009460812E+02  0.00000000000E+00 0. -1.
        -14    1    6    6    0    0  0.77247471292E+00 -0.70836215265E+02 -0.20181350045E+03  0.21388561212E+03  0.00000000000E+00 0.  1.
</event>
<event>
12    1  0.1348628E-002  0.1938864E+03  0.7818608E-02  0.1155002E+00
         -2   -1    0    0    0  501 -0.00000000000E+00  0.00000000000E+00  0.11423873236E+02  0.11423873236E+02  0.00000000000E+00 0.  1.
          2   -1    0    0  502    0  0.00000000000E+00 -0.00000000000E+00 -0.34389524138E+04  0.34389524138E+04  0.00000000000E+00 0. -1.
          6    2    1    2  502    0  0.32550169418E+01 -0.92609578474E+02 -0.20702438838E+04  0.20792835911E+04  0.17006876480E+03 0.  0.
         24    2    3    3    0    0 -0.12021094164E+02  0.55099058012E+01 -0.58129249560E+03  0.58701715407E+03  0.80705067727E+02 0.  0.
         -6    2    1    2    0  501 -0.32550169418E+01  0.92609578474E+02 -0.13572846567E+04  0.13710926959E+04  0.17054738967E+03 0.  0.
        -24    2    5    5    0    0 -0.61710807390E+02  0.38452234873E+02 -0.60874522938E+03  0.61830888786E+03  0.80301484450E+02 0.  0.
          5    1    3    3  502    0  0.15276111106E+02 -0.98119484276E+02 -0.14889513882E+04  0.14922664371E+04  0.47000000000E+01 0. -1.
        -13    1    4    4    0    0  0.22855110694E+02  0.28789051229E+02 -0.35273016314E+03  0.35464028754E+03  0.00000000000E+00 0.  1.
         14    1    4    4    0    0 -0.34876204858E+02 -0.23279145427E+02 -0.22856233246E+03  0.23237686653E+03  0.00000000000E+00 0. -1.
         -5    1    5    5    0  501  0.58455790448E+02  0.54157343601E+02 -0.74853942734E+03  0.75278380800E+03  0.47000000000E+01 0.  1.
         11    1    6    6    0    0 -0.43902626902E+02  0.19032397130E+02 -0.56651907915E+03  0.56853631355E+03  0.00000000000E+00 0. -1.
        -12    1    6    6    0    0 -0.17808180488E+02  0.19419837743E+02 -0.42226150231E+02  0.49772574311E+02  0.00000000000E+00 0.  1.
</event>
<event>
12    1  0.1348628E-002  0.2251811E+03  0.7818608E-02  0.1130078E+00
         -1   -1    0    0    0  501 -0.00000000000E+00  0.00000000000E+00  0.35223580310E+02  0.35223580310E+02  0.00000000000E+00 0.  1.
          1   -1    0    0  502    0  0.00000000000E+00 -0.00000000000E+00 -0.14416688856E+04  0.14416688856E+04  0.00000000000E+00 0. -1.
          6    2    1    2  502    0 -0.12795310030E+03 -0.68862018680E+02 -0.73188740703E+03  0.76578653284E+03  0.17220877975E+03 0.  0.
         24    2    3    3    0    0 -0.55356247144E+01 -0.16034576010E+01 -0.18139011598E+03  0.19782605022E+03  0.78737270421E+02 0.  0.
         -6    2    1    2    0  501  0.12795310030E+03  0.68862018680E+02 -0.67455789824E+03  0.71110593304E+03  0.17184096265E+03 0.  0.
        -24    2    5    5    0    0  0.13413919488E+03  0.57365434420E+02 -0.67715113660E+03  0.69699019356E+03  0.77314626399E+02 0.  0.
          5    1    3    3  502    0 -0.12241747558E+03 -0.67258561079E+02 -0.55049729105E+03  0.56796048262E+03  0.47000000000E+01 0. -1.
        -11    1    4    4    0    0 -0.24425083513E+02  0.32082783623E+02 -0.91573188501E+02  0.10005767618E+03  0.00000000000E+00 0.  1.
         12    1    4    4    0    0  0.18889458798E+02 -0.33686241224E+02 -0.89816927478E+02  0.97768374044E+02  0.00000000000E+00 0. -1.
         -5    1    5    5    0  501 -0.61860945873E+01  0.11496584260E+02  0.25932383620E+01  0.14115739481E+02  0.47000000000E+01 0.  1.
         11    1    6    6    0    0  0.18702966548E+02 -0.66010794161E+01 -0.22773637575E+03  0.22859840780E+03  0.00000000000E+00 0. -1.
        -12    1    6    6    0    0  0.11543622834E+03  0.63966513836E+02 -0.44941476085E+03  0.46839178577E+03  0.00000000000E+00 0.  1.
</event>
<event>
12    1  0.1348628E-002  0.2472806E+03  0.7818608E-02  0.1115036E+00
          2   -1    0    0  502    0  0.00000000000E+00  0.00000000000E+00  0.10925702372E+04  0.10925702372E+04  0.00000000000E+00 0.  1.
         -2   -1    0    0    0  501 -0.00000000000E+00 -0.00000000000E+00 -0.56882123994E+02  0.56882123994E+02  0.00000000000E+00 0. -1.
          6    2    1    2  502    0 -0.12348800261E+03  0.12920221351E+03  0.58976388782E+03  0.63932400941E+03  0.17020942063E+03 0.  0.
         24    2    3    3    0    0 -0.56191256543E+02  0.15979117281E+02  0.37132266125E+03  0.38420250696E+03  0.79487471298E+02 0.  0.
         -6    2    1    2    0  501  0.12348800261E+03 -0.12920221351E+03  0.44592422537E+03  0.51012835176E+03  0.17158094806E+03 0.  0.
        -24    2    5    5    0    0  0.87286396684E+01 -0.16168711046E+02  0.15061549047E+03  0.17371250349E+03  0.84577724797E+02 0.  0.
          5    1    3    3  502    0 -0.67296746070E+02  0.11322309622E+03  0.21844122657E+03  0.25512150246E+03  0.47000000000E+01 0. -1.
        -13    1    4    4    0    0  0.11849533168E+02  0.20099588129E+02  0.17134674487E+03  0.17292805399E+03  0.00000000000E+00 0.  1.
         14    1    4    4    0    0 -0.68040789711E+02 -0.41204708479E+01  0.19997591638E+03  0.21127445297E+03  0.00000000000E+00 0. -1.
         -5    1    5    5    0  501  0.11475936294E+03 -0.11303350246E+03  0.29530873489E+03  0.33641584827E+03  0.47000000000E+01 0.  1.
         11    1    6    6    0    0 -0.33804869088E+00 -0.13930408572E+02 -0.71561952417E+01  0.15664663745E+02  0.00000000000E+00 0. -1.
        -12    1    6    6    0    0  0.90666883593E+01 -0.22383024746E+01  0.15777168571E+03  0.15804783975E+03  0.00000000000E+00 0.  1.
</event>
<event>
12    1  0.1348628E-002  0.1722596E+03  0.7818608E-02  0.1175512E+00
          3   -1    0    0  502    0  0.00000000000E+00  0.00000000000E+00  0.34240173299E+03  0.34240173299E+03  0.00000000000E+00 0. -1.
         -3   -1    0    0    0  501 -0.00000000000E+00 -0.00000000000E+00 -0.11015620661E+03  0.11015620661E+03  0.00000000000E+00 0.  1.
          6    2    1    2  502    0 -0.84407354931E+01 -0.16724087139E+02  0.22121653679E+03  0.28107845203E+03  0.17238735145E+03 0.  0.
         24    2    3    3    0    0  0.92738398183E+01 -0.57843738595E+02  0.21310719901E+03  0.23533478281E+03  0.80844786667E+02 0.  0.
         -6    2    1    2    0  501  0.84407354931E+01  0.16724087139E+02  0.11028989593E+02  0.17147948758E+03  0.17009595804E+03 0.  0.
        -24    2    5    5    0    0  0.33346163852E+02  0.49206299633E+02  0.51473917360E+02  0.11374512457E+03  0.82189796367E+02 0.  0.
          5    1    3    3  502    0 -0.17714575311E+02  0.41119651456E+02  0.81093377821E+01  0.45743669219E+02  0.47000000000E+01 0. -1.
        -11    1    4    4    0    0 -0.31406258065E+02 -0.48925468461E+02  0.12031676210E+03  0.13362700982E+03  0.00000000000E+00 0.  1.
         12    1    4    4    0    0  0.40680097883E+02 -0.89182701345E+01  0.92790436905E+02  0.10170777299E+03  0.00000000000E+00 0. -1.
         -5    1    5    5    0  501 -0.24905428359E+02 -0.32482212494E+02 -0.40444927766E+02  0.57734363011E+02  0.47000000000E+01 0.  1.
         11    1    6    6    0    0  0.86063709008E+01  0.68918690237E+02  0.39648998939E+02  0.79974362148E+02  0.00000000000E+00 0. -1.
        -12    1    6    6    0    0  0.24739792951E+02 -0.19712390604E+02  0.11824918421E+02  0.33770762417E+02  0.00000000000E+00 0.  1.
</event>
<event>
12    1  0.1348628E-002  0.1785912E+03  0.7818608E-02  0.1169174E+00
         -1   -1    0    0    0  501 -0.00000000000E+00  0.00000000000E+00  0.94588299281E+03  0.94588299281E+03  0.00000000000E+00 0. -1.
          1   -1    0    0  502    0  0.00000000000E+00 -0.00000000000E+00 -0.36858508449E+02  0.36858508449E+02  0.00000000000E+00 0.  1.
          6    2    1    2  502    0 -0.20134388398E+02 -0.34777202461E+02  0.32269136320E+03  0.37115330137E+03  0.17891397325E+03 0.  0.
         24    2    3    3    0    0 -0.60231361354E+02 -0.24792542272E+02  0.99728032030E+02  0.14434457639E+03  0.81530296929E+02 0.  0.
         -6    2    1    2    0  501  0.20134388398E+02  0.34777202461E+02  0.58633312116E+03  0.61158819989E+03  0.16922987287E+03 0.  0.
        -24    2    5    5    0    0  0.52569934203E+02 -0.21059761560E+02  0.45262070313E+03  0.46302531112E+03  0.79497335195E+02 0.  0.
          5    1    3    3  502    0  0.40096972956E+02 -0.99846601886E+01  0.22296333117E+03  0.22680872498E+03  0.47000000000E+01 0. -1.
        -13    1    4    4    0    0 -0.53544165043E+02 -0.29106245125E+02  0.19884896327E+02  0.64105851662E+02  0.00000000000E+00 0.  1.
         14    1    4    4    0    0 -0.66871963109E+01  0.43137028530E+01  0.79843135703E+02  0.80238724726E+02  0.00000000000E+00 0. -1.
         -5    1    5    5    0  501 -0.32435545806E+02  0.55836964021E+02  0.13371241803E+03  0.14856288877E+03  0.47000000000E+01 0.  1.
         13    1    6    6    0    0  0.35989499836E+02  0.79010143568E+01  0.39281310007E+03  0.39453745286E+03  0.00000000000E+00 0. -1.
        -14    1    6    6    0    0  0.16580434367E+02 -0.28960775917E+02  0.59807603057E+02  0.68487858260E+02  0.00000000000E+00 0.  1.
</event>
<event>
12    1  0.1348628E-002  0.1901102E+03  0.7818608E-02  0.1158362E+00
         -1   -1    0    0    0  501 -0.00000000000E+00  0.00000000000E+00  0.28493349461E+03  0.28493349461E+03  0.00000000000E+00 0. -1.
          1   -1    0    0  502    0  0.00000000000E+00 -0.00000000000E+00 -0.17589720295E+03  0.17589720295E+03  0.00000000000E+00 0.  1.
          6    2    1    2  502    0  0.60067545730E+02  0.53222463876E+02  0.17604972544E+03  0.25858962235E+03  0.17156440846E+03 0.  0.
         24    2    3    3    0    0  0.59078434354E+02  0.52816206452E+02  0.20256266700E+03  0.23164209080E+03  0.79665620557E+02 0.  0.
         -6    2    1    2    0  501 -0.60067545730E+02 -0.53222463876E+02 -0.67013433779E+02  0.20224107521E+03  0.17311820091E+03 0.  0.
        -24    2    5    5    0    0  0.10030709734E+02 -0.67328687474E+02 -0.76591344629E+02  0.12994600388E+03  0.79912217819E+02 0.  0.
          5    1    3    3  502    0  0.98911137585E+00  0.40625742347E+00 -0.26512941562E+02  0.26947531551E+02  0.47000000000E+01 0. -1.
        -13    1    4    4    0    0  0.50563092632E+02 -0.49589824942E+01  0.67407808551E+02  0.84409895733E+02  0.00000000000E+00 0.  1.
         14    1    4    4    0    0  0.85153417220E+01  0.57775188947E+02  0.13515485845E+03  0.14723219507E+03  0.00000000000E+00 0. -1.
         -5    1    5    5    0  501 -0.70098255464E+02  0.14106223598E+02  0.95779108509E+01  0.72295071336E+02  0.47000000000E+01 0.  1.
         13    1    6    6    0    0 -0.94323037113E+01 -0.74552023127E+02 -0.33827109858E+02  0.82409015690E+02  0.00000000000E+00 0. -1.
        -14    1    6    6    0    0  0.19463013445E+02  0.72233356534E+01 -0.42764234771E+02  0.47536988187E+02  0.00000000000E+00 0.  1.
</event>
<event>
12    1  0.1348628E-002  0.2019229E+03  0.7818608E-02  0.1148127E+00
         -2   -1    0    0    0  501 -0.00000000000E+00  0.00000000000E+00  0.49129098567E+02  0.49129098567E+02  0.00000000000E+00 0. -1.
          2   -1    0    0  502    0  0.00000000000E+00 -0.00000000000E+00 -0.85954195990E+03  0.85954195990E+03  0.00000000000E+00 0.  1.
          6    2    1    2  502    0 -0.94572212469E+02  0.43803279184E+02 -0.32251436707E+03  0.38096140204E+03  0.17393516676E+03 0.  0.
         24    2    3    3    0    0  0.18242659549E+02  0.28898399043E+02 -0.17007111990E+03  0.19067113847E+03  0.79141551201E+02 0.  0.
         -6    2    1    2    0  501  0.94572212469E+02 -0.43803279184E+02 -0.48789849426E+03  0.52770965643E+03  0.17195903625E+03 0.  0.
        -24    2    5    5    0    0 -0.13511934753E+02 -0.49711044887E+02 -0.21519207444E+03  0.23426806771E+03  0.76942434876E+02 0.  0.
          5    1    3    3  502    0 -0.11281487202E+03  0.14904880141E+02 -0.15244324717E+03  0.19029026357E+03  0.47000000000E+01 0. -1.
        -11    1    4    4    0    0  0.20500460003E+02 -0.59242600050E+01 -0.14767024122E+03  0.14920410805E+03  0.00000000000E+00 0.  1.
         12    1    4    4    0    0 -0.22578004544E+01  0.34822659048E+02 -0.22400878676E+02  0.41467030416E+02  0.00000000000E+00 0. -1.
         -5    1    5    5    0  501  0.10808414722E+03  0.59077657031E+01 -0.27270641983E+03  0.29344158872E+03  0.47000000000E+01 0.  1.
         11    1    6    6    0    0 -0.18499005920E+02  0.15244319628E+02 -0.90031213686E+02  0.93167708669E+02  0.00000000000E+00 0. -1.
        -12    1    6    6    0    0  0.49870711675E+01 -0.64955364514E+02 -0.12516086075E+03  0.14110035904E+03  0.00000000000E+00 0.  1.
</event>
<event>
12    1  0.1348628E-002  0.1785228E+03  0.7818608E-02  0.1169240E+00
         -1   -1    0    0    0  501 -0.00000000000E+00  0.00000000000E+00  0.41232006437E+02  0.41232006437E+02  0.00000000000E+00 0.  1.
          1   -1    0    0  502    0  0.00000000000E+00 -0.00000000000E+00 -0.11312879264E+04  0.11312879264E+04  0.00000000000E+00 0. -1.
          6    2    1    2  502    0 -0.43350474661E+02  0.19353370435E+02 -0.87341854652E+03  0.89132814218E+03  0.17132449633E+03 0.  0.
         24    2    3    3    0    0 -0.92812932009E+02  0.12279926620E+02 -0.51939965335E+03  0.53376970638E+03  0.79806407014E+02 0.  0.
         -6    2    1    2    0  501  0.43350474661E+02 -0.19353370435E+02 -0.21663737343E+03  0.28119179064E+03  0.17286773833E+03 0.  0.
        -24    2    5    5    0    0  0.14614770119E+02  0.39976382742E+02 -0.18846230192E+03  0.20934692317E+03  0.80600200440E+02 0.  0.
          5    1    3    3  502    0  0.49462457348E+02  0.70734438151E+01 -0.35401889316E+03  0.35755843580E+03  0.47000000000E+01 0. -1.
        -13    1    4    4    0    0 -0.55552861972E+02 -0.14444225588E+02 -0.42460988216E+03  0.42847206228E+03  0.00000000000E+00 0.  1.
         14    1    4    4    0    0 -0.37260070037E+02  0.26724152208E+02 -0.94789771194E+02  0.10529764410E+03  0.00000000000E+00 0. -1.
         -5    1    5    5    0  501  0.28735704542E+02 -0.59329753177E+02 -0.28175071506E+02  0.71844867471E+02  0.47000000000E+01 0.  1.
         11    1    6    6    0    0 -0.17023631704E+01 -0.76511010160E+01 -0.13745550100E+03  0.13767880063E+03  0.00000000000E+00 0. -1.
        -12    1    6    6    0    0  0.16317133290E+02  0.47627483758E+02 -0.51006800921E+02  0.71668122538E+02  0.00000000000E+00 0.  1.
</event>
<event>
12    1  0.1348628E-002  0.1743848E+03  0.7818608E-02  0.1173351E+00
         -1   -1    0    0    0  501 -0.00000000000E+00  0.00000000000E+00  0.43650045521E+03  0.43650045521E+03  0.00000000000E+00 0.  1.
          1   -1    0    0  502    0  0.00000000000E+00 -0.00000000000E+00 -0.11424541007E+03  0.11424541007E+03  0.00000000000E+00 0. -1.
          6    2    1    2  502    0  0.44777488271E+01  0.10449065728E+02 -0.10700135676E+02  0.17503923976E+03  0.17434164546E+03 0.  0.
         24    2    3    3    0    0  0.38434177674E+02  0.48326117039E+02  0.37853580403E+02  0.10456042435E+03  0.75414780972E+02 0.  0.
         -6    2    1    2    0  501 -0.44777488271E+01 -0.10449065728E+02  0.33295518081E+03  0.37570662553E+03  0.17368673763E+03 0.  0.
        -24    2    5    5    0    0  0.50125355240E+02  0.30834164852E+02  0.15925872470E+03  0.18894915455E+03  0.82916492035E+02 0.  0.
          5    1    3    3  502    0 -0.33956428847E+02 -0.37877051311E+02 -0.48553716079E+02  0.70478815407E+02  0.47000000000E+01 0. -1.
        -13    1    4    4    0    0  0.19920975984E+02  0.25745391559E+02  0.59763934667E+02  0.68054377946E+02  0.00000000000E+00 0.  1.
         14    1    4    4    0    0  0.18513201690E+02  0.22580725480E+02 -0.21910354264E+02  0.36506046403E+02  0.00000000000E+00 0. -1.
         -5    1    5    5    0  501 -0.54603104067E+02 -0.41283230581E+02  0.17369645611E+03  0.18675747098E+03  0.47000000000E+01 0.  1.
         13    1    6    6    0    0  0.80702307024E+01  0.86543105528E+01 -0.85085896614E+01  0.14574697690E+02  0.00000000000E+00 0. -1.
        -14    1    6    6    0    0  0.42055124538E+02  0.22179854300E+02  0.16776731436E+03  0.17437445686E+03  0.00000000000E+00 0.  1.
</event>
<event>
12    1  0.1348628E-002  0.1773226E+03  0.7818608E-02  0.1170420E+00
         -1   -1    0    0    0  501 -0.00000000000E+00  0.00000000000E+00  0.52919916022E+02  0.52919916022E+02  0.00000000000E+00 0.  1.
          1   -1    0    0  502    0  0.00000000000E+00 -0.00000000000E+00 -0.59452941161E+03  0.59452941161E+03  0.00000000000E+00 0. -1.
          6    2    1    2  502    0 -0.43159250730E+02  0.43916978782E+01 -0.27936069567E+03  0.33109788772E+03  0.17234095578E+03 0.  0.
         24    2    3    3    0    0 -0.85852238657E+02  0.26571819096E+01 -0.13226388317E+03  0.17784886812E+03  0.82212028325E+02 0.  0.
         -6    2    1    2    0  501  0.43159250730E+02 -0.43916978782E+01 -0.26224879992E+03  0.31635143991E+03  0.17152781855E+03 0.  0.
        -24    2    5    5    0    0  0.28806226591E+02  0.50396635374E+02 -0.84955436153E+02  0.13017196306E+03  0.79735150893E+02 0.  0.
          5    1    3    3  502    0  0.42692987927E+02  0.17345159687E+01 -0.14709681249E+03  0.15324901960E+03  0.47000000000E+01 0. -1.
        -13    1    4    4    0    0  0.99859147336E+01 -0.17875388857E+02 -0.17569739229E+02  0.26980432843E+02  0.00000000000E+00 0.  1.
         14    1    4    4    0    0 -0.95838153391E+02  0.20532570767E+02 -0.11469414395E+03  0.15086843528E+03  0.00000000000E+00 0. -1.
         -5    1    5    5    0  501  0.14353024138E+02 -0.54788333252E+02 -0.17729336377E+03  0.18617947685E+03  0.47000000000E+01 0.  1.
         13    1    6    6    0    0 -0.14181807718E+02 -0.12459253258E+02 -0.32896040209E+02  0.37927643261E+02  0.00000000000E+00 0. -1.
        -14    1    6    6    0    0  0.42988034309E+02  0.62855888632E+02 -0.52059395944E+02  0.92244319801E+02  0.00000000000E+00 0.  1.
</event>
<event>
12    1  0.1348628E-002  0.2713470E+03  0.7818608E-02  0.1100511E+00
         -3   -1    0    0    0  501 -0.00000000000E+00  0.00000000000E+00  0.37353139330E+03  0.37353139330E+03  0.00000000000E+00 0. -1.
          3   -1    0    0  502    0  0.00000000000E+00 -0.00000000000E+00 -0.25532590249E+03  0.25532590249E+03  0.00000000000E+00 0.  1.
          6    2    1    2  502    0  0.20360288683E+03  0.50412703979E+02 -0.90919501794E+02  0.28677975704E+03  0.17314934882E+03 0.  0.
         24    2    3    3    0    0  0.15718038819E+03  0.57855400134E+02  0.16281209318E+01  0.18286828232E+03  0.73384168225E+02 0.  0.
         -6    2    1    2    0  501 -0.20360288683E+03 -0.50412703979E+02  0.20912499261E+03  0.34207753875E+03  0.17113796696E+03 0.  0.
        -24    2    5    5    0    0 -0.15186081633E+03  0.21876896904E+02  0.17318542002E+03  0.24607352252E+03  0.83777578274E+02 0.  0.
          5    1    3    3  502    0  0.46422498636E+02 -0.74426961551E+01 -0.92547622726E+02  0.10391147472E+03  0.47000000000E+01 0. -1.
        -13    1    4    4    0    0  0.56498731304E+02  0.59560522797E+02 -0.17871201503E+01  0.82114288119E+02  0.00000000000E+00 0.  1.
         14    1    4    4    0    0  0.10068165689E+03 -0.17051226627E+01  0.34152410821E+01  0.10075399421E+03  0.00000000000E+00 0. -1.
         -5    1    5    5    0  501 -0.51742070494E+02 -0.72289600883E+02  0.35939572594E+02  0.96004016234E+02  0.47000000000E+01 0.  1.
         11    1    6    6    0    0 -0.40237760671E+02 -0.18333244728E+02  0.92698441213E+02  0.10270436334E+03  0.00000000000E+00 0. -1.
        -12    1    6    6    0    0 -0.11162305566E+03  0.40210141632E+02  0.80486978804E+02  0.14336915917E+03  0.00000000000E+00 0.  1.
</event>
<event>
12    1  0.1348628E-002  0.1850505E+03  0.7818608E-02  0.1163003E+00
         -1   -1    0    0    0  501 -0.00000000000E+00  0.00000000000E+00  0.12467958270E+04  0.12467958270E+04  0.00000000000E+00 0. -1.
          1   -1    0    0  502    0  0.00000000000E+00 -0.00000000000E+00 -0.30135363504E+02  0.30135363504E+02  0.00000000000E+00 0.  1.
          6    2    1    2  502    0  0.57957170817E+02 -0.34335715034E+02  0.79635131075E+03  0.81741774954E+03  0.17163447250E+03 0.  0.
         24    2    3    3    0    0  0.22796109914E+02 -0.11305098091E+02  0.16875616188E+03  0.18839909289E+03  0.79800427073E+02 0.  0.
         -6    2    1    2    0  501 -0.57957170817E+02  0.34335715034E+02  0.42030915277E+03  0.45951344099E+03  0.17307467629E+03 0.  0.
        -24    2    5    5    0    0 -0.44194294583E+02 -0.43012984304E+02  0.29345589671E+03  0.31022822195E+03  0.79510589775E+02 0.  0.
          5    1    3    3  502    0  0.35161060903E+02 -0.23030616944E+02  0.62759514888E+03  0.62901865665E+03  0.47000000000E+01 0. -1.
        -11    1    4    4    0    0 -0.23127764052E+02 -0.26425790664E+02  0.63324916975E+02  0.72410365227E+02  0.00000000000E+00 0.  1.
         12    1    4    4    0    0  0.45923873966E+02  0.15120692574E+02  0.10543124490E+03  0.11598872767E+03  0.00000000000E+00 0. -1.
         -5    1    5    5    0  501 -0.13762876234E+02  0.77348699338E+02  0.12685325606E+03  0.14928521904E+03  0.47000000000E+01 0.  1.
         13    1    6    6    0    0 -0.36625073196E+02 -0.30912766202E+02  0.62154034284E+02  0.78486426079E+02  0.00000000000E+00 0. -1.
        -14    1    6    6    0    0 -0.75692213878E+01 -0.12100218101E+02  0.23130186243E+03  0.23174179587E+03  0.00000000000E+00 0.  1.
</event>
<event>
12    1  0.1348628E-002  0.2189059E+03  0.7818608E-02  0.1134701E+00
          1   -1    0    0  502    0  0.00000000000E+00  0.00000000000E+00  0.57829880018E+03  0.57829880018E+03  0.00000000000E+00 0.  1.
         -1   -1    0    0    0  501 -0.00000000000E+00 -0.00000000000E+00 -0.11192445829E+03  0.11192445829E+03  0.00000000000E+00 0. -1.
          6    2    1    2  502    0  0.87121289666E+02  0.10380071448E+03  0.40825543010E+03  0.46277578615E+03  0.17065820988E+03 0.  0.
         24    2    3    3    0    0  0.32236010569E+02  0.12343128178E+03  0.34532249074E+03  0.37686654398E+03  0.80661810409E+02 0.  0.
         -6    2    1    2    0  501 -0.87121289666E+02 -0.10380071448E+03  0.58118911790E+02  0.22744747232E+03  0.17317574114E+03 0.  0.
        -24    2    5    5    0    0 -0.85927913755E+02 -0.12823908193E+02  0.68165418168E+02  0.13578927182E+03  0.79019890689E+02 0.  0.
          5    1    3    3  502    0  0.54885279097E+02 -0.19630567301E+02  0.62932939357E+02  0.85909242170E+02  0.47000000000E+01 0. -1.
        -11    1    4    4    0    0 -0.98572997560E+01  0.66594910727E+02  0.24526312330E+03  0.25433452015E+03  0.00000000000E+00 0.  1.
         12    1    4    4    0    0  0.42093310325E+02  0.56836371056E+02  0.10005936745E+03  0.12253202383E+03  0.00000000000E+00 0. -1.
         -5    1    5    5    0  501 -0.11933759107E+01 -0.90976806289E+02 -0.10046506378E+02  0.91658200501E+02  0.47000000000E+01 0.  1.
         11    1    6    6    0    0 -0.36410718475E+02 -0.41178946533E+02  0.13134157775E+02  0.56515061337E+02  0.00000000000E+00 0. -1.
        -12    1    6    6    0    0 -0.49517195280E+02  0.28355038340E+02  0.55031260393E+02  0.79274210486E+02  0.00000000000E+00 0.  1.
</event>
<event>
12    1  0.1348628E-002  0.1892310E+03  0.7818608E-02  0.1159157E+00
         -2   -1    0    0    0  501 -0.00000000000E+00  0.00000000000E+00  0.30692421570E+03  0.30692421570E+03  0.00000000000E+00 0. -1.
          2   -1    0    0  502    0  0.00000000000E+00 -0.00000000000E+00 -0.16793865767E+03  0.16793865767E+03  0.00000000000E+00 0.  1.
          6    2    1    2  502    0  0.59513326574E+02 -0.52686741406E+02  0.20057090459E+03  0.27545485089E+03  0.17125699503E+03 0.  0.
         24    2    3    3    0    0  0.20002861896E+02  0.34103718585E+02  0.74413676914E+02  0.11724171344E+03  0.81517151284E+02 0.  0.
         -6    2    1    2    0  501 -0.59513326574E+02  0.52686741406E+02 -0.61585346570E+02  0.19940802249E+03  0.17220068455E+03 0.  0.
        -24    2    5    5    0    0 -0.49688302057E+01  0.75147918144E+01  0.27285100086E+02  0.85673008515E+02  0.80710757224E+02 0.  0.
          5    1    3    3  502    0  0.39510464678E+02 -0.86790459990E+02  0.12615722768E+03  0.15821313745E+03  0.47000000000E+01 0. -1.
        -13    1    4    4    0    0  0.35495817976E+02  0.54695050061E+01  0.76610206925E+02  0.84610828999E+02  0.00000000000E+00 0.  1.
         14    1    4    4    0    0 -0.15492956080E+02  0.28634213579E+02 -0.21965300117E+01  0.32630884442E+02  0.00000000000E+00 0. -1.
         -5    1    5    5    0  501 -0.54544496369E+02  0.45171949591E+02 -0.88870446656E+02  0.11373501397E+03  0.47000000000E+01 0.  1.
         13    1    6    6    0    0 -0.42364288401E+02 -0.26353753591E+01  0.15147153055E+02  0.45067886357E+02  0.00000000000E+00 0. -1.
        -14    1    6    6    0    0  0.37395458196E+02  0.10150167173E+02  0.12137947031E+02  0.40605122158E+02  0.00000000000E+00 0.  1.
</event>
<event>
12    1  0.1348628E-002  0.2188201E+03  0.7818608E-02  0.1134766E+00
          2   -1    0    0  502    0  0.00000000000E+00  0.00000000000E+00  0.14480044924E+04  0.14480044924E+04  0.00000000000E+00 0.  1.
         -2   -1    0    0    0  501 -0.00000000000E+00 -0.00000000000E+00 -0.33149719997E+02  0.33149719997E+02  0.00000000000E+00 0. -1.
          6    2    1    2  502    0  0.25343361127E+02  0.13336041344E+03  0.66889209849E+03  0.70360634988E+03  0.17093264859E+03 0.  0.
         24    2    3    3    0    0  0.33203050277E+02  0.15395286950E+03  0.65113917740E+03  0.67491697612E+03  0.82016874676E+02 0.  0.
         -6    2    1    2    0  501 -0.25343361127E+02 -0.13336041344E+03  0.74596267390E+03  0.77754786250E+03  0.17231680648E+03 0.  0.
        -24    2    5    5    0    0  0.18021084898E+02 -0.10287037286E+03  0.29260061510E+03  0.32107292987E+03  0.81028595124E+02 0.  0.
          5    1    3    3  502    0 -0.78596891495E+01 -0.20592456058E+02  0.17752921084E+02  0.28689373766E+02  0.47000000000E+01 0. -1.
        -11    1    4    4    0    0 -0.81817150878E+01  0.10243390184E+03  0.49174623020E+03  0.50236839035E+03  0.00000000000E+00 0.  1.
         12    1    4    4    0    0  0.41384765364E+02  0.51518967657E+02  0.15939294720E+03  0.17254858577E+03  0.00000000000E+00 0. -1.
         -5    1    5    5    0  501 -0.43364446025E+02 -0.30490040580E+02  0.45336205881E+03  0.45647493263E+03  0.47000000000E+01 0.  1.
         11    1    6    6    0    0  0.37785065179E+01 -0.13785896144E+01 -0.49435725066E+01  0.63731099126E+01  0.00000000000E+00 0. -1.
        -12    1    6    6    0    0  0.14242578380E+02 -0.10149178324E+03  0.29754418761E+03  0.31469981996E+03  0.00000000000E+00 0.  1.
</event>
<event>
12    1  0.1348628E-002  0.1728625E+03  0.7818608E-02  0.1174895E+00
          1   -1    0    0  502    0  0.00000000000E+00  0.00000000000E+00  0.94926519745E+02  0.94926519745E+02  0.00000000000E+00 0.  1.
         -1   -1    0    0    0  501 -0.00000000000E+00 -0.00000000000E+00 -0.32011661941E+03  0.32011661941E+03  0.00000000000E+00 0. -1.
          6    2    1    2  502    0 -0.11708468843E+02 -0.76150205978E+01 -0.85548666544E+02  0.19249718424E+03  0.17187645217E+03 0.  0.
         24    2    3    3    0    0  0.60214536114E+02 -0.21065456745E+02 -0.55238787647E+02  0.11315859569E+03  0.75392309223E+02 0.  0.
         -6    2    1    2    0  501  0.11708468843E+02  0.76150205978E+01 -0.13964143312E+03  0.22254595491E+03  0.17271912293E+03 0.  0.
        -24    2    5    5    0    0 -0.20353602108E+01  0.36207014569E+02 -0.16144380528E+03  0.18376672867E+03  0.79943840957E+02 0.  0.
          5    1    3    3  502    0 -0.71923004957E+02  0.13450436147E+02 -0.30309878897E+02  0.79338588552E+02  0.47000000000E+01 0. -1.
        -11    1    4    4    0    0  0.37529864034E+02  0.19073207005E+02 -0.11882775209E+01  0.42115198246E+02  0.00000000000E+00 0.  1.
         12    1    4    4    0    0  0.22684672080E+02 -0.40138663751E+02 -0.54050510126E+02  0.71043397441E+02  0.00000000000E+00 0. -1.
         -5    1    5    5    0  501  0.13743829054E+02 -0.28591993971E+02  0.21802372162E+02  0.38779226245E+02  0.47000000000E+01 0.  1.
         13    1    6    6    0    0 -0.22680626634E+02  0.35024528162E+02 -0.31744902768E+02  0.52429640942E+02  0.00000000000E+00 0. -1.
        -14    1    6    6    0    0  0.20645266423E+02  0.11824864065E+01 -0.12969890251E+03  0.13133708773E+03  0.00000000000E+00 0.  1.
</event>
<event>
12    1  0.1348628E-002  0.1983242E+03  0.7818608E-02  0.1151161E+00
         -2   -1    0    0    0  501 -0.00000000000E+00  0.00000000000E+00  0.14257985758E+03  0.14257985758E+03  0.00000000000E+00 0. -1.
          2   -1    0    0  502    0  0.00000000000E+00 -0.00000000000E+00 -0.27933094307E+03  0.27933094307E+03  0.00000000000E+00 0.  1.
          6    2    1    2  502    0  0.65182239433E+02 -0.60739809427E+02 -0.44421109365E+02  0.20180834146E+03  0.17554293760E+03 0.  0.
         24    2    3    3    0    0  0.68077221442E+02  0.98694642702E+01 -0.75293597889E+02  0.12454741343E+03  0.71491383433E+02 0.  0.
         -6    2    1    2    0  501 -0.65182239433E+02  0.60739809427E+02 -0.92329976122E+02  0.22010245918E+03  0.17883573261E+03 0.  0.
        -24    2    5    5    0    0 -0.18622198002E+00 -0.24821017114E+02 -0.67533288655E+02  0.10972989451E+03  0.82847975852E+02 0.  0.
          5    1    3    3  502    0 -0.28949820093E+01 -0.70609273698E+02  0.30872488524E+02  0.77260928033E+02  0.47000000000E+01 0. -1.
        -13    1    4    4    0    0  0.52545937255E+02 -0.24280045948E+02 -0.28347401301E+02  0.64452861176E+02  0.00000000000E+00 0.  1.
         14    1    4    4    0    0  0.15531284187E+02  0.34149510218E+02 -0.46946196588E+02  0.60094552255E+02  0.00000000000E+00 0. -1.
         -5    1    5    5    0  501 -0.64996017453E+02  0.85560826542E+02 -0.24796687467E+02  0.11037256467E+03  0.47000000000E+01 0.  1.
         13    1    6    6    0    0  0.23677828570E+02  0.83213848381E+01  0.58294239959E+01  0.25765620418E+02  0.00000000000E+00 0. -1.
        -14    1    6    6    0    0 -0.23864050550E+02 -0.33142401953E+02 -0.73362712651E+02  0.83964274090E+02  0.00000000000E+00 0.  1.
</event>
<event>
12    1  0.1348628E-002  0.2178491E+03  0.7818608E-02  0.1135497E+00
         -2   -1    0    0    0  501 -0.00000000000E+00  0.00000000000E+00  0.23264000447E+02  0.23264000447E+02  0.00000000000E+00 0. -1.
          2   -1    0    0  502    0  0.00000000000E+00 -0.00000000000E+00 -0.20732884149E+04  0.20732884149E+04  0.00000000000E+00 0.  1.
          6    2    1    2  502    0 -0.10122164532E+02  0.13581034821E+03 -0.11520108211E+04  0.11721993747E+04  0.16845038781E+03 0.  0.
         24    2    3    3    0    0  0.10933883711E+02  0.14901494367E+03 -0.11127854376E+04  0.11255256216E+04  0.78686032185E+02 0.  0.
         -6    2    1    2    0  501  0.10122164532E+02 -0.13581034821E+03 -0.89801359334E+03  0.92435304066E+03  0.17161940759E+03 0.  0.
        -24    2    5    5    0    0 -0.43749469031E+02 -0.33787090168E+02 -0.29401610876E+03  0.30941731275E+03  0.78981122530E+02 0.  0.
          5    1    3    3  502    0 -0.21056048243E+02 -0.13204595456E+02 -0.39225383544E+02  0.46673753041E+02  0.47000000000E+01 0. -1.
        -11    1    4    4    0    0  0.16138387289E+02  0.31182442856E+02 -0.51619261156E+03  0.51738535399E+03  0.00000000000E+00 0.  1.
         12    1    4    4    0    0 -0.52045035785E+01  0.11783250081E+03 -0.59659282601E+03  0.60814026766E+03  0.00000000000E+00 0. -1.
         -5    1    5    5    0  501  0.53871633563E+02 -0.10202325804E+03 -0.60399748458E+03  0.61493572791E+03  0.47000000000E+01 0.  1.
         11    1    6    6    0    0 -0.17796153661E+01 -0.26367220962E+02 -0.22891280980E+02  0.34962953494E+02  0.00000000000E+00 0. -1.
        -12    1    6    6    0    0 -0.41969853665E+02 -0.74198692059E+01 -0.27112482778E+03  0.27445435925E+03  0.00000000000E+00 0.  1.
</event>
<event>
12    1  0.1348628E-002  0.2387530E+03  0.7818608E-02  0.1120626E+00
         -1   -1    0    0    0  501 -0.00000000000E+00  0.00000000000E+00  0.82394435884E+02  0.82394435884E+02  0.00000000000E+00 0. -1.
          1   -1    0    0  502    0  0.00000000000E+00 -0.00000000000E+00 -0.71042323887E+03  0.71042323887E+03  0.00000000000E+00 0.  1.
          6    2    1    2  502    0 -0.12436064270E+03 -0.11047399673E+03 -0.25049017698E+03  0.34637028573E+03  0.17192141422E+03 0.  0.
         24    2    3    3    0    0 -0.10225658258E+03 -0.14780549908E+03 -0.21120685635E+03  0.28765487191E+03  0.76381378119E+02 0.  0.
         -6    2    1    2    0  501  0.12436064270E+03  0.11047399673E+03 -0.37753862601E+03  0.44644738902E+03  0.17061589502E+03 0.  0.
        -24    2    5    5    0    0  0.49002152363E+02  0.89425329008E+02 -0.11218818531E+03  0.16976183671E+03  0.76385809397E+02 0.  0.
          5    1    3    3  502    0 -0.22104060115E+02  0.37331502347E+02 -0.39283320629E+02  0.58715413825E+02  0.47000000000E+01 0. -1.
        -11    1    4    4    0    0 -0.11067350544E+03 -0.10879736486E+03 -0.16282161383E+03  0.22493636731E+03  0.00000000000E+00 0.  1.
         12    1    4    4    0    0  0.84169228580E+01 -0.39008134215E+02 -0.48385242525E+02  0.62718504602E+02  0.00000000000E+00 0. -1.
         -5    1    5    5    0  501  0.75358490334E+02  0.21048667721E+02 -0.26535044070E+03  0.27668555231E+03  0.47000000000E+01 0.  1.
         13    1    6    6    0    0 -0.21620637785E+01  0.35607202009E+02 -0.54322240210E+00  0.35676917542E+02  0.00000000000E+00 0. -1.
        -14    1    6    6    0    0  0.51164216141E+02  0.53818126999E+02 -0.11164496291E+03  0.13408491917E+03  0.00000000000E+00 0.  1.
</event>
<event>
12    1  0.1348628E-002  0.1751405E+03  0.7818608E-02  0.1172591E+00
          2   -1    0    0  502    0  0.00000000000E+00  0.00000000000E+00  0.19283335634E+04  0.19283335634E+04  0.00000000000E+00 0. -1.
         -2   -1    0    0    0  501 -0.00000000000E+00 -0.00000000000E+00 -0.19606261604E+02  0.19606261604E+02  0.00000000000E+00 0.  1.
          6    2    1    2  502    0 -0.25890559208E+01 -0.30745225167E+02  0.53480746073E+03  0.56300103124E+03  0.17320268198E+03 0.  0.
         24    2    3    3    0    0 -0.63063311163E+02 -0.13156986214E+02  0.23331777607E+03  0.25496758882E+03  0.80132385554E+02 0.  0.
         -6    2    1    2    0  501  0.25890559208E+01  0.30745225167E+02  0.13739198411E+04  0.13849387938E+04  0.17160349855E+03 0.  0.
        -24    2    5    5    0    0 -0.67300011650E+01  0.81348622840E+02  0.11227384395E+04  0.11284982838E+04  0.79396987053E+02 0.  0.
          5    1    3    3  502    0  0.60474255243E+02 -0.17588238953E+02  0.30148968466E+03  0.30803344242E+03  0.47000000000E+01 0. -1.
        -13    1    4    4    0    0  0.50777030521E+01 -0.14697387830E+02  0.44612177558E+01  0.16177105464E+02  0.00000000000E+00 0.  1.
         14    1    4    4    0    0 -0.68141014215E+02  0.15404016169E+01  0.22885655832E+03  0.23879048335E+03  0.00000000000E+00 0. -1.
         -5    1    5    5    0  501  0.93190570858E+01 -0.50603397673E+02  0.25118140157E+03  0.25644051001E+03  0.47000000000E+01 0.  1.
         13    1    6    6    0    0  0.41147507207E+01  0.84672100141E+01  0.64862027074E+03  0.64868858509E+03  0.00000000000E+00 0. -1.
        -14    1    6    6    0    0 -0.10844751886E+02  0.72881412825E+02  0.47411816877E+03  0.47980969867E+03  0.00000000000E+00 0.  1.
</event>
<event>
12    1  0.1348628E-002  0.2149687E+03  0.7818608E-02  0.1137691E+00
         -2   -1    0    0    0  501 -0.00000000000E+00  0.00000000000E+00  0.57391554871E+02  0.57391554871E+02  0.00000000000E+00 0.  1.
          2   -1    0    0  502    0  0.00000000000E+00 -0.00000000000E+00 -0.81301916512E+03  0.81301916512E+03  0.00000000000E+00 0. -1.
          6    2    1    2  502    0  0.80502936879E+02 -0.10276277462E+03 -0.33776906315E+03  0.40116212223E+03  0.17263313008E+03 0.  0.
         24    2    3    3    0    0  0.50952524160E+02  0.46620951284E+01 -0.21764168283E+03  0.23725358971E+03  0.79394388189E+02 0.  0.
         -6    2    1    2    0  501 -0.80502936879E+02  0.10276277462E+03 -0.41785854710E+03  0.46924859776E+03  0.16896026284E+03 0.  0.
        -24    2    5    5    0    0 -0.11449807073E+03  0.89149633441E+02 -0.26859972221E+03  0.31549140753E+03  0.79571050717E+02 0.  0.
          5    1    3    3  502    0  0.29550412719E+02 -0.10742486975E+03 -0.12012738032E+03  0.16390853252E+03  0.47000000000E+01 0. -1.
        -13    1    4    4    0    0  0.65696675763E+02  0.23892447769E+02 -0.15280194962E+03  0.16803374088E+03  0.00000000000E+00 0.  1.
         14    1    4    4    0    0 -0.14744151604E+02 -0.19230352640E+02 -0.64839733209E+02  0.69219848828E+02  0.00000000000E+00 0. -1.
         -5    1    5    5    0  501  0.33995133848E+02  0.13613141179E+02 -0.14925882489E+03  0.15375719023E+03  0.47000000000E+01 0.  1.
         13    1    6    6    0    0 -0.93167929399E+01  0.42833949217E+02 -0.11917680119E+03  0.12698291136E+03  0.00000000000E+00 0. -1.
        -14    1    6    6    0    0 -0.10518127779E+03  0.46315684224E+02 -0.14942292102E+03  0.18850849617E+03  0.00000000000E+00 0.  1.
</event>
<event>
12    1  0.1348628E-002  0.3583488E+03  0.7818608E-02  0.1059240E+00
          1   -1    0    0  502    0  0.00000000000E+00  0.00000000000E+00  0.61624015481E+03  0.61624015481E+03  0.00000000000E+00 0.  1.
         -1   -1    0    0    0  501 -0.00000000000E+00 -0.00000000000E+00 -0.36598510354E+03  0.36598510354E+03  0.00000000000E+00 0. -1.
          6    2    1    2  502    0 -0.93927090617E+02  0.29987498966E+03  0.44745141328E+03  0.57340447497E+03  0.17272121146E+03 0.  0.
         24    2    3    3    0    0 -0.36686947220E+02  0.27065664362E+03  0.30518638509E+03  0.41722645473E+03  0.79613026839E+02 0.  0.
         -6    2    1    2    0  501  0.93927090617E+02 -0.29987498966E+03 -0.19719636201E+03  0.40882078338E+03  0.17175773623E+03 0.  0.
        -24    2    5    5    0    0  0.28747004818E+02 -0.27608486148E+03 -0.16009028716E+03  0.32999588519E+03  0.78861544328E+02 0.  0.
          5    1    3    3  502    0 -0.57240143397E+02  0.29218346041E+02  0.14226502819E+03  0.15617802024E+03  0.47000000000E+01 0. -1.
        -11    1    4    4    0    0 -0.22303096979E+02  0.21983709468E+03  0.19363368387E+03  0.29380228022E+03  0.00000000000E+00 0.  1.
         12    1    4    4    0    0 -0.14383850241E+02  0.50819548944E+02  0.11155270122E+03  0.12342417451E+03  0.00000000000E+00 0. -1.
         -5    1    5    5    0  501  0.65180085799E+02 -0.23790128183E+02 -0.37106074850E+02  0.78824898189E+02  0.47000000000E+01 0.  1.
         11    1    6    6    0    0  0.16292376054E+02 -0.95434180478E+02 -0.15022708627E+02  0.97973496904E+02  0.00000000000E+00 0. -1.
        -12    1    6    6    0    0  0.12454628765E+02 -0.18065068100E+03 -0.14506757853E+03  0.23202238828E+03  0.00000000000E+00 0.  1.
</event>
<event>
12    1  0.1348628E-002  0.2307413E+03  0.7818608E-02  0.1126119E+00
         -2   -1    0    0    0  501 -0.00000000000E+00  0.00000000000E+00  0.32984445381E+02  0.32984445381E+02  0.00000000000E+00 0. -1.
          2   -1    0    0  502    0  0.00000000000E+00 -0.00000000000E+00 -0.19928699598E+04  0.19928699598E+04  0.00000000000E+00 0.  1.
          6    2    1    2  502    0 -0.30499684227E+02  0.15012627222E+03 -0.53855555157E+03  0.58592545980E+03  0.17262222906E+03 0.  0.
         24    2    3    3    0    0 -0.14638633713E+02  0.74418343589E+02 -0.46699983258E+03  0.48044762184E+03  0.83598410507E+02 0.  0.
         -6    2    1    2    0  501  0.30499684227E+02 -0.15012627222E+03 -0.14213299629E+04  0.14399289454E+04  0.17247717561E+03 0.  0.
        -24    2    5    5    0    0  0.39105585480E+01 -0.17362395711E+03 -0.10809195641E+04  0.10976418548E+04  0.79183119490E+02 0.  0.
          5    1    3    3  502    0 -0.15861050514E+02  0.75707928633E+02 -0.71555718991E+02  0.10547783796E+03  0.47000000000E+01 0. -1.
        -11    1    4    4    0    0  0.21002626959E+02 -0.52934419681E+01 -0.15329063294E+03  0.15481327144E+03  0.00000000000E+00 0.  1.
         12    1    4    4    0    0 -0.35641260672E+02  0.79711785557E+02 -0.31370919964E+03  0.32563435040E+03  0.00000000000E+00 0. -1.
         -5    1    5    5    0  501  0.26589125679E+02  0.23497684888E+02 -0.34041039877E+03  0.34228709060E+03  0.47000000000E+01 0.  1.
         13    1    6    6    0    0  0.36126873311E+02 -0.13638230185E+03 -0.83592539245E+03  0.84774792537E+03  0.00000000000E+00 0. -1.
        -14    1    6    6    0    0 -0.32216314763E+02 -0.37241655257E+02 -0.24499417167E+03  0.24989392945E+03  0.00000000000E+00 0.  1.
</event>
<event>
12    1  0.1348628E-002  0.2432057E+03  0.7818608E-02  0.1117676E+00
         -1   -1    0    0    0  501 -0.00000000000E+00  0.00000000000E+00  0.97983060713E+03  0.97983060713E+03  0.00000000000E+00 0.  1.
          1   -1    0    0  502    0  0.00000000000E+00 -0.00000000000E+00 -0.61215992859E+02  0.61215992859E+02  0.00000000000E+00 0. -1.
          6    2    1    2  502    0  0.22062160609E+02 -0.17112499091E+03  0.52219872786E+03  0.57642070241E+03  0.17262332793E+03 0.  0.
         24    2    3    3    0    0  0.31414588239E+02 -0.17261502819E+03  0.52964518019E+03  0.56348904489E+03  0.78822982034E+02 0.  0.
         -6    2    1    2    0  501 -0.22062160609E+02  0.17112499091E+03  0.39641588642E+03  0.46462589758E+03  0.17017981154E+03 0.  0.
        -24    2    5    5    0    0 -0.22164434458E+02  0.92332927716E+02  0.10689489568E+03  0.16453808750E+03  0.81422551056E+02 0.  0.
          5    1    3    3  502    0 -0.93524276304E+01  0.14900372833E+01 -0.74464523386E+01  0.12931657516E+02  0.47000000000E+01 0. -1.
        -13    1    4    4    0    0 -0.55470813428E+01 -0.23760265633E+02  0.18049296038E+03  0.18213464547E+03  0.00000000000E+00 0.  1.
         14    1    4    4    0    0  0.36961669582E+02 -0.14885476256E+03  0.34915221981E+03  0.38135439942E+03  0.00000000000E+00 0. -1.
         -5    1    5    5    0  501  0.10227384887E+00  0.78792063195E+02  0.28952099074E+03  0.30008781009E+03  0.47000000000E+01 0.  1.
         13    1    6    6    0    0  0.20157895069E+02  0.10465906187E+02 -0.88323460150E+00  0.22730068836E+02  0.00000000000E+00 0. -1.
        -14    1    6    6    0    0 -0.42322329527E+02  0.81867021529E+02  0.10777813028E+03  0.14180801866E+03  0.00000000000E+00 0.  1.
</event>
<event>
12    1  0.1348628E-002  0.1939064E+03  0.7818608E-02  0.1154984E+00
         -2   -1    0    0    0  501 -0.00000000000E+00  0.00000000000E+00  0.13332469381E+02  0.13332469381E+02  0.00000000000E+00 0. -1.
          2   -1    0    0  502    0  0.00000000000E+00 -0.00000000000E+00 -0.28284488199E+04  0.28284488199E+04  0.00000000000E+00 0.  1.
          6    2    1    2  502    0 -0.63337942491E+02 -0.61616168248E+02 -0.14865709171E+04  0.14992019470E+04  0.17293102396E+03 0.  0.
         24    2    3    3    0    0 -0.11807599747E+02 -0.81682970326E+02 -0.60040198217E+03  0.61129681463E+03  0.79935776331E+02 0.  0.
         -6    2    1    2    0  501  0.63337942491E+02  0.61616168248E+02 -0.13285454334E+04  0.13425793423E+04  0.17227325569E+03 0.  0.
        -24    2    5    5    0    0  0.76380557538E+02 -0.13828687040E+02 -0.95707980521E+03  0.96327624593E+03  0.76643005334E+02 0.  0.
          5    1    3    3  502    0 -0.51530342744E+02  0.20066802078E+02 -0.88616893497E+03  0.88790513236E+03  0.47000000000E+01 0. -1.
        -13    1    4    4    0    0 -0.31581111425E+02 -0.75211949074E+02 -0.55941952833E+03  0.56533566362E+03  0.00000000000E+00 0.  1.
         14    1    4    4    0    0  0.19773511677E+02 -0.64710212523E+01 -0.40982453840E+02  0.45961151018E+02  0.00000000000E+00 0. -1.
         -5    1    5    5    0  501 -0.13042615046E+02  0.75444855288E+02 -0.37146562821E+03  0.37930309640E+03  0.47000000000E+01 0.  1.
         11    1    6    6    0    0 -0.43726875111E+01 -0.26566473543E+02 -0.27492462857E+03  0.27623984019E+03  0.00000000000E+00 0. -1.
        -12    1    6    6    0    0  0.80753245049E+02  0.12737786503E+02 -0.68215517664E+03  0.68703640574E+03  0.00000000000E+00 0.  1.
</event>
<event>
12    1  0.1348628E-002  0.1823937E+03  0.7818608E-02  0.1165506E+00
          1   -1    0    0  502    0  0.00000000000E+00  0.00000000000E+00  0.18856171673E+03  0.18856171673E+03  0.00000000000E+00 0.  1.
         -1   -1    0    0    0  501 -0.00000000000E+00 -0.00000000000E+00 -0.18823190225E+03  0.18823190225E+03  0.00000000000E+00 0. -1.
          6    2    1    2  502    0 -0.39945894769E+02  0.44718538361E+02 -0.47014058708E+02  0.18843502807E+03  0.17234272803E+03 0.  0.
         24    2    3    3    0    0  0.24643778231E+02  0.54863081775E+02 -0.65881688839E+02  0.12022348149E+03  0.80597859963E+02 0.  0.
         -6    2    1    2    0  501  0.39945894769E+02 -0.44718538361E+02  0.47343873190E+02  0.18835859091E+03  0.17216879583E+03 0.  0.
        -24    2    5    5    0    0 -0.41021068815E+02 -0.42047356761E+02  0.10294217406E+02  0.99153482329E+02  0.79213217639E+02 0.  0.
          5    1    3    3  502    0 -0.64589673000E+02 -0.10144543414E+02  0.18867630131E+02  0.68211546575E+02  0.47000000000E+01 0. -1.
        -13    1    4    4    0    0 -0.18110318571E+02  0.42945747967E+02 -0.80098508975E+01  0.47291422251E+02  0.00000000000E+00 0.  1.
         14    1    4    4    0    0  0.42754096802E+02  0.11917333809E+02 -0.57871837942E+02  0.72932059241E+02  0.00000000000E+00 0. -1.
         -5    1    5    5    0  501  0.80966963584E+02 -0.26711816007E+01  0.37049655784E+02  0.89205108581E+02  0.47000000000E+01 0.  1.
         13    1    6    6    0    0  0.13100351693E+02  0.12643010701E+02  0.12658822812E+02  0.22174551383E+02  0.00000000000E+00 0. -1.
        -14    1    6    6    0    0 -0.54121420508E+02 -0.54690367462E+02 -0.23646054054E+01  0.76978930946E+02  0.00000000000E+00 0.  1.
</event>
<event>
12    1  0.1348628E-002  0.2069622E+03  0.7818608E-02  0.1143994E+00
          1   -1    0    0  502    0  0.00000000000E+00  0.00000000000E+00  0.62557230869E+02  0.62557230869E+02  0.00000000000E+00 0. -1.
         -1   -1    0    0    0  501 -0.00000000000E+00 -0.00000000000E+00 -0.68810273612E+03  0.68810273612E+03  0.00000000000E+00 0.  1.
          6    2    1    2  502    0 -0.97901186294E+02  0.57942007290E+02 -0.28412562839E+03  0.35056096468E+03  0.17094940411E+03 0.  0.
         24    2    3    3    0    0 -0.53707092035E+01 -0.20273974778E+02 -0.14738907824E+03  0.16780811741E+03  0.77434781019E+02 0.  0.
         -6    2    1    2    0  501  0.97901186294E+02 -0.57942007290E+02 -0.34141987686E+03  0.40009900231E+03  0.17484210261E+03 0.  0.
        -24    2    5    5    0    0 -0.11543007676E+02 -0.24033114949E+02 -0.72319909064E+02  0.10758451165E+03  0.75056154046E+02 0.  0.
          5    1    3    3  502    0 -0.92530477090E+02  0.78215982068E+02 -0.13673655014E+03  0.18275284727E+03  0.47000000000E+01 0. -1.
        -11    1    4    4    0    0  0.19538943486E+02  0.21557102509E+02 -0.76177971945E+02  0.81544848953E+02  0.00000000000E+00 0.  1.
         12    1    4    4    0    0 -0.24909652690E+02 -0.41831077286E+02 -0.71211106297E+02  0.86263268452E+02  0.00000000000E+00 0. -1.
         -5    1    5    5    0  501  0.10944419397E+03 -0.33908892341E+02 -0.26909996780E+03  0.29251449065E+03  0.47000000000E+01 0.  1.
         11    1    6    6    0    0 -0.81067665981E+01  0.23657696784E+02 -0.47572793077E+02  0.53745482814E+02  0.00000000000E+00 0. -1.
        -12    1    6    6    0    0 -0.34362410778E+01 -0.47690811734E+02 -0.24747115987E+02  0.53839028838E+02  0.00000000000E+00 0.  1.
</event>
<event>
12    1  0.1348628E-002  0.1983610E+03  0.7818608E-02  0.1151129E+00
         -1   -1    0    0    0  501 -0.00000000000E+00  0.00000000000E+00  0.47921999596E+02  0.47921999596E+02  0.00000000000E+00 0.  1.
          1   -1    0    0  502    0  0.00000000000E+00 -0.00000000000E+00 -0.84448080667E+03  0.84448080667E+03  0.00000000000E+00 0. -1.
          6    2    1    2  502    0 -0.84158155771E+02 -0.51324898238E+02 -0.47530160230E+03  0.51558724842E+03  0.17378652774E+03 0.  0.
         24    2    3    3    0    0 -0.10128648444E+03 -0.50576952119E+01 -0.24361057204E+03  0.27865506990E+03  0.89543313309E+02 0.  0.
         -6    2    1    2    0  501  0.84158155771E+02  0.51324898238E+02 -0.32125720477E+03  0.37681555784E+03  0.17049027143E+03 0.  0.
        -24    2    5    5    0    0  0.92119615686E+02  0.74783209122E+02 -0.16403530345E+03  0.21758461409E+03  0.79730367797E+02 0.  0.
          5    1    3    3  502    0  0.17128328665E+02 -0.46267203026E+02 -0.23169103026E+03  0.23693217852E+03  0.47000000000E+01 0. -1.
        -13    1    4    4    0    0 -0.79336433343E+02 -0.18733867309E+01 -0.77000396089E+02  0.11057504344E+03  0.00000000000E+00 0.  1.
         14    1    4    4    0    0 -0.21950051094E+02 -0.31843084810E+01 -0.16661017595E+03  0.16808002646E+03  0.00000000000E+00 0. -1.
         -5    1    5    5    0  501 -0.79614599145E+01 -0.23458310884E+02 -0.15722190132E+03  0.15923094375E+03  0.47000000000E+01 0.  1.
         11    1    6    6    0    0  0.24386664511E+02 -0.10094870593E+02 -0.66787848846E+02  0.71813874507E+02  0.00000000000E+00 0. -1.
        -12    1    6    6    0    0  0.67732951175E+02  0.84878079715E+02 -0.97247454608E+02  0.14577073958E+03  0.00000000000E+00 0.  1.
</event>
<event>
12    1  0.1348628E-002  0.1936323E+03  0.7818608E-02  0.1155225E+00
          1   -1    0    0  502    0  0.00000000000E+00  0.00000000000E+00  0.85940474057E+03  0.85940474057E+03  0.00000000000E+00 0.  1.
         -1   -1    0    0    0  501 -0.00000000000E+00 -0.00000000000E+00 -0.47237696281E+02  0.47237696281E+02  0.00000000000E+00 0. -1.
          6    2    1    2  502    0  0.89261581527E+02  0.54792544026E+01  0.53203177960E+03  0.56628296117E+03  0.17210730795E+03 0.  0.
         24    2    3    3    0    0  0.10603805278E+03  0.37310978735E+02  0.50034435502E+03  0.51810732897E+03  0.73854945415E+02 0.  0.
         -6    2    1    2    0  501 -0.89261581527E+02 -0.54792544026E+01  0.28013526469E+03  0.34035947568E+03  0.17138014469E+03 0.  0.
        -24    2    5    5    0    0 -0.16927313032E+01  0.34243441175E+02  0.18464468900E+03  0.20476177614E+03  0.81598070994E+02 0.  0.
          5    1    3    3  502    0 -0.16776471254E+02 -0.31831724333E+02  0.31687424575E+02  0.48175632200E+02  0.47000000000E+01 0. -1.
        -13    1    4    4    0    0  0.81512212602E+02 -0.87402283939E+01  0.28732266741E+03  0.29878913569E+03  0.00000000000E+00 0.  1.
         14    1    4    4    0    0  0.24525840179E+02  0.46051207129E+02  0.21302168761E+03  0.21931819328E+03  0.00000000000E+00 0. -1.
         -5    1    5    5    0  501 -0.87568850223E+02 -0.39722695578E+02  0.95490575696E+02  0.13559769954E+03  0.47000000000E+01 0.  1.
         13    1    6    6    0    0  0.19450324705E+02  0.10634065774E+02  0.16704640648E+03  0.16851083171E+03  0.00000000000E+00 0. -1.
        -14    1    6    6    0    0 -0.21143056008E+02  0.23609375401E+02  0.17598282512E+02  0.36250944423E+02  0.00000000000E+00 0.  1.
</event>
<event>
12    1  0.1348628E-002  0.1775686E+03  0.7818608E-02  0.1170177E+00
          2   -1    0    0  502    0  0.00000000000E+00  0.00000000000E+00  0.21155820322E+04  0.21155820322E+04  0.00000000000E+00 0.  1.
         -2   -1    0    0    0  501 -0.00000000000E+00 -0.00000000000E+00 -0.14941164151E+02  0.14941164151E+02  0.00000000000E+00 0. -1.
          6    2    1    2  502    0  0.31857038479E+02 -0.40063436354E+02  0.11102901431E+04  0.11245982234E+04  0.17133888161E+03 0.  0.
         24    2    3    3    0    0  0.10224472902E+02  0.14631643582E+02  0.95479755702E+03  0.95828660627E+03  0.79725905620E+02 0.  0.
         -6    2    1    2    0  501 -0.31857038479E+02  0.40063436354E+02  0.99035072499E+03  0.10059249730E+04  0.16873216347E+03 0.  0.
        -24    2    5    5    0    0  0.27842795205E+02 -0.14710022091E+01  0.75096797676E+03  0.75569433963E+03  0.79647019618E+02 0.  0.
          5    1    3    3  502    0  0.21632565578E+02 -0.54695079936E+02  0.15549258608E+03  0.16631161712E+03  0.47000000000E+01 0. -1.
        -13    1    4    4    0    0  0.43114411241E+02  0.15488252998E+02  0.67683831707E+03  0.67838694408E+03  0.00000000000E+00 0.  1.
         14    1    4    4    0    0 -0.32889938340E+02 -0.85660941620E+00  0.27795923995E+03  0.27989966219E+03  0.00000000000E+00 0. -1.
         -5    1    5    5    0  501 -0.59699833684E+02  0.41534438563E+02  0.23938274823E+03  0.25023063337E+03  0.47000000000E+01 0.  1.
         11    1    6    6    0    0  0.28471165557E+02  0.12153466557E+02  0.10225943331E+03  0.10684243407E+03  0.00000000000E+00 0. -1.
        -12    1    6    6    0    0 -0.62837035195E+00 -0.13624468766E+02  0.64870854345E+03  0.64885190556E+03  0.00000000000E+00 0.  1.
</event>
<event>
12    1  0.1348628E-002  0.2680425E+03  0.7818608E-02  0.1102405E+00
          2   -1    0    0  502    0  0.00000000000E+00  0.00000000000E+00  0.13608066929E+04  0.13608066929E+04  0.00000000000E+00 0. -1.
         -2   -1    0    0    0  501 -0.00000000000E+00 -0.00000000000E+00 -0.54555762268E+02  0.54555762268E+02  0.00000000000E+00 0.  1.
          6    2    1    2  502    0  0.19961163732E+03  0.42605417370E+02  0.77900623388E+03  0.82366993577E+03  0.17297810068E+03 0.  0.
         24    2    3    3    0    0  0.11472168840E+03  0.96868390991E+02  0.53482001502E+03  0.55947346869E+03  0.66585003847E+02 0.  0.
         -6    2    1    2    0  501 -0.19961163732E+03 -0.42605417370E+02  0.52724469672E+03  0.59169251937E+03  0.17450799386E+03 0.  0.
        -24    2    5    5    0    0 -0.22117664205E+03 -0.56562413489E+02  0.46720437826E+03  0.52621903611E+03  0.80672977441E+02 0.  0.
          5    1    3    3  502    0  0.84889948917E+02 -0.54262973621E+02  0.24418621886E+03  0.26419646707E+03  0.47000000000E+01 0. -1.
        -11    1    4    4    0    0  0.99585374759E+02  0.65182994495E+02  0.31252065064E+03  0.33441774282E+03  0.00000000000E+00 0.  1.
         12    1    4    4    0    0  0.15136313642E+02  0.31685396496E+02  0.22229936438E+03  0.22505572587E+03  0.00000000000E+00 0. -1.
         -5    1    5    5    0  501  0.21565004735E+02  0.13956996119E+02  0.60040318462E+02  0.65473483265E+02  0.47000000000E+01 0.  1.
         11    1    6    6    0    0 -0.12572952795E+03 -0.36515248048E+02  0.17766434821E+03  0.22069412807E+03  0.00000000000E+00 0. -1.
        -12    1    6    6    0    0 -0.95447114100E+02 -0.20047165442E+02  0.28954003005E+03  0.30552490804E+03  0.00000000000E+00 0.  1.
</event>
<event>
12    1  0.1348628E-002  0.2633770E+03  0.7818608E-02  0.1105131E+00
          1   -1    0    0  502    0  0.00000000000E+00  0.00000000000E+00  0.61201698116E+03  0.61201698116E+03  0.00000000000E+00 0.  1.
         -1   -1    0    0    0  501 -0.00000000000E+00 -0.00000000000E+00 -0.12103981206E+03  0.12103981206E+03  0.00000000000E+00 0. -1.
          6    2    1    2  502    0 -0.12885241959E+03  0.15470389592E+03  0.33742499124E+03  0.42770014069E+03  0.16892467017E+03 0.  0.
         24    2    3    3    0    0 -0.49474259174E+02  0.13846104665E+03  0.28838473857E+03  0.33287525533E+03  0.77595195775E+02 0.  0.
         -6    2    1    2    0  501  0.12885241959E+03 -0.15470389592E+03  0.15355217786E+03  0.30535665253E+03  0.17066977609E+03 0.  0.
        -24    2    5    5    0    0  0.14856439407E+01 -0.74950765962E+02  0.86718407764E+02  0.14082185346E+03  0.81797846619E+02 0.  0.
          5    1    3    3  502    0 -0.79378160417E+02  0.16242849269E+02  0.49040252665E+02  0.94824885368E+02  0.47000000000E+01 0. -1.
        -11    1    4    4    0    0  0.17977752652E+02  0.59675058826E+02  0.11649851488E+03  0.13212197473E+03  0.00000000000E+00 0.  1.
         12    1    4    4    0    0 -0.67452011826E+02  0.78785987821E+02  0.17188622369E+03  0.20075328060E+03  0.00000000000E+00 0. -1.
         -5    1    5    5    0  501  0.12736677565E+03 -0.79753129955E+02  0.66833770098E+02  0.16453479906E+03  0.47000000000E+01 0.  1.
         11    1    6    6    0    0  0.20197798871E+02 -0.54252341922E+00 -0.54215336251E+01  0.20919809696E+02  0.00000000000E+00 0. -1.
        -12    1    6    6    0    0 -0.18712154930E+02 -0.74408242542E+02  0.92139941389E+02  0.11990204377E+03  0.00000000000E+00 0.  1.
</event>
<event>
12    1  0.1348628E-002  0.1869142E+03  0.7818608E-02  0.1161274E+00
          3   -1    0    0  502    0  0.00000000000E+00  0.00000000000E+00  0.24960996251E+02  0.24960996251E+02  0.00000000000E+00 0. -1.
         -3   -1    0    0    0  501 -0.00000000000E+00 -0.00000000000E+00 -0.22685809585E+04  0.22685809585E+04  0.00000000000E+00 0.  1.
          6    2    1    2  502    0 -0.69160763118E+02 -0.36261272281E+02 -0.18273239414E+04  0.18367444480E+04  0.16858021626E+03 0.  0.
         24    2    3    3    0    0 -0.10595825921E+03 -0.55224905174E+02 -0.13758236181E+04  0.13833259801E+04  0.80144844974E+02 0.  0.
         -6    2    1    2    0  501  0.69160763118E+02  0.36261272281E+02 -0.41629602079E+03  0.45679750673E+03  0.17106575987E+03 0.  0.
        -24    2    5    5    0    0  0.11270092723E+03  0.10999567876E+02 -0.31734735017E+03  0.34568122071E+03  0.77224841857E+02 0.  0.
          5    1    3    3  502    0  0.36797496090E+02  0.18963632893E+02 -0.45150032329E+03  0.45341846789E+03  0.47000000000E+01 0. -1.
        -11    1    4    4    0    0 -0.63266071033E+02  0.11448608761E+02 -0.56500484984E+03  0.56865116436E+03  0.00000000000E+00 0.  1.
         12    1    4    4    0    0 -0.42692188175E+02 -0.66673513935E+02 -0.81081876831E+03  0.81467481576E+03  0.00000000000E+00 0. -1.
         -5    1    5    5    0  501 -0.43540164108E+02  0.25261704405E+02 -0.98948670620E+02  0.11111628601E+03  0.47000000000E+01 0.  1.
         11    1    6    6    0    0  0.10887790410E+02 -0.13969626368E+02 -0.87309812318E+01  0.19746505365E+02  0.00000000000E+00 0. -1.
        -12    1    6    6    0    0  0.10181313682E+03  0.24969194244E+02 -0.30861636894E+03  0.32593471535E+03  0.00000000000E+00 0.  1.
</event>
<event>
12    1  0.1348628E-002  0.1805875E+03  0.7818608E-02  0.1167236E+00
         -2   -1    0    0    0  501 -0.00000000000E+00  0.00000000000E+00  0.34991313761E+02  0.34991313761E+02  0.00000000000E+00 0. -1.
          2   -1    0    0  502    0  0.00000000000E+00 -0.00000000000E+00 -0.94711899975E+03  0.94711899975E+03  0.00000000000E+00 0.  1.
          6    2    1    2  502    0  0.12695835774E+02  0.50017028636E+02 -0.39356692130E+03  0.43294444841E+03  0.17286725101E+03 0.  0.
         24    2    3    3    0    0 -0.38381610232E+02  0.70359732431E+02 -0.18228842006E+03  0.21457909820E+03  0.79946740674E+02 0.  0.
         -6    2    1    2    0  501 -0.12695835774E+02 -0.50017028636E+02 -0.51856076469E+03  0.54916586510E+03  0.17324835732E+03 0.  0.
        -24    2    5    5    0    0  0.53040130355E+02 -0.28104389018E+01 -0.21124265568E+03  0.23133542369E+03  0.77919603964E+02 0.  0.
          5    1    3    3  502    0  0.51077446006E+02 -0.20342703795E+02 -0.21127850123E+03  0.21836535021E+03  0.47000000000E+01 0. -1.
        -13    1    4    4    0    0  0.12803912238E+00  0.56553115720E+02 -0.15604104352E+03  0.16597312600E+03  0.00000000000E+00 0.  1.
         14    1    4    4    0    0 -0.38509649355E+02  0.13806616712E+02 -0.26247376547E+02  0.48605972206E+02  0.00000000000E+00 0. -1.
         -5    1    5    5    0  501 -0.65735966129E+02 -0.47206589735E+02 -0.30731810901E+03  0.31783044141E+03  0.47000000000E+01 0.  1.
         11    1    6    6    0    0  0.55515647442E+02 -0.32527982967E+02 -0.15003099793E+03  0.16324630816E+03  0.00000000000E+00 0. -1.
        -12    1    6    6    0    0 -0.24755170870E+01  0.29717544065E+02 -0.61211657745E+02  0.68089115533E+02  0.00000000000E+00 0.  1.
</event>
<event>
12    1  0.1348628E-002  0.2969981E+03  0.7818608E-02  0.1086751E+00
         -1   -1    0    0    0  501 -0.00000000000E+00  0.00000000000E+00  0.39268093654E+02  0.39268093654E+02  0.00000000000E+00 0. -1.
          1   -1    0    0  502    0  0.00000000000E+00 -0.00000000000E+00 -0.27321884071E+04  0.27321884071E+04  0.00000000000E+00 0.  1.
          6    2    1    2  502    0  0.64684648134E+02 -0.23224804124E+03 -0.19281739831E+04  0.19508052601E+04  0.17222949063E+03 0.  0.
         24    2    3    3    0    0  0.24508276849E+02 -0.20916207356E+03 -0.11851259202E+04  0.12062989697E+04  0.79273759158E+02 0.  0.
         -6    2    1    2    0  501 -0.64684648134E+02  0.23224804124E+03 -0.76474633035E+03  0.82065124064E+03  0.17466611754E+03 0.  0.
        -24    2    5    5    0    0  0.63169270968E+01  0.20742641055E+03 -0.57114498824E+03  0.61289920888E+03  0.79832470119E+02 0.  0.
          5    1    3    3  502    0  0.40176371285E+02 -0.23085967680E+02 -0.74304806284E+03  0.74450629037E+03  0.47000000000E+01 0. -1.
        -11    1    4    4    0    0 -0.78596934765E+01 -0.43745287878E+02 -0.44543098626E+03  0.44764292524E+03  0.00000000000E+00 0.  1.
         12    1    4    4    0    0  0.32367970326E+02 -0.16541678568E+03 -0.73969493398E+03  0.75865604449E+03  0.00000000000E+00 0. -1.
         -5    1    5    5    0  501 -0.71001575231E+02  0.24821630686E+02 -0.19360134210E+03  0.20775203176E+03  0.47000000000E+01 0.  1.
         11    1    6    6    0    0 -0.61070104931E+01  0.20541006754E+03 -0.49890494901E+03  0.53957088466E+03  0.00000000000E+00 0. -1.
        -12    1    6    6    0    0  0.12423937590E+02  0.20163430099E+01 -0.72240039231E+02  0.73328324217E+02  0.00000000000E+00 0.  1.
</event>
<event>
12    1  0.1348628E-002  0.1951403E+03  0.7818608E-02  0.1153905E+00
          2   -1    0    0  502    0  0.00000000000E+00  0.00000000000E+00  0.28256947404E+03  0.28256947404E+03  0.00000000000E+00 0. -1.
         -2   -1    0    0    0  501 -0.00000000000E+00 -0.00000000000E+00 -0.17996821847E+03  0.17996821847E+03  0.00000000000E+00 0.  1.
          6    2    1    2  502    0  0.35708873628E+02 -0.10261402672E+03  0.16846805304E+03  0.26438856638E+03  0.17238058766E+03 0.  0.
         24    2    3    3    0    0  0.51081131500E+02  0.23246643558E+01  0.63368664782E+02  0.11500179786E+03  0.81210465923E+02 0.  0.
         -6    2    1    2    0  501 -0.35708873628E+02  0.10261402672E+03 -0.65866797473E+02  0.19814912613E+03  0.15205222472E+03 0.  0.
        -24    2    5    5    0    0 -0.20570069613E+02 -0.13306209009E+02 -0.18542372952E+02  0.71941457612E+02  0.65050524721E+02 0.  0.
          5    1    3    3  502    0 -0.15372257872E+02 -0.10493869107E+03  0.10509938826E+03  0.14938676852E+03  0.47000000000E+01 0. -1.
        -11    1    4    4    0    0  0.58656921090E+02  0.22320501181E+01  0.78535358484E+02  0.98048044201E+02  0.00000000000E+00 0.  1.
         12    1    4    4    0    0 -0.75757895896E+01  0.92614237629E-01 -0.15166693703E+02  0.16953753660E+02  0.00000000000E+00 0. -1.
         -5    1    5    5    0  501 -0.15138804015E+02  0.11592023573E+03 -0.47324424521E+02  0.12620766852E+03  0.47000000000E+01 0.  1.
         11    1    6    6    0    0  0.77917858194E+01  0.13162268196E+02  0.14430108336E+02  0.21028201466E+02  0.00000000000E+00 0. -1.
        -12    1    6    6    0    0 -0.28361855432E+02 -0.26468477205E+02 -0.32972481287E+02  0.50913256146E+02  0.00000000000E+00 0.  1.
</event>
<event>
12    1  0.1348628E-002  0.2422957E+03  0.7818608E-02  0.1118273E+00
         -1   -1    0    0    0  501 -0.00000000000E+00  0.00000000000E+00  0.14881589423E+03  0.14881589423E+03  0.00000000000E+00 0. -1.
          1   -1    0    0  502    0  0.00000000000E+00 -0.00000000000E+00 -0.41420883930E+03  0.41420883930E+03  0.00000000000E+00 0.  1.
          6    2    1    2  502    0  0.14757664201E+03 -0.91506717124E+02 -0.72487715786E+02  0.25503227888E+03  0.17214717478E+03 0.  0.
         24    2    3    3    0    0  0.67273259443E+02 -0.11932160878E+03 -0.40088841421E+02  0.16396044728E+03  0.80700528543E+02 0.  0.
         -6    2    1    2    0  501 -0.14757664201E+03  0.91506717124E+02 -0.19290522929E+03  0.30799245465E+03  0.16581489706E+03 0.  0.
        -24    2    5    5    0    0 -0.75563212053E+02  0.11554599280E+03 -0.16056392714E+03  0.22533732357E+03  0.77041931605E+02 0.  0.
          5    1    3    3  502    0  0.80303382571E+02  0.27814891661E+02 -0.32398874365E+02  0.91071831598E+02  0.47000000000E+01 0. -1.
        -11    1    4    4    0    0  0.24133875817E+02 -0.68237412254E+02 -0.60195923794E+02  0.94139989560E+02  0.00000000000E+00 0.  1.
         12    1    4    4    0    0  0.43139383626E+02 -0.51084196531E+02  0.20107082372E+02  0.69820457721E+02  0.00000000000E+00 0. -1.
         -5    1    5    5    0  501 -0.72013429961E+02 -0.24039275672E+02 -0.32341302143E+02  0.82655131080E+02  0.47000000000E+01 0.  1.
         11    1    6    6    0    0 -0.28569408867E+02  0.27139838689E+02 -0.41488206853E+01  0.39623158382E+02  0.00000000000E+00 0. -1.
        -12    1    6    6    0    0 -0.46993803186E+02  0.88406154106E+02 -0.15641510646E+03  0.18571416518E+03  0.00000000000E+00 0.  1.
</event>
<event>
12    1  0.1348628E-002  0.2218675E+03  0.7818608E-02  0.1132498E+00
         -3   -1    0    0    0  501 -0.00000000000E+00  0.00000000000E+00  0.16385504950E+03  0.16385504950E+03  0.00000000000E+00 0.  1.
          3   -1    0    0  502    0  0.00000000000E+00 -0.00000000000E+00 -0.31156974085E+03  0.31156974085E+03  0.00000000000E+00 0. -1.
          6    2    1    2  502    0  0.12970423976E+03  0.56321139420E+02 -0.11948078535E+03  0.25397148293E+03  0.17386947838E+03 0.  0.
         24    2    3    3    0    0  0.36719960404E+02  0.36725377813E+02  0.46985790218E+01  0.97534036586E+02  0.82423921166E+02 0.  0.
         -6    2    1    2    0  501 -0.12970423976E+03 -0.56321139420E+02 -0.28233905988E+02  0.22145330742E+03  0.16807484453E+03 0.  0.
        -24    2    5    5    0    0 -0.19459919290E+02 -0.62160237042E+02  0.12665140230E+02  0.10362832180E+03  0.79597988500E+02 0.  0.
          5    1    3    3  502    0  0.92984279357E+02  0.19595761606E+02 -0.12417936438E+03  0.15643744634E+03  0.47000000000E+01 0. -1.
        -11    1    4    4    0    0 -0.24049699780E+02  0.30816512316E+00  0.10921511480E+02  0.26415193322E+02  0.00000000000E+00 0.  1.
         12    1    4    4    0    0  0.60769660183E+02  0.36417212690E+02 -0.62229324578E+01  0.71118843265E+02  0.00000000000E+00 0. -1.
         -5    1    5    5    0  501 -0.11024432047E+03  0.58390976223E+01 -0.40899046218E+02  0.11782498563E+03  0.47000000000E+01 0.  1.
         13    1    6    6    0    0 -0.14375632266E+02 -0.80387899679E+02  0.18679103924E+02  0.83772203870E+02  0.00000000000E+00 0. -1.
        -14    1    6    6    0    0 -0.50842870240E+01  0.18227662637E+02 -0.60139636944E+01  0.19856117925E+02  0.00000000000E+00 0.  1.
</event>
<event>
12    1  0.1348628E-002  0.1745906E+03  0.7818608E-02  0.1173143E+00
         -2   -1    0    0    0  501 -0.00000000000E+00  0.00000000000E+00  0.51516444882E+02  0.51516444882E+02  0.00000000000E+00 0. -1.
          2   -1    0    0  502    0  0.00000000000E+00 -0.00000000000E+00 -0.12575803455E+04  0.12575803455E+04  0.00000000000E+00 0.  1.
          6    2    1    2  502    0 -0.27737712674E+02  0.12917548060E+02 -0.10800051059E+04  0.10940930893E+04  0.17231487351E+03 0.  0.
         24    2    3    3    0    0  0.25708273213E+02  0.53614693715E+02 -0.79032992047E+03  0.79669346910E+03  0.81016355230E+02 0.  0.
         -6    2    1    2    0  501  0.27737712674E+02 -0.12917548060E+02 -0.12605879473E+03  0.21500370105E+03  0.17146290556E+03 0.  0.
        -24    2    5    5    0    0 -0.80042277529E+01 -0.75396921431E+01 -0.12446761431E+02  0.95688187596E+02  0.94235835836E+02 0.  0.
          5    1    3    3  502    0 -0.53445985887E+02 -0.40697145655E+02 -0.28967518542E+03  0.29739962024E+03  0.47000000000E+01 0. -1.
        -13    1    4    4    0    0  0.46455433507E+02  0.24502865885E+02 -0.64083892955E+03  0.64298758259E+03  0.00000000000E+00 0.  1.
         14    1    4    4    0    0 -0.20747160294E+02  0.29111827830E+02 -0.14949099092E+03  0.15370588651E+03  0.00000000000E+00 0. -1.
         -5    1    5    5    0  501  0.35741940427E+02 -0.53778559169E+01 -0.11361203330E+03  0.11931551345E+03  0.47000000000E+01 0.  1.
         13    1    6    6    0    0 -0.32423295555E+02 -0.40313357922E+02 -0.17254491604E+02  0.54535808439E+02  0.00000000000E+00 0. -1.
        -14    1    6    6    0    0  0.24419067802E+02  0.32773665779E+02  0.48077301731E+01  0.41152379157E+02  0.00000000000E+00 0.  1.
</event>
<event>
12    1  0.1348628E-002  0.2177914E+03  0.7818608E-02  0.1135540E+00
         -2   -1    0    0    0  501 -0.00000000000E+00  0.00000000000E+00  0.32329099460E+02  0.32329099460E+02  0.00000000000E+00 0. -1.
          2   -1    0    0  502    0  0.00000000000E+00 -0.00000000000E+00 -0.14802270421E+04  0.14802270421E+04  0.00000000000E+00 0.  1.
          6    2    1    2  502    0 -0.11574668510E+03 -0.53382682729E+02 -0.80083405273E+03  0.83042065598E+03  0.17893093619E+03 0.  0.
         24    2    3    3    0    0 -0.77784647142E+02  0.39980390664E+02 -0.42272743327E+03  0.43908386307E+03  0.80294912671E+02 0.  0.
         -6    2    1    2    0  501  0.11574668510E+03  0.53382682729E+02 -0.64706388990E+03  0.68213548558E+03  0.17427029910E+03 0.  0.
        -24    2    5    5    0    0  0.19058573088E+02 -0.24228118129E+02 -0.34466495297E+03  0.35527277056E+03  0.80464779739E+02 0.  0.
          5    1    3    3  502    0 -0.37962037954E+02 -0.93363073394E+02 -0.37810661946E+03  0.39133679291E+03  0.47000000000E+01 0. -1.
        -11    1    4    4    0    0 -0.60688900126E+02  0.42879757941E+02 -0.41210078684E+03  0.41874679074E+03  0.00000000000E+00 0.  1.
         12    1    4    4    0    0 -0.17095747016E+02 -0.28993672767E+01 -0.10626646428E+02  0.20337072330E+02  0.00000000000E+00 0. -1.
         -5    1    5    5    0  501  0.96688112008E+02  0.77610800859E+02 -0.30239893693E+03  0.32686271502E+03  0.47000000000E+01 0.  1.
         13    1    6    6    0    0  0.17622116942E+02 -0.24248309379E+02 -0.37062927414E+02  0.47667390339E+02  0.00000000000E+00 0. -1.
        -14    1    6    6    0    0  0.14364561460E+01  0.20191249736E-01 -0.30760202556E+03  0.30760538022E+03  0.00000000000E+00 0.  1.
</event>
<event>
12    1  0.1348628E-002  0.2097205E+03  0.7818608E-02  0.1141787E+00
          2   -1    0    0  502    0  0.00000000000E+00  0.00000000000E+00  0.45083323377E+03  0.45083323377E+03  0.00000000000E+00 0.  1.
         -2   -1    0    0    0  501 -0.00000000000E+00 -0.00000000000E+00 -0.14849284448E+03  0.14849284448E+03  0.00000000000E+00 0. -1.
          6    2    1    2  502    0 -0.88241823198E+02 -0.79374647155E+02  0.32667070443E+03  0.38819336045E+03  0.17289702712E+03 0.  0.
         24    2    3    3    0    0  0.22049883665E+02 -0.41577021721E+02  0.12197707251E+03  0.15257822078E+03  0.78656602604E+02 0.  0.
         -6    2    1    2    0  501  0.88241823198E+02  0.79374647155E+02 -0.24330315143E+02  0.21113271781E+03  0.17291068886E+03 0.  0.
        -24    2    5    5    0    0  0.88275124849E+02  0.42696676250E+02  0.41535690678E+02  0.13559666429E+03  0.83938894064E+02 0.  0.
          5    1    3    3  502    0 -0.11029170686E+03 -0.37797625433E+02  0.20469363192E+03  0.23561513967E+03  0.47000000000E+01 0. -1.
        -13    1    4    4    0    0 -0.83278484749E+01  0.19664519761E+02  0.43791259109E+02  0.48720845354E+02  0.00000000000E+00 0.  1.
         14    1    4    4    0    0  0.30377732140E+02 -0.61241541482E+02  0.78185813402E+02  0.10385737543E+03  0.00000000000E+00 0. -1.
         -5    1    5    5    0  501 -0.33301650932E-01  0.36677970905E+02 -0.65866005822E+02  0.75536053521E+02  0.47000000000E+01 0.  1.
         13    1    6    6    0    0  0.96148806511E+02  0.16280197472E+02  0.17606185489E+02  0.99093973533E+02  0.00000000000E+00 0. -1.
        -14    1    6    6    0    0 -0.78736816614E+01  0.26416478778E+02  0.23929505189E+02  0.36502690757E+02  0.00000000000E+00 0.  1.
</event>
<event>
12    1  0.1348628E-002  0.2020646E+03  0.7818608E-02  0.1148009E+00
          2   -1    0    0  502    0  0.00000000000E+00  0.00000000000E+00  0.26212260579E+03  0.26212260579E+03  0.00000000000E+00 0.  1.
         -2   -1    0    0    0  501 -0.00000000000E+00 -0.00000000000E+00 -0.16671961861E+03  0.16671961861E+03  0.00000000000E+00 0. -1.
          6    2    1    2  502    0  0.15759711088E+02 -0.96941517757E+02  0.10140120982E+03  0.22195047333E+03  0.17127107432E+03 0.  0.
         24    2    3    3    0    0 -0.29077902730E+02 -0.51562079611E+02  0.11777812500E+03  0.15592018959E+03  0.83278126252E+02 0.  0.
         -6    2    1    2    0  501 -0.15759711088E+02  0.96941517757E+02 -0.59982226491E+01  0.20689175107E+03  0.18199503187E+03 0.  0.
        -24    2    5    5    0    0 -0.80295709119E+02  0.53703885567E+02 -0.22637648582E+02  0.12730941399E+03  0.79772899720E+02 0.  0.
          5    1    3    3  502    0  0.44837613818E+02 -0.45379438146E+02 -0.16376915180E+02  0.66030283735E+02  0.47000000000E+01 0. -1.
        -13    1    4    4    0    0 -0.10862365873E+02 -0.67656305761E+02  0.52680753962E+02  0.86432797823E+02  0.00000000000E+00 0.  1.
         14    1    4    4    0    0 -0.18215536857E+02  0.16094226150E+02  0.65097371041E+02  0.69487391768E+02  0.00000000000E+00 0. -1.
         -5    1    5    5    0  501  0.64535998031E+02  0.43237632190E+02  0.16639425933E+02  0.79582337077E+02  0.47000000000E+01 0.  1.
         13    1    6    6    0    0  0.17878226476E+01  0.35433421368E+02  0.10382509562E+02  0.36966473520E+02  0.00000000000E+00 0. -1.
        -14    1    6    6    0    0 -0.82083531767E+02  0.18270464199E+02 -0.33020158144E+02  0.90342940472E+02  0.00000000000E+00 0.  1.
</event>
<event>
12    1  0.1348628E-002  0.2007045E+03  0.7818608E-02  0.1149146E+00
          2   -1    0    0  502    0  0.00000000000E+00  0.00000000000E+00  0.17664690021E+03  0.17664690021E+03  0.00000000000E+00 0.  1.
         -2   -1    0    0    0  501 -0.00000000000E+00 -0.00000000000E+00 -0.22809805626E+03  0.22809805626E+03  0.00000000000E+00 0. -1.
          6    2    1    2  502    0 -0.35861101260E+02  0.96935374616E+02 -0.22450734574E+02  0.20193583099E+03  0.17202197220E+03 0.  0.
         24    2    3    3    0    0 -0.46497120590E+02  0.32275337925E+02  0.44312665601E+02  0.10826893793E+03  0.80962157374E+02 0.  0.
         -6    2    1    2    0  501  0.35861101260E+02 -0.96935374616E+02 -0.29000421474E+02  0.20280912549E+03  0.17206984483E+03 0.  0.
        -24    2    5    5    0    0  0.42829343941E+02 -0.59129309786E+02 -0.83398604960E+02  0.13603257788E+03  0.78860046644E+02 0.  0.
          5    1    3    3  502    0  0.10636019330E+02  0.64660036692E+02 -0.66763400175E+02  0.93666893058E+02  0.47000000000E+01 0. -1.
        -11    1    4    4    0    0  0.10535796038E+02 -0.17894069884E+02  0.91161896964E+00  0.20785374288E+02  0.00000000000E+00 0.  1.
         12    1    4    4    0    0 -0.57032916628E+02  0.50169407808E+02  0.43401046631E+02  0.87483563643E+02  0.00000000000E+00 0. -1.
         -5    1    5    5    0  501 -0.69682426804E+01 -0.37806064831E+02  0.54398183486E+02  0.66776547609E+02  0.47000000000E+01 0.  1.
         13    1    6    6    0    0  0.38017285085E+02 -0.72404058591E+02 -0.41272099265E+02  0.91602662862E+02  0.00000000000E+00 0. -1.
        -14    1    6    6    0    0  0.48120588561E+01  0.13274748805E+02 -0.42126505694E+02  0.44429915016E+02  0.00000000000E+00 0.  1.
</event>
<event>
12    1  0.1348628E-002  0.1803661E+03  0.7818608E-02  0.1167449E+00
         -2   -1    0    0    0  501 -0.00000000000E+00  0.00000000000E+00  0.31739384045E+03  0.31739384045E+03  0.00000000000E+00 0.  1.
          2   -1    0    0  502    0  0.00000000000E+00 -0.00000000000E+00 -0.10403739684E+03  0.10403739684E+03  0.00000000000E+00 0. -1.
          6    2    1    2  502    0 -0.49809539554E+02  0.22289555509E+02  0.13240392822E+03  0.22386721380E+03  0.17206950541E+03 0.  0.
         24    2    3    3    0    0  0.16013151755E+02 -0.37336286778E+02  0.71462948318E+02  0.11605366739E+03  0.81921190131E+02 0.  0.
         -6    2    1    2    0  501  0.49809539554E+02 -0.22289555509E+02  0.80952515389E+02  0.19756402349E+03  0.17175686045E+03 0.  0.
        -24    2    5    5    0    0 -0.28726458879E+02 -0.45742165204E+02  0.46991670060E+02  0.10871945715E+03  0.81817774299E+02 0.  0.
          5    1    3    3  502    0 -0.65822691308E+02  0.59625842286E+02  0.60940979904E+02  0.10781354642E+03  0.47000000000E+01 0. -1.
        -11    1    4    4    0    0 -0.82247774461E+01 -0.51550171161E+01  0.74986386018E+02  0.75612031142E+02  0.00000000000E+00 0.  1.
         12    1    4    4    0    0  0.24237929201E+02 -0.32181269662E+02 -0.35234376998E+01  0.40441636245E+02  0.00000000000E+00 0. -1.
         -5    1    5    5    0  501  0.78535998433E+02  0.23452609695E+02  0.33960845329E+02  0.88844566333E+02  0.47000000000E+01 0.  1.
         11    1    6    6    0    0 -0.43734524384E+02 -0.94606881945E-01  0.34425927738E+01  0.43869910173E+02  0.00000000000E+00 0. -1.
        -12    1    6    6    0    0  0.15008065505E+02 -0.45647558322E+02  0.43549077286E+02  0.64849546979E+02  0.00000000000E+00 0.  1.
</event>
<event>
12    1  0.1348628E-002  0.4256331E+03  0.7818608E-02  0.1035248E+00
          2   -1    0    0  502    0  0.00000000000E+00  0.00000000000E+00  0.12541616278E+04  0.12541616278E+04  0.00000000000E+00 0. -1.
         -2   -1    0    0    0  501 -0.00000000000E+00 -0.00000000000E+00 -0.14446847861E+03  0.14446847861E+03  0.00000000000E+00 0.  1.
          6    2    1    2  502    0 -0.26311914358E+03 -0.28923171503E+03  0.56252104432E+03  0.70529115971E+03  0.16768728625E+03 0.  0.
         24    2    3    3    0    0 -0.78025153133E+02 -0.11318075509E+03  0.13301904063E+03  0.20554343638E+03  0.75207919980E+02 0.  0.
         -6    2    1    2    0  501  0.26311914358E+03  0.28923171503E+03  0.54717210490E+03  0.69333894673E+03  0.16862655179E+03 0.  0.
        -24    2    5    5    0    0  0.26158756535E+03  0.27622747539E+03  0.44798995768E+03  0.59318584239E+03  0.80279318180E+02 0.  0.
          5    1    3    3  502    0 -0.18509399044E+03 -0.17605095994E+03  0.42950200370E+03  0.49974772333E+03  0.47000000000E+01 0. -1.
        -11    1    4    4    0    0 -0.21590750577E+01 -0.67260321218E+02  0.67230430853E+02  0.95123831126E+02  0.00000000000E+00 0.  1.
         12    1    4    4    0    0 -0.75866078075E+02 -0.45920433869E+02  0.65788609773E+02  0.11041960526E+03  0.00000000000E+00 0. -1.
         -5    1    5    5    0  501  0.15315782288E+01  0.13004239645E+02  0.99182147223E+02  0.10015310434E+03  0.47000000000E+01 0.  1.
         11    1    6    6    0    0  0.19624940548E+03  0.22206303301E+03  0.39238250313E+03  0.49172131187E+03  0.00000000000E+00 0. -1.
        -12    1    6    6    0    0  0.65338159868E+02  0.54164442376E+02  0.55607454547E+02  0.10146453052E+03  0.00000000000E+00 0.  1.
</event>
<event>
12    1  0.1348628E-002  0.2750261E+03  0.7818608E-02  0.1098437E+00
         -2   -1    0    0    0  501 -0.00000000000E+00  0.00000000000E+00  0.88928593024E+02  0.88928593024E+02  0.00000000000E+00 0.  1.
          2   -1    0    0  502    0  0.00000000000E+00 -0.00000000000E+00 -0.14534788567E+04  0.14534788567E+04  0.00000000000E+00 0. -1.
          6    2    1    2  502    0 -0.20882490715E+03  0.54678314231E+02 -0.18614511901E+03  0.33242263852E+03  0.17104749450E+03 0.  0.
         24    2    3    3    0    0 -0.11514092158E+03  0.92127434243E+02 -0.14971360041E+03  0.22505191956E+03  0.80556243639E+02 0.  0.
         -6    2    1    2    0  501  0.20882490715E+03 -0.54678314231E+02 -0.11784051447E+04  0.12099848112E+04  0.16978515390E+03 0.  0.
        -24    2    5    5    0    0  0.42871940244E+02 -0.20274021606E+02 -0.25284684792E+03  0.26902557019E+03  0.78703174663E+02 0.  0.
          5    1    3    3  502    0 -0.93683985564E+02 -0.37449120012E+02 -0.36431518604E+02  0.10737071895E+03  0.47000000000E+01 0. -1.
        -11    1    4    4    0    0 -0.11345185810E+03  0.86953796228E+02 -0.98600909048E+02  0.17365029815E+03  0.00000000000E+00 0.  1.
         12    1    4    4    0    0 -0.16890634890E+01  0.51736380156E+01 -0.51112691357E+02  0.51401621410E+02  0.00000000000E+00 0. -1.
         -5    1    5    5    0  501  0.16595296690E+03 -0.34404292625E+02 -0.92555829674E+03  0.94095924100E+03  0.47000000000E+01 0.  1.
         13    1    6    6    0    0  0.85782022163E+01 -0.27471286926E+02 -0.21698932294E+03  0.21888952335E+03  0.00000000000E+00 0. -1.
        -14    1    6    6    0    0  0.34293738028E+02  0.71972653194E+01 -0.35857524973E+02  0.50136046845E+02  0.00000000000E+00 0.  1.
</event>
<event>
12    1  0.1348628E-002  0.4791682E+03  0.7818608E-02  0.1019364E+00
         -1   -1    0    0    0  501 -0.00000000000E+00  0.00000000000E+00  0.25435836787E+03  0.25435836787E+03  0.00000000000E+00 0. -1.
          1   -1    0    0  502    0  0.00000000000E+00 -0.00000000000E+00 -0.90285842920E+03  0.90285842920E+03  0.00000000000E+00 0.  1.
          6    2    1    2  502    0  0.40328805717E+03 -0.19306294592E+03 -0.31647996712E+03  0.57486773239E+03  0.17435246491E+03 0.  0.
         24    2    3    3    0    0  0.32595308502E+03 -0.16420978808E+03 -0.17776340724E+03  0.41338220171E+03  0.77940667216E+02 0.  0.
         -6    2    1    2    0  501 -0.40328805717E+03  0.19306294592E+03 -0.33202009421E+03  0.58234906467E+03  0.17023081984E+03 0.  0.
        -24    2    5    5    0    0 -0.23264263788E+03  0.13763902399E+03 -0.12533875732E+03  0.30861390934E+03  0.80409222517E+02 0.  0.
          5    1    3    3  502    0  0.77334972154E+02 -0.28853157833E+02 -0.13871655988E+03  0.16148553068E+03  0.47000000000E+01 0. -1.
        -11    1    4    4    0    0  0.89496043408E+02 -0.75445962353E+02 -0.30283954869E+02  0.12090803507E+03  0.00000000000E+00 0.  1.
         12    1    4    4    0    0  0.23645704161E+03 -0.88763825729E+02 -0.14747945237E+03  0.29247416665E+03  0.00000000000E+00 0. -1.
         -5    1    5    5    0  501 -0.17064541929E+03  0.55423921922E+02 -0.20668133689E+03  0.27373515533E+03  0.47000000000E+01 0.  1.
         13    1    6    6    0    0  0.53675304594E+01 -0.80751398040E+00  0.12361248616E+01  0.55669081845E+01  0.00000000000E+00 0. -1.
        -14    1    6    6    0    0 -0.23801016834E+03  0.13844653797E+03 -0.12657488218E+03  0.30304700116E+03  0.00000000000E+00 0.  1.
</event>
<event>
12    1  0.1348628E-002  0.1903246E+03  0.7818608E-02  0.1158169E+00
         -2   -1    0    0    0  501 -0.00000000000E+00  0.00000000000E+00  0.24844656989E+02  0.24844656989E+02  0.00000000000E+00 0.  1.
          2   -1    0    0  502    0  0.00000000000E+00 -0.00000000000E+00 -0.14649910876E+04  0.14649910876E+04  0.00000000000E+00 0. -1.
          6    2    1    2  502    0  0.59126341262E+02  0.58568134409E+02 -0.76598963008E+03  0.78894580176E+03  0.16961489948E+03 0.  0.
         24    2    3    3    0    0  0.60713968853E+02  0.96553424360E+02 -0.49146976180E+03  0.51176598486E+03  0.85750491139E+02 0.  0.
         -6    2    1    2    0  501 -0.59126341262E+02 -0.58568134409E+02 -0.67415680052E+03  0.70088994282E+03  0.17272281163E+03 0.  0.
        -24    2    5    5    0    0 -0.58866498193E+02 -0.83444512742E+02 -0.31218018674E+03  0.33802900439E+03  0.79867937848E+02 0.  0.
          5    1    3    3  502    0 -0.15876275913E+01 -0.37985289951E+02 -0.27451986828E+03  0.27717981689E+03  0.47000000000E+01 0. -1.
        -11    1    4    4    0    0  0.32184253842E+02 -0.62278763004E+01 -0.74961159237E+02  0.81815573290E+02  0.00000000000E+00 0.  1.
         12    1    4    4    0    0  0.28529715011E+02  0.10278130066E+03 -0.41650860256E+03  0.42995041157E+03  0.00000000000E+00 0. -1.
         -5    1    5    5    0  501 -0.25984306881E+00  0.24876378333E+02 -0.36197661378E+03  0.36286093843E+03  0.47000000000E+01 0.  1.
         11    1    6    6    0    0  0.91055858851E+01 -0.47533725017E+02 -0.16540503131E+03  0.17234033506E+03  0.00000000000E+00 0. -1.
        -12    1    6    6    0    0 -0.67972084078E+02 -0.35910787724E+02 -0.14677515544E+03  0.16568866932E+03  0.00000000000E+00 0.  1.
</event>
<event>
12    1  0.1348628E-002  0.2351228E+03  0.7818608E-02  0.1123085E+00
          2   -1    0    0  502    0  0.00000000000E+00  0.00000000000E+00  0.42240862567E+03  0.42240862567E+03  0.00000000000E+00 0. -1.
         -2   -1    0    0    0  501 -0.00000000000E+00 -0.00000000000E+00 -0.30972510317E+03  0.30972510317E+03  0.00000000000E+00 0.  1.
          6    2    1    2  502    0 -0.15891446513E+03 -0.21539603282E+01 -0.22174024827E+03  0.32383710478E+03  0.17448004458E+03 0.  0.
         24    2    3    3    0    0 -0.58940950968E+01  0.14774633701E+01 -0.78283306018E+02  0.11400287220E+03  0.82652620123E+02 0.  0.
         -6    2    1    2    0  501  0.15891446513E+03  0.21539603282E+01  0.33442377077E+03  0.40829662406E+03  0.17207099694E+03 0.  0.
        -24    2    5    5    0    0  0.74711163972E+02 -0.23040285779E+02  0.76036675551E+02  0.13532972691E+03  0.80124566556E+02 0.  0.
          5    1    3    3  502    0 -0.15302037003E+03 -0.36314236982E+01 -0.14345694225E+03  0.20983423258E+03  0.47000000000E+01 0. -1.
        -13    1    4    4    0    0 -0.36665103523E+02  0.11403374624E+02 -0.71214931822E+02  0.80906942122E+02  0.00000000000E+00 0.  1.
         14    1    4    4    0    0  0.30771008426E+02 -0.99259112541E+01 -0.70683741962E+01  0.33095930076E+02  0.00000000000E+00 0. -1.
         -5    1    5    5    0  501  0.84203301158E+02  0.25194246108E+02  0.25838709522E+03  0.27296689715E+03  0.47000000000E+01 0.  1.
         13    1    6    6    0    0  0.11471013334E+02 -0.40027974105E+02  0.49475785207E+02  0.64665881110E+02  0.00000000000E+00 0. -1.
        -14    1    6    6    0    0  0.63240150638E+02  0.16987688326E+02  0.26560890344E+02  0.70663845800E+02  0.00000000000E+00 0.  1.
</event>
<event>
12    1  0.1348628E-002  0.1825425E+03  0.7818608E-02  0.1165365E+00
         -1   -1    0    0    0  501 -0.00000000000E+00  0.00000000000E+00  0.75099253892E+02  0.75099253892E+02  0.00000000000E+00 0.  1.
          1   -1    0    0  502    0  0.00000000000E+00 -0.00000000000E+00 -0.44377727519E+03  0.44377727519E+03  0.00000000000E+00 0. -1.
          6    2    1    2  502    0 -0.60586150110E+02  0.14533008153E+02 -0.18822582391E+03  0.26266646288E+03  0.17228702802E+03 0.  0.
         24    2    3    3    0    0 -0.27978951698E+02 -0.41156581937E+02 -0.45276507467E+02  0.10575516021E+03  0.81593540235E+02 0.  0.
         -6    2    1    2    0  501  0.60586150110E+02 -0.14533008153E+02 -0.18045219738E+03  0.25621006620E+03  0.17087630781E+03 0.  0.
        -24    2    5    5    0    0  0.10645215546E+03 -0.68571561495E+01 -0.11451209483E+03  0.17538435077E+03  0.79167977370E+02 0.  0.
          5    1    3    3  502    0 -0.32607198413E+02  0.55689590091E+02 -0.14294931644E+03  0.15691130267E+03  0.47000000000E+01 0. -1.
        -11    1    4    4    0    0 -0.26436524096E+02  0.20772510955E+02 -0.16357114019E+02  0.37389065203E+02  0.00000000000E+00 0.  1.
         12    1    4    4    0    0 -0.15424276014E+01 -0.61929092893E+02 -0.28919393447E+02  0.68366095009E+02  0.00000000000E+00 0. -1.
         -5    1    5    5    0  501 -0.45866005345E+02 -0.76758520036E+01 -0.65940102551E+02  0.80825715430E+02  0.47000000000E+01 0.  1.
         13    1    6    6    0    0  0.10010557009E+03 -0.25813034056E+02 -0.11594795826E+03  0.15534274014E+03  0.00000000000E+00 0. -1.
        -14    1    6    6    0    0  0.63465853701E+01  0.18955877907E+02  0.14358634235E+01  0.20041610635E+02  0.00000000000E+00 0.  1.
</event>
<event>
12    1  0.1348628E-002  0.1748926E+03  0.7818608E-02  0.1172840E+00
         -2   -1    0    0    0  501 -0.00000000000E+00  0.00000000000E+00  0.42545995244E+03  0.42545995244E+03  0.00000000000E+00 0. -1.
          2   -1    0    0  502    0  0.00000000000E+00 -0.00000000000E+00 -0.88859452443E+02  0.88859452443E+02  0.00000000000E+00 0.  1.
          6    2    1    2  502    0  0.14878476073E+02 -0.28555226867E+02  0.28094255833E+03  0.33111785602E+03  0.17226010410E+03 0.  0.
         24    2    3    3    0    0 -0.96263468515E+01 -0.30627886570E+02  0.51482571828E+02  0.10029593837E+03  0.79862920441E+02 0.  0.
         -6    2    1    2    0  501 -0.14878476073E+02  0.28555226867E+02  0.55657941666E+02  0.18320154886E+03  0.17154658552E+03 0.  0.
        -24    2    5    5    0    0 -0.14644955734E+02 -0.43527775682E+02  0.62785399609E+02  0.11061432929E+03  0.78640838345E+02 0.  0.
          5    1    3    3  502    0  0.24504822925E+02  0.20726597033E+01  0.22945998650E+03  0.23082191765E+03  0.47000000000E+01 0. -1.
        -11    1    4    4    0    0 -0.39945846343E+02  0.36280250003E+01  0.27617307928E+02  0.48698551341E+02  0.00000000000E+00 0.  1.
         12    1    4    4    0    0  0.30319499491E+02 -0.34255911570E+02  0.23865263900E+02  0.51597387026E+02  0.00000000000E+00 0. -1.
         -5    1    5    5    0  501 -0.23352033970E+00  0.72083002549E+02 -0.71274579433E+01  0.72587219570E+02  0.47000000000E+01 0.  1.
         11    1    6    6    0    0 -0.42773511738E+01 -0.34622955033E+02  0.80795694474E+02  0.88005619104E+02  0.00000000000E+00 0. -1.
        -12    1    6    6    0    0 -0.10367604560E+02 -0.89048206495E+01 -0.18010294865E+02  0.22608710185E+02  0.00000000000E+00 0.  1.
</event>
<event>
12    1  0.1348628E-002  0.1757040E+03  0.7818608E-02  0.1172027E+00
          1   -1    0    0  502    0  0.00000000000E+00  0.00000000000E+00  0.23761621536E+03  0.23761621536E+03  0.00000000000E+00 0.  1.
         -1   -1    0    0    0  501 -0.00000000000E+00 -0.00000000000E+00 -0.13168407936E+03  0.13168407936E+03  0.00000000000E+00 0. -1.
          6    2    1    2  502    0  0.24328196453E+02  0.78188105499E+01  0.73706810896E+02  0.18890787963E+03  0.17204795283E+03 0.  0.
         24    2    3    3    0    0  0.25056339989E+02  0.54658981430E+02  0.93960220318E+02  0.13765534413E+03  0.80653867496E+02 0.  0.
         -6    2    1    2    0  501 -0.24328196453E+02 -0.78188105499E+01  0.32225325108E+02  0.18039241510E+03  0.17564155803E+03 0.  0.
        -24    2    5    5    0    0 -0.59091632492E+02 -0.50264818459E+02  0.52010780783E+02  0.12187990081E+03  0.78302081054E+02 0.  0.
          5    1    3    3  502    0 -0.72814353535E+00 -0.46840170881E+02 -0.20253409422E+02  0.51252535492E+02  0.47000000000E+01 0. -1.
        -13    1    4    4    0    0  0.36764068535E+02 -0.29750242877E+01  0.57958975196E+02  0.68700002260E+02  0.00000000000E+00 0.  1.
         14    1    4    4    0    0 -0.11707728546E+02  0.57634005718E+02  0.36001245122E+02  0.68955341875E+02  0.00000000000E+00 0. -1.
         -5    1    5    5    0  501  0.34763436038E+02  0.42446007909E+02 -0.19785455675E+02  0.58512514293E+02  0.47000000000E+01 0.  1.
         13    1    6    6    0    0  0.10324798945E+02 -0.38447230131E+02  0.18972746234E+02  0.44099388631E+02  0.00000000000E+00 0. -1.
        -14    1    6    6    0    0 -0.69416431436E+02 -0.11817588329E+02  0.33038034549E+02  0.77780512175E+02  0.00000000000E+00 0.  1.
</event>
<event>
12    1  0.1348628E-002  0.3009390E+03  0.7818608E-02  0.1084772E+00
          2   -1    0    0  502    0  0.00000000000E+00  0.00000000000E+00  0.11942151174E+04  0.11942151174E+04  0.00000000000E+00 0.  1.
         -2   -1    0    0    0  501 -0.00000000000E+00 -0.00000000000E+00 -0.78888180864E+02  0.78888180864E+02  0.00000000000E+00 0. -1.
          6    2    1    2  502    0 -0.21430166731E+03 -0.12102982524E+03  0.42935780954E+03  0.52331124511E+03  0.17009734694E+03 0.  0.
         24    2    3    3    0    0 -0.18940494827E+03 -0.86238025105E+02  0.42376434200E+03  0.47990971455E+03  0.86173575787E+02 0.  0.
         -6    2    1    2    0  501  0.21430166731E+03  0.12102982524E+03  0.68596912697E+03  0.74979205312E+03  0.17624147232E+03 0.  0.
        -24    2    5    5    0    0  0.86187337693E+02 -0.10847914592E+02  0.25083829701E+03  0.27738761951E+03  0.80486680778E+02 0.  0.
          5    1    3    3  502    0 -0.24896719042E+02 -0.34791800137E+02  0.55934675377E+01  0.43401530560E+02  0.47000000000E+01 0. -1.
        -13    1    4    4    0    0 -0.32252938341E+02  0.55341878211E+01  0.13237309231E+03  0.13635803912E+03  0.00000000000E+00 0.  1.
         14    1    4    4    0    0 -0.15715200993E+03 -0.91772212926E+02  0.29139124969E+03  0.34355167542E+03  0.00000000000E+00 0. -1.
         -5    1    5    5    0  501  0.12811432962E+03  0.13187773983E+03  0.43513082996E+03  0.47240443361E+03  0.47000000000E+01 0.  1.
         13    1    6    6    0    0  0.91715242933E+02  0.12264300649E+02  0.17563431510E+03  0.19851829008E+03  0.00000000000E+00 0. -1.
        -14    1    6    6    0    0 -0.55279052405E+01 -0.23112215241E+02  0.75203981905E+02  0.78869329426E+02  0.00000000000E+00 0.  1.
</event>
<event>
12    1  0.1348628E-002  0.1977967E+03  0.7818608E-02  0.1151611E+00
         -2   -1    0    0    0  501 -0.00000000000E+00  0.00000000000E+00  0.40684006654E+02  0.40684006654E+02  0.00000000000E+00 0.  1.
          2   -1    0    0  502    0  0.00000000000E+00 -0.00000000000E+00 -0.21744874220E+04  0.21744874220E+04  0.00000000000E+00 0. -1.
          6    2    1    2  502    0  0.82071577852E+02  0.55198841539E+02 -0.18936269768E+04  0.19039093940E+04  0.17107073834E+03 0.  0.
         24    2    3    3    0    0  0.11893450824E+03  0.35208174259E+02 -0.11955902138E+04  0.12045983653E+04  0.78969801877E+02 0.  0.
         -6    2    1    2    0  501 -0.82071577852E+02 -0.55198841539E+02 -0.24017643856E+03  0.31126203461E+03  0.17151290492E+03 0.  0.
        -24    2    5    5    0    0  0.11669893720E+02  0.13846594015E+02 -0.10154889925E+03  0.13016973682E+03  0.79398154012E+02 0.  0.
          5    1    3    3  502    0 -0.36862930392E+02  0.19990667279E+02 -0.69803676295E+03  0.69931102869E+03  0.47000000000E+01 0. -1.
        -13    1    4    4    0    0 -0.69219719829E+01  0.14080356623E+02 -0.66840792039E+02  0.68657567821E+02  0.00000000000E+00 0.  1.
         14    1    4    4    0    0  0.12585648023E+03  0.21127817637E+02 -0.11287494218E+04  0.11359407975E+04  0.00000000000E+00 0. -1.
         -5    1    5    5    0  501 -0.93741471571E+02 -0.69045435554E+02 -0.13862753931E+03  0.18109229779E+03  0.47000000000E+01 0.  1.
         13    1    6    6    0    0  0.35796759410E+02 -0.10618768799E+02 -0.21567565100E+02  0.43119903750E+02  0.00000000000E+00 0. -1.
        -14    1    6    6    0    0 -0.24126865690E+02  0.24465362814E+02 -0.79981334152E+02  0.87049833075E+02  0.00000000000E+00 0.  1.
</event>
<event>
12    1  0.1348628E-002  0.2039716E+03  0.7818608E-02  0.1146431E+00
          2   -1    0    0  502    0  0.00000000000E+00  0.00000000000E+00  0.12751676663E+04  0.12751676663E+04  0.00000000000E+00 0.  1.
         -2   -1    0    0    0  501 -0.00000000000E+00 -0.00000000000E+00 -0.34650227187E+02  0.34650227187E+02  0.00000000000E+00 0. -1.
          6    2    1    2  502    0  0.99200014188E+02  0.61980036818E+02  0.45196949209E+03  0.49438634773E+03  0.16266306052E+03 0.  0.
         24    2    3    3    0    0  0.54523980392E+02  0.55507294945E+02  0.42946516271E+03  0.44372690415E+03  0.79995720212E+02 0.  0.
         -6    2    1    2    0  501 -0.99200014188E+02 -0.61980036818E+02  0.78854794700E+03  0.81543154574E+03  0.17157672712E+03 0.  0.
        -24    2    5    5    0    0 -0.11776117533E+03 -0.20875026915E+02  0.41353587919E+03  0.43768787664E+03  0.79090409119E+02 0.  0.
          5    1    3    3  502    0  0.44676033797E+02  0.64727418726E+01  0.22504329385E+02  0.50659443584E+02  0.47000000000E+01 0. -1.
        -13    1    4    4    0    0 -0.19189113641E+01  0.48321542165E+02  0.27271302837E+03  0.27696759649E+03  0.00000000000E+00 0.  1.
         14    1    4    4    0    0  0.56442891756E+02  0.71857527800E+01  0.15675213434E+03  0.16675930766E+03  0.00000000000E+00 0. -1.
         -5    1    5    5    0  501  0.18561161143E+02 -0.41105009903E+02  0.37501206781E+03  0.37774366910E+03  0.47000000000E+01 0.  1.
         13    1    6    6    0    0 -0.40513579862E+02  0.24123441436E+02  0.84958807154E+02  0.97166298133E+02  0.00000000000E+00 0. -1.
        -14    1    6    6    0    0 -0.77247595469E+02 -0.44998468351E+02  0.32857707203E+03  0.34052157850E+03  0.00000000000E+00 0.  1.
</event>
<event>
12    1  0.1348628E-002  0.2242986E+03  0.7818608E-02  0.1130718E+00
          1   -1    0    0  502    0  0.00000000000E+00  0.00000000000E+00  0.41281339574E+03  0.41281339574E+03  0.00000000000E+00 0. -1.
         -1   -1    0    0    0  501 -0.00000000000E+00 -0.00000000000E+00 -0.13905901020E+03  0.13905901020E+03  0.00000000000E+00 0.  1.
          6    2    1    2  502    0  0.59413646237E+02 -0.12993412109E+03  0.39564501435E+02  0.22720379166E+03  0.17217246001E+03 0.  0.
         24    2    3    3    0    0  0.56496147215E+02 -0.27861632621E+02 -0.27996641286E+02  0.10467256009E+03  0.78768316543E+02 0.  0.
         -6    2    1    2    0  501 -0.59413646237E+02  0.12993412109E+03  0.23418988410E+03  0.32466861429E+03  0.17364316890E+03 0.  0.
        -24    2    5    5    0    0 -0.10180684713E+03  0.99739856059E+02  0.21291638411E+03  0.26824584473E+03  0.79434083246E+02 0.  0.
          5    1    3    3  502    0  0.29174990217E+01 -0.10207248847E+03  0.67561142721E+02  0.12253123156E+03  0.47000000000E+01 0. -1.
        -13    1    4    4    0    0  0.31943277222E+02 -0.52787261216E+02 -0.31916581989E+02  0.69466078860E+02  0.00000000000E+00 0.  1.
         14    1    4    4    0    0  0.24552869994E+02  0.24925628596E+02  0.39199407026E+01  0.35206481235E+02  0.00000000000E+00 0. -1.
         -5    1    5    5    0  501  0.42393200894E+02  0.30194265029E+02  0.21273499989E+02  0.56422769557E+02  0.47000000000E+01 0.  1.
         13    1    6    6    0    0 -0.40848030936E+02  0.90463263035E+02  0.10907484887E+03  0.14747707024E+03  0.00000000000E+00 0. -1.
        -14    1    6    6    0    0 -0.60958816195E+02  0.92765930238E+01  0.10384153525E+03  0.12076877449E+03  0.00000000000E+00 0.  1.
</event>
<event>
12    1  0.1348628E-002  0.1759834E+03  0.7818608E-02  0.1171748E+00
          3   -1    0    0  502    0  0.00000000000E+00  0.00000000000E+00  0.60624883766E+03  0.60624883766E+03  0.00000000000E+00 0.  1.
         -3   -1    0    0    0  501 -0.00000000000E+00 -0.00000000000E+00 -0.11194069257E+03  0.11194069257E+03  0.00000000000E+00 0. -1.
          6    2    1    2  502    0 -0.12336165342E+01 -0.40653820963E+02 -0.18139999343E+02  0.17609603218E+03  0.17037164672E+03 0.  0.
         24    2    3    3    0    0 -0.39902803294E+02 -0.78972445040E+02 -0.19565013398E+02  0.12143577586E+03  0.80839205363E+02 0.  0.
         -6    2    1    2    0  501  0.12336165342E+01  0.40653820963E+02  0.51244814443E+03  0.54209349805E+03  0.17206976762E+03 0.  0.
        -24    2    5    5    0    0  0.40597272578E+02  0.60990404883E+02  0.21042334229E+03  0.23679995870E+03  0.80176489259E+02 0.  0.
          5    1    3    3  502    0  0.38669186759E+02  0.38318624077E+02  0.14250140542E+01  0.54660256319E+02  0.47000000000E+01 0. -1.
        -13    1    4    4    0    0 -0.37086841937E+02  0.34364810116E+01 -0.33165092046E+01  0.37393080642E+02  0.00000000000E+00 0.  1.
         14    1    4    4    0    0 -0.28159613563E+01 -0.82408926051E+02 -0.16248504193E+02  0.84042695220E+02  0.00000000000E+00 0. -1.
         -5    1    5    5    0  501 -0.39363656044E+02 -0.20336583920E+02  0.30202480214E+03  0.30529353935E+03  0.47000000000E+01 0.  1.
         13    1    6    6    0    0  0.37013464600E+01  0.69850249707E+02  0.12302546905E+03  0.14152039918E+03  0.00000000000E+00 0. -1.
        -14    1    6    6    0    0  0.36895926118E+02 -0.88598448245E+01  0.87397873243E+02  0.95279559517E+02  0.00000000000E+00 0.  1.
</event>
<event>
12    1  0.1348628E-002  0.1883452E+03  0.7818608E-02  0.1159962E+00
          2   -1    0    0  502    0  0.00000000000E+00  0.00000000000E+00  0.64600813242E+03  0.64600813242E+03  0.00000000000E+00 0. -1.
         -2   -1    0    0    0  501 -0.00000000000E+00 -0.00000000000E+00 -0.66152288643E+02  0.66152288643E+02  0.00000000000E+00 0.  1.
          6    2    1    2  502    0 -0.93267321246E+01  0.71349775916E+02  0.43862788381E+03  0.47796276841E+03  0.17571627437E+03 0.  0.
         24    2    3    3    0    0 -0.18911038167E+02  0.11091921314E+03  0.25165067790E+03  0.28654656007E+03  0.78231503853E+02 0.  0.
         -6    2    1    2    0  501  0.93267321246E+01 -0.71349775916E+02  0.14122795996E+03  0.23419765265E+03  0.17241063011E+03 0.  0.
        -24    2    5    5    0    0  0.34816972903E+02 -0.10915459930E+03  0.86523131869E+02  0.16282773417E+03  0.76809312693E+02 0.  0.
          5    1    3    3  502    0  0.95843060420E+01 -0.39569437228E+02  0.18697720591E+03  0.19141620834E+03  0.47000000000E+01 0. -1.
        -11    1    4    4    0    0 -0.17087222572E+02 -0.23700281804E+01  0.10738083333E+02  0.20319858328E+02  0.00000000000E+00 0.  1.
         12    1    4    4    0    0 -0.18238155950E+01  0.11328924132E+03  0.24091259456E+03  0.26622670175E+03  0.00000000000E+00 0. -1.
         -5    1    5    5    0  501 -0.25490240779E+02  0.37804823384E+02  0.54704828095E+02  0.71369918474E+02  0.47000000000E+01 0.  1.
         13    1    6    6    0    0 -0.21483173970E+02 -0.40507977085E+02  0.13287868886E+02  0.47738772825E+02  0.00000000000E+00 0. -1.
        -14    1    6    6    0    0  0.56300146873E+02 -0.68646622216E+02  0.73235262984E+02  0.11508896135E+03  0.00000000000E+00 0.  1.
</event>
<event>
12    1  0.1348628E-002  0.1967591E+03  0.7818608E-02  0.1152503E+00
         -1   -1    0    0    0  501 -0.00000000000E+00  0.00000000000E+00  0.47066747309E+02  0.47066747309E+02  0.00000000000E+00 0.  1.
          1   -1    0    0  502    0  0.00000000000E+00 -0.00000000000E+00 -0.88651510434E+03  0.88651510434E+03  0.00000000000E+00 0. -1.
          6    2    1    2  502    0 -0.55028029362E+02 -0.78206048300E+02 -0.54698008238E+03  0.58161523545E+03  0.17304566327E+03 0.  0.
         24    2    3    3    0    0 -0.41920065952E+01 -0.76269485207E+02 -0.18527232112E+03  0.21631721185E+03  0.81441364653E+02 0.  0.
         -6    2    1    2    0  501  0.55028029362E+02  0.78206048300E+02 -0.29246827465E+03  0.35196661620E+03  0.17087579477E+03 0.  0.
        -24    2    5    5    0    0 -0.34863392656E+02  0.41642417787E+02 -0.12025847404E+03  0.15424036035E+03  0.79865143050E+02 0.  0.
          5    1    3    3  502    0 -0.50836022766E+02 -0.19365630925E+01 -0.36170776126E+03  0.36529802360E+03  0.47000000000E+01 0. -1.
        -13    1    4    4    0    0 -0.39480347456E+02 -0.54623541727E+02 -0.13731341756E+03  0.15296209919E+03  0.00000000000E+00 0.  1.
         14    1    4    4    0    0  0.35288340860E+02 -0.21645943481E+02 -0.47958903561E+02  0.63355112663E+02  0.00000000000E+00 0. -1.
         -5    1    5    5    0  501  0.89891422018E+02  0.36563630513E+02 -0.17220980061E+03  0.19772625586E+03  0.47000000000E+01 0.  1.
         13    1    6    6    0    0  0.84283025986E+01  0.39892162112E+02 -0.96651127596E+02  0.10489929146E+03  0.00000000000E+00 0. -1.
        -14    1    6    6    0    0 -0.43291695255E+02  0.17502556753E+01 -0.23607346446E+02  0.49341068890E+02  0.00000000000E+00 0.  1.
</event>
<event>
12    1  0.1348628E-002  0.1891562E+03  0.7818608E-02  0.1159225E+00
         -1   -1    0    0    0  501 -0.00000000000E+00  0.00000000000E+00  0.32435166943E+03  0.32435166943E+03  0.00000000000E+00 0. -1.
          1   -1    0    0  502    0  0.00000000000E+00 -0.00000000000E+00 -0.11433685956E+03  0.11433685956E+03  0.00000000000E+00 0.  1.
          6    2    1    2  502    0  0.26268216793E+02  0.74075977483E+02  0.63730321279E+02  0.19937854841E+03  0.17179342846E+03 0.  0.
         24    2    3    3    0    0 -0.16807144483E+02  0.10672452783E+03  0.51573040681E+02  0.14377905147E+03  0.79624318969E+02 0.  0.
         -6    2    1    2    0  501 -0.26268216793E+02 -0.74075977483E+02  0.14628448859E+03  0.23930998058E+03  0.17231612098E+03 0.  0.
        -24    2    5    5    0    0 -0.16159198722E+02 -0.11488958255E+03  0.83825780217E+02  0.16387044945E+03  0.79787385551E+02 0.  0.
          5    1    3    3  502    0  0.43075361276E+02 -0.32648550343E+02  0.12157280599E+02  0.55599496941E+02  0.47000000000E+01 0. -1.
        -13    1    4    4    0    0  0.15165683073E+02  0.13787299369E+02 -0.14714533072E+02  0.25231033481E+02  0.00000000000E+00 0.  1.
         14    1    4    4    0    0 -0.31972827556E+02  0.92937228456E+02  0.66287573753E+02  0.11854801799E+03  0.00000000000E+00 0. -1.
         -5    1    5    5    0  501 -0.10109018071E+02  0.40813605065E+02  0.62458708376E+02  0.75439531128E+02  0.47000000000E+01 0.  1.
         11    1    6    6    0    0 -0.41621740154E+02 -0.47380610692E+02  0.62126582252E+02  0.88526853244E+02  0.00000000000E+00 0. -1.
        -12    1    6    6    0    0  0.25462541432E+02 -0.67508971856E+02  0.21699197966E+02  0.75343596208E+02  0.00000000000E+00 0.  1.
</event>
<event>
12    1  0.1348628E-002  0.2077270E+03  0.7818608E-02  0.1143379E+00
          2   -1    0    0  502    0  0.00000000000E+00  0.00000000000E+00  0.22805320059E+03  0.22805320059E+03  0.00000000000E+00 0.  1.
         -2   -1    0    0    0  501 -0.00000000000E+00 -0.00000000000E+00 -0.20057799716E+03  0.20057799716E+03  0.00000000000E+00 0. -1.
          6    2    1    2  502    0  0.11574524460E+03  0.68633631640E+01 -0.37218688625E+02  0.21186586526E+03  0.17337198930E+03 0.  0.
         24    2    3    3    0    0  0.21439804614E+01 -0.35035431804E+02 -0.30380529869E+02  0.90500274376E+02  0.77686838867E+02 0.  0.
         -6    2    1    2    0  501 -0.11574524460E+03 -0.68633631640E+01  0.64693892062E+02  0.21676533250E+03  0.17134130354E+03 0.  0.
        -24    2    5    5    0    0 -0.32936733263E+01 -0.40044624931E+02  0.34763057396E+02  0.95669102666E+02  0.79559328653E+02 0.  0.
          5    1    3    3  502    0  0.11360126414E+03  0.41898794968E+02 -0.68381587562E+01  0.12136559088E+03  0.47000000000E+01 0. -1.
        -13    1    4    4    0    0 -0.16751796701E+02 -0.65569905801E+01  0.21712446880E+02  0.28196580780E+02  0.00000000000E+00 0.  1.
         14    1    4    4    0    0  0.18895777162E+02 -0.28478441224E+02 -0.52092976749E+02  0.62303693596E+02  0.00000000000E+00 0. -1.
         -5    1    5    5    0  501 -0.11245157128E+03  0.33181261767E+02  0.29930834666E+02  0.12109622983E+03  0.47000000000E+01 0.  1.
         11    1    6    6    0    0 -0.68564107527E+01  0.10196880284E+02 -0.18598416082E+02  0.22290980613E+02  0.00000000000E+00 0. -1.
        -12    1    6    6    0    0  0.35627374265E+01 -0.50241505216E+02  0.53361473478E+02  0.73378122053E+02  0.00000000000E+00 0.  1.
</event>
<event>
12    1  0.1348628E-002  0.2279181E+03  0.7818608E-02  0.1128114E+00
          1   -1    0    0  502    0  0.00000000000E+00  0.00000000000E+00  0.52346459294E+03  0.52346459294E+03  0.00000000000E+00 0. -1.
         -1   -1    0    0    0  501 -0.00000000000E+00 -0.00000000000E+00 -0.10994289642E+03  0.10994289642E+03  0.00000000000E+00 0.  1.
          6    2    1    2  502    0 -0.18162676129E+02 -0.14245549703E+03  0.30624454275E+03  0.38223028480E+03  0.17801915409E+03 0.  0.
         24    2    3    3    0    0 -0.39262637033E+02 -0.11306006168E+03  0.10874702366E+03  0.18139039829E+03  0.82173166077E+02 0.  0.
         -6    2    1    2    0  501  0.18162676129E+02  0.14245549703E+03  0.10727715377E+03  0.25117720456E+03  0.17594927943E+03 0.  0.
        -24    2    5    5    0    0  0.45111847364E+02  0.33180987413E+02  0.20370906547E+01  0.97019048217E+02  0.79199048481E+02 0.  0.
          5    1    3    3  502    0  0.21099960905E+02 -0.29395435348E+02  0.19749751909E+03  0.20083988652E+03  0.47000000000E+01 0. -1.
        -13    1    4    4    0    0 -0.42560062916E+01 -0.10299513791E+03  0.10066078270E+03  0.14407881591E+03  0.00000000000E+00 0.  1.
         14    1    4    4    0    0 -0.35006630742E+02 -0.10064923772E+02  0.80862409613E+01  0.37311582375E+02  0.00000000000E+00 0. -1.
         -5    1    5    5    0  501 -0.26949171236E+02  0.10927450961E+03  0.10524006311E+03  0.15415815634E+03  0.47000000000E+01 0.  1.
         13    1    6    6    0    0  0.49005827490E+02  0.60584792522E+01  0.30073953858E+02  0.57816252036E+02  0.00000000000E+00 0. -1.
        -14    1    6    6    0    0 -0.38939801255E+01  0.27122508161E+02 -0.28036863203E+02  0.39202796181E+02  0.00000000000E+00 0.  1.
</event>
<event>
12    1  0.1348628E-002  0.2740844E+03  0.7818608E-02  0.1098964E+00
         -1   -1    0    0    0  501 -0.00000000000E+00  0.00000000000E+00  0.64195993198E+02  0.64195993198E+02  0.00000000000E+00 0.  1.
          1   -1    0    0  502    0  0.00000000000E+00 -0.00000000000E+00 -0.14411604779E+04  0.14411604779E+04  0.00000000000E+00 0. -1.
          6    2    1    2  502    0  0.21497236553E+03 -0.39516247881E+01 -0.35977480103E+03  0.45158554659E+03  0.16811563032E+03 0.  0.
         24    2    3    3    0    0  0.12881983653E+03 -0.61658034478E+02 -0.26507465032E+03  0.31107755210E+03  0.78156315666E+02 0.  0.
         -6    2    1    2    0  501 -0.21497236553E+03  0.39516247881E+01 -0.10171896837E+04  0.10537709245E+04  0.17184171636E+03 0.  0.
        -24    2    5    5    0    0 -0.19418688848E+03  0.18536332678E+02 -0.60127879754E+03  0.63705914765E+03  0.79095018519E+02 0.  0.
          5    1    3    3  502    0  0.86152529004E+02  0.57706409690E+02 -0.94700150706E+02  0.14050799449E+03  0.47000000000E+01 0. -1.
        -13    1    4    4    0    0  0.54471645937E+01 -0.24900989735E+02 -0.14389415170E+02  0.29270909805E+02  0.00000000000E+00 0.  1.
         14    1    4    4    0    0  0.12337267193E+03 -0.36757044743E+02 -0.25068523515E+03  0.28180664229E+03  0.00000000000E+00 0. -1.
         -5    1    5    5    0  501 -0.20785477054E+02 -0.14584707890E+02 -0.41591088615E+03  0.41671177687E+03  0.47000000000E+01 0.  1.
         13    1    6    6    0    0 -0.78065917565E+02 -0.30697280749E+02 -0.21930684469E+03  0.23480226289E+03  0.00000000000E+00 0. -1.
        -14    1    6    6    0    0 -0.11612097091E+03  0.49233613427E+02 -0.38197195284E+03  0.40225688476E+03  0.00000000000E+00 0.  1.
</event>
<event>
12    1  0.1348628E-002  0.2379809E+03  0.7818608E-02  0.1121145E+00
          2   -1    0    0  502    0  0.00000000000E+00  0.00000000000E+00  0.16656865078E+04  0.16656865078E+04  0.00000000000E+00 0.  1.
         -2   -1    0    0    0  501 -0.00000000000E+00 -0.00000000000E+00 -0.53799906063E+02  0.53799906063E+02  0.00000000000E+00 0. -1.
          6    2    1    2  502    0  0.72843656683E+02  0.14728739843E+03  0.28330470391E+03  0.36966898041E+03  0.17144627080E+03 0.  0.
         24    2    3    3    0    0  0.52988340096E+02  0.65076806492E+02  0.58981440024E+02  0.12988609583E+03  0.79679562575E+02 0.  0.
         -6    2    1    2    0  501 -0.72843656683E+02 -0.14728739843E+03  0.13285818978E+04  0.13498174334E+04  0.17285100041E+03 0.  0.
        -24    2    5    5    0    0 -0.91409937133E+02 -0.36914596818E+02  0.70125311734E+03  0.71256524559E+03  0.79213828156E+02 0.  0.
          5    1    3    3  502    0  0.19855316586E+02  0.82210591933E+02  0.22432326388E+03  0.23978288459E+03  0.47000000000E+01 0. -1.
        -13    1    4    4    0    0  0.34809161313E+02 -0.66655318849E+01  0.31239330418E+00  0.35442976965E+02  0.00000000000E+00 0.  1.
         14    1    4    4    0    0  0.18179178784E+02  0.71742338377E+02  0.58669046720E+02  0.94443118861E+02  0.00000000000E+00 0. -1.
         -5    1    5    5    0  501  0.18566280451E+02 -0.11037280161E+03  0.62732878048E+03  0.63725218785E+03  0.47000000000E+01 0.  1.
         11    1    6    6    0    0 -0.33478698816E+02  0.39325559882E+01  0.45681105616E+03  0.45805308568E+03  0.00000000000E+00 0. -1.
        -12    1    6    6    0    0 -0.57931238317E+02 -0.40847152806E+02  0.24444206118E+03  0.25451215990E+03  0.00000000000E+00 0.  1.
</event>
<event>
12    1  0.1348628E-002  0.1856055E+03  0.7818608E-02  0.1162486E+00
         -2   -1    0    0    0  501 -0.00000000000E+00  0.00000000000E+00  0.16924587018E+02  0.16924587018E+02  0.00000000000E+00 0. -1.
          2   -1    0    0  502    0  0.00000000000E+00 -0.00000000000E+00 -0.20670458426E+04  0.20670458426E+04  0.00000000000E+00 0.  1.
          6    2    1    2  502    0  0.16217244054E+02 -0.64052299864E+02 -0.11543824808E+04  0.11692238751E+04  0.17355074727E+03 0.  0.
         24    2    3    3    0    0  0.27389006140E+02 -0.51190950168E+02 -0.32286491558E+03  0.33751853428E+03  0.79412443837E+02 0.  0.
         -6    2    1    2    0  501 -0.16217244054E+02  0.64052299864E+02 -0.89573877482E+03  0.91474655461E+03  0.17334246545E+03 0.  0.
        -24    2    5    5    0    0 -0.51327843807E+02 -0.13056359757E+01 -0.30515909468E+03  0.31950638242E+03  0.79536174827E+02 0.  0.
          5    1    3    3  502    0 -0.11171762086E+02 -0.12861349696E+02 -0.83151756523E+03  0.83170534078E+03  0.47000000000E+01 0. -1.
        -11    1    4    4    0    0  0.46414474030E+01 -0.22324028813E+02 -0.28053407715E+03  0.28145918663E+03  0.00000000000E+00 0.  1.
         12    1    4    4    0    0  0.22747558737E+02 -0.28866921355E+02 -0.42330838426E+02  0.56059347649E+02  0.00000000000E+00 0. -1.
         -5    1    5    5    0  501  0.35110599753E+02  0.65357935840E+02 -0.59057968014E+03  0.59524017219E+03  0.47000000000E+01 0.  1.
         13    1    6    6    0    0 -0.36302877550E+02  0.28311818662E+02 -0.83299819266E+02  0.95175195740E+02  0.00000000000E+00 0. -1.
        -14    1    6    6    0    0 -0.15024966257E+02 -0.29617454637E+02 -0.22185927541E+03  0.22433118668E+03  0.00000000000E+00 0.  1.
</event>
<event>
12    1  0.1348628E-002  0.2177607E+03  0.7818608E-02  0.1135564E+00
         -2   -1    0    0    0  501 -0.00000000000E+00  0.00000000000E+00  0.39399698814E+03  0.39399698814E+03  0.00000000000E+00 0. -1.
          2   -1    0    0  502    0  0.00000000000E+00 -0.00000000000E+00 -0.72145336657E+03  0.72145336657E+03  0.00000000000E+00 0.  1.
          6    2    1    2  502    0 -0.90336235899E+02  0.96598840945E+02  0.34533578511E+03  0.40834169704E+03  0.17318823711E+03 0.  0.
         24    2    3    3    0    0 -0.10990150845E+03  0.90073998828E+02  0.18656514798E+03  0.24816810786E+03  0.81173816545E+02 0.  0.
         -6    2    1    2    0  501  0.90336235899E+02 -0.96598840945E+02 -0.67279216355E+03  0.70710865767E+03  0.17280447571E+03 0.  0.
        -24    2    5    5    0    0  0.10602623843E+03 -0.55689976322E+02 -0.30911507286E+03  0.34077161657E+03  0.78931804085E+02 0.  0.
          5    1    3    3  502    0  0.19565272555E+02  0.65248421174E+01  0.15877063714E+03  0.16017358918E+03  0.47000000000E+01 0. -1.
        -11    1    4    4    0    0 -0.24805695033E+02 -0.10214248154E+02  0.59599378901E+02  0.65358544482E+02  0.00000000000E+00 0.  1.
         12    1    4    4    0    0 -0.85095813422E+02  0.10028824698E+03  0.12696576907E+03  0.18280956337E+03  0.00000000000E+00 0. -1.
         -5    1    5    5    0  501 -0.15690002529E+02 -0.40908864623E+02 -0.36367709069E+03  0.36633704109E+03  0.47000000000E+01 0.  1.
         11    1    6    6    0    0  0.36271853672E+02 -0.59770358269E+02 -0.11643566160E+03  0.13581386670E+03  0.00000000000E+00 0. -1.
        -12    1    6    6    0    0  0.69754384757E+02  0.40803819466E+01 -0.19267941126E+03  0.20495774987E+03  0.00000000000E+00 0.  1.
</event>
<event>
12    1  0.1348628E-002  0.4405776E+03  0.7818608E-02  0.1030570E+00
         -1   -1    0    0    0  501 -0.00000000000E+00  0.00000000000E+00  0.33572322690E+03  0.33572322690E+03  0.00000000000E+00 0. -1.
          1   -1    0    0  502    0  0.00000000000E+00 -0.00000000000E+00 -0.63253765247E+03  0.63253765247E+03  0.00000000000E+00 0.  1.
          6    2    1    2  502    0 -0.38427225546E+03  0.13148195167E+03 -0.62528194926E+01  0.43985770129E+03  0.16876916100E+03 0.  0.
         24    2    3    3    0    0 -0.21579404174E+03  0.95739983103E+01  0.17066505309E+02  0.23054373019E+03  0.78742720497E+02 0.  0.
         -6    2    1    2    0  501  0.38427225546E+03 -0.13148195167E+03 -0.29056160608E+03  0.52840317807E+03  0.17271711478E+03 0.  0.
        -24    2    5    5    0    0  0.31394141851E+03 -0.10358525555E+03 -0.15679006804E+03  0.37464503464E+03  0.80539785967E+02 0.  0.
          5    1    3    3  502    0 -0.16847821372E+03  0.12190795336E+03 -0.23319324802E+02  0.20931397111E+03  0.47000000000E+01 0. -1.
        -11    1    4    4    0    0 -0.11983836380E+03 -0.32178217158E+02 -0.23812358530E+01  0.12410616980E+03  0.00000000000E+00 0.  1.
         12    1    4    4    0    0 -0.95955677938E+02  0.41752215468E+02  0.19447741162E+02  0.10643756039E+03  0.00000000000E+00 0. -1.
         -5    1    5    5    0  501  0.70330836951E+02 -0.27896696116E+02 -0.13377153804E+03  0.15375814343E+03  0.47000000000E+01 0.  1.
         11    1    6    6    0    0  0.12407851510E+02 -0.26089733585E+02 -0.14841758460E+02  0.32479328377E+02  0.00000000000E+00 0. -1.
        -12    1    6    6    0    0  0.30153356700E+03 -0.77495521967E+02 -0.14194830958E+03  0.34216570627E+03  0.00000000000E+00 0.  1.
</event>
<event>
12    1  0.1348628E-002  0.2535913E+03  0.7818608E-02  0.1111056E+00
         -1   -1    0    0    0  501 -0.00000000000E+00  0.00000000000E+00  0.74110949753E+02  0.74110949753E+02  0.00000000000E+00 0.  1.
          1   -1    0    0  502    0  0.00000000000E+00 -0.00000000000E+00 -0.91426274321E+03  0.91426274321E+03  0.00000000000E+00 0. -1.
          6    2    1    2  502    0  0.59684933433E+01 -0.18726908966E+03 -0.53058180811E+03  0.58780315770E+03  0.16997106299E+03 0.  0.
         24    2    3    3    0    0 -0.22722462806E+02 -0.31615093734E+02 -0.13393830247E+03  0.16072061536E+03  0.79848749921E+02 0.  0.
         -6    2    1    2    0  501 -0.59684933433E+01  0.18726908966E+03 -0.30956998534E+03  0.40057053526E+03  0.17180757561E+03 0.  0.
        -24    2    5    5    0    0  0.45537233995E+02  0.86871853263E+02 -0.22451289768E+03  0.25918721522E+03  0.84567208405E+02 0.  0.
          5    1    3    3  502    0  0.28690956150E+02 -0.15565399592E+03 -0.39664350564E+03  0.42708254235E+03  0.47000000000E+01 0. -1.
        -11    1    4    4    0    0  0.16037454170E+02 -0.91418642138E+01  0.10512566011E+01  0.18489963710E+02  0.00000000000E+00 0.  1.
         12    1    4    4    0    0 -0.38759916977E+02 -0.22473229520E+02 -0.13498955907E+03  0.14223065165E+03  0.00000000000E+00 0. -1.
         -5    1    5    5    0  501 -0.51505727339E+02  0.10039723639E+03 -0.85057087661E+02  0.14138332004E+03  0.47000000000E+01 0.  1.
         13    1    6    6    0    0  0.28307632308E+02  0.37927142340E+02 -0.19246750300E+03  0.19820073129E+03  0.00000000000E+00 0. -1.
        -14    1    6    6    0    0  0.17229601688E+02  0.48944710922E+02 -0.32045394684E+02  0.60986483929E+02  0.00000000000E+00 0.  1.
</event>
<event>
12    1  0.1348628E-002  0.2011668E+03  0.7818608E-02  0.1148758E+00
         -2   -1    0    0    0  501 -0.00000000000E+00  0.00000000000E+00  0.31584908353E+03  0.31584908353E+03  0.00000000000E+00 0.  1.
          2   -1    0    0  502    0  0.00000000000E+00 -0.00000000000E+00 -0.17790435098E+03  0.17790435098E+03  0.00000000000E+00 0. -1.
          6    2    1    2  502    0  0.96200689597E+02  0.39911362865E+02  0.19958094591E+03  0.28342509286E+03  0.17219099782E+03 0.  0.
         24    2    3    3    0    0  0.75285041933E+02 -0.41208857722E+02  0.11872453758E+03  0.16690126151E+03  0.79965666233E+02 0.  0.
         -6    2    1    2    0  501 -0.96200689597E+02 -0.39911362865E+02 -0.61636213364E+02  0.21032834165E+03  0.17202179786E+03 0.  0.
        -24    2    5    5    0    0 -0.72421030362E+02  0.37401792061E+02 -0.74044113174E+01  0.11282975463E+03  0.77666135055E+02 0.  0.
          5    1    3    3  502    0  0.20915647664E+02  0.81120220587E+02  0.80856408325E+02  0.11652383135E+03  0.47000000000E+01 0. -1.
        -13    1    4    4    0    0  0.34048361659E+02 -0.27916724403E+02  0.11532241727E+03  0.12344186631E+03  0.00000000000E+00 0.  1.
         14    1    4    4    0    0  0.41236680275E+02 -0.13292133318E+02  0.34021203072E+01  0.43459395196E+02  0.00000000000E+00 0. -1.
         -5    1    5    5    0  501 -0.23779659235E+02 -0.77313154926E+02 -0.54231802046E+02  0.97498587021E+02  0.47000000000E+01 0.  1.
         11    1    6    6    0    0 -0.19589931760E+02  0.27067931151E+02 -0.38248180571E+02  0.50787416159E+02  0.00000000000E+00 0. -1.
        -12    1    6    6    0    0 -0.52831098602E+02  0.10333860910E+02  0.30843769254E+02  0.62042338468E+02  0.00000000000E+00 0.  1.
</event>
<event>
12    1  0.1348628E-002  0.1870053E+03  0.7818608E-02  0.1161190E+00
          1   -1    0    0  502    0  0.00000000000E+00  0.00000000000E+00  0.26065599580E+04  0.26065599580E+04  0.00000000000E+00 0.  1.
         -1   -1    0    0    0  501 -0.00000000000E+00 -0.00000000000E+00 -0.14612661626E+02  0.14612661626E+02  0.00000000000E+00 0. -1.
          6    2    1    2  502    0 -0.68343582024E+02  0.26787831617E+02  0.16696277486E+04  0.16800449392E+04  0.17177236540E+03 0.  0.
         24    2    3    3    0    0  0.16575377977E+02  0.46469198625E+02  0.11036072101E+04  0.11073321612E+04  0.76167654184E+02 0.  0.
         -6    2    1    2    0  501  0.68343582024E+02 -0.26787831617E+02  0.92231954772E+03  0.94112768043E+03  0.17221942294E+03 0.  0.
        -24    2    5    5    0    0  0.30029169269E+01 -0.45833851855E+01  0.23115241091E+03  0.24650797083E+03  0.85467641152E+02 0.  0.
          5    1    3    3  502    0 -0.84918960000E+02 -0.19681367008E+02  0.56602053856E+03  0.57271277797E+03  0.47000000000E+01 0. -1.
        -13    1    4    4    0    0  0.12709855899E+02  0.16765372405E+02  0.97712106198E+03  0.97734752668E+03  0.00000000000E+00 0.  1.
         14    1    4    4    0    0  0.38655220780E+01  0.29703826219E+02  0.12648614808E+03  0.12998463451E+03  0.00000000000E+00 0. -1.
         -5    1    5    5    0  501  0.65340665097E+02 -0.22204446431E+02  0.69116713681E+03  0.69461970960E+03  0.47000000000E+01 0.  1.
         11    1    6    6    0    0  0.36165075940E+02 -0.15129401914E+02  0.58748523450E+02  0.70627193967E+02  0.00000000000E+00 0. -1.
        -12    1    6    6    0    0 -0.33162159013E+02  0.10546016729E+02  0.17240388746E+03  0.17588077687E+03  0.00000000000E+00 0.  1.
</event>
<event>
12    1  0.1348628E-002  0.2117457E+03  0.7818608E-02  0.1140191E+00
         -1   -1    0    0    0  501 -0.00000000000E+00  0.00000000000E+00  0.17880703441E+02  0.17880703441E+02  0.00000000000E+00 0.  1.
          1   -1    0    0  502    0  0.00000000000E+00 -0.00000000000E+00 -0.25077699487E+04  0.25077699487E+04  0.00000000000E+00 0. -1.
          6    2    1    2  502    0 -0.11884350000E+03 -0.73452167563E+01 -0.12400304456E+04  0.12576696312E+04  0.17285735581E+03 0.  0.
         24    2    3    3    0    0 -0.10098374247E+03  0.17246766276E+02 -0.50763172391E+03  0.52462548919E+03  0.83945039113E+02 0.  0.
         -6    2    1    2    0  501  0.11884350000E+03  0.73452167563E+01 -0.12498587996E+04  0.12679810209E+04  0.17734463834E+03 0.  0.
        -24    2    5    5    0    0  0.84761759771E+02  0.68475910434E+02 -0.97426981821E+03  0.98360467979E+03  0.80018630305E+02 0.  0.
          5    1    3    3  502    0 -0.17859757530E+02 -0.24591983032E+02 -0.73239872172E+03  0.73304414202E+03  0.47000000000E+01 0. -1.
        -11    1    4    4    0    0  0.65311381824E+01  0.33749306513E+01 -0.16695408987E+03  0.16711587013E+03  0.00000000000E+00 0.  1.
         12    1    4    4    0    0 -0.10751488066E+03  0.13871835625E+02 -0.34067763404E+03  0.35750961906E+03  0.00000000000E+00 0. -1.
         -5    1    5    5    0  501  0.34081740233E+02 -0.61130693678E+02 -0.27558898140E+03  0.28437634113E+03  0.47000000000E+01 0.  1.
         11    1    6    6    0    0  0.17600537368E+01  0.94401311569E+01 -0.41652822523E+03  0.41663890394E+03  0.00000000000E+00 0. -1.
        -12    1    6    6    0    0  0.83001706035E+02  0.59035779277E+02 -0.55774159298E+03  0.56696577585E+03  0.00000000000E+00 0.  1.
</event>
<event>
12    1  0.1348628E-002  0.2030849E+03  0.7818608E-02  0.1147162E+00
          2   -1    0    0  502    0  0.00000000000E+00  0.00000000000E+00  0.40998444120E+03  0.40998444120E+03  0.00000000000E+00 0. -1.
         -2   -1    0    0    0  501 -0.00000000000E+00 -0.00000000000E+00 -0.11128364737E+03  0.11128364737E+03  0.00000000000E+00 0.  1.
          6    2    1    2  502    0 -0.15985207782E+02 -0.11082373795E+03  0.67513018649E+02  0.21244946343E+03  0.16744951198E+03 0.  0.
         24    2    3    3    0    0 -0.39840866166E+02 -0.42363157243E+01  0.13635486975E+02  0.90568991517E+02  0.80072309393E+02 0.  0.
         -6    2    1    2    0  501  0.15985207782E+02  0.11082373795E+03  0.23118777518E+03  0.30881862514E+03  0.17141682554E+03 0.  0.
        -24    2    5    5    0    0 -0.37068780872E+02  0.72050772169E+01  0.97290223458E+02  0.13133004262E+03  0.79725685085E+02 0.  0.
          5    1    3    3  502    0  0.23855658384E+02 -0.10658742223E+03  0.53877531674E+02  0.12188047191E+03  0.47000000000E+01 0. -1.
        -13    1    4    4    0    0 -0.20535490942E+01  0.10834048615E+02  0.40396552921E+02  0.41874516847E+02  0.00000000000E+00 0.  1.
         14    1    4    4    0    0 -0.37787317072E+02 -0.15070364339E+02 -0.26761065946E+02  0.48694474670E+02  0.00000000000E+00 0. -1.
         -5    1    5    5    0  501  0.53053988654E+02  0.10361866073E+03  0.13389755172E+03  0.17748858251E+03  0.47000000000E+01 0.  1.
         13    1    6    6    0    0 -0.26782291668E+02  0.37384110077E+02  0.85968055115E+02  0.97495483657E+02  0.00000000000E+00 0. -1.
        -14    1    6    6    0    0 -0.10286489204E+02 -0.30179032861E+02  0.11322168342E+02  0.33834558967E+02  0.00000000000E+00 0.  1.
</event>
<event>
12    1  0.1348628E-002  0.2052504E+03  0.7818608E-02  0.1145383E+00
          1   -1    0    0  502    0  0.00000000000E+00  0.00000000000E+00  0.10972236001E+04  0.10972236001E+04  0.00000000000E+00 0.  1.
         -1   -1    0    0    0  501 -0.00000000000E+00 -0.00000000000E+00 -0.45487645895E+02  0.45487645895E+02  0.00000000000E+00 0. -1.
          6    2    1    2  502    0  0.10937399110E+03  0.21735435708E+02  0.75222813840E+03  0.77981853826E+03  0.17272718756E+03 0.  0.
         24    2    3    3    0    0  0.12523681200E+03  0.48726651940E+02  0.71133521835E+03  0.72810320446E+03  0.77961129930E+02 0.  0.
         -6    2    1    2    0  501 -0.10937399110E+03 -0.21735435708E+02  0.29950781583E+03  0.36289270775E+03  0.17190429461E+03 0.  0.
        -24    2    5    5    0    0 -0.10958385664E+03 -0.71699552747E+02  0.24260134444E+03  0.28701851240E+03  0.79842135715E+02 0.  0.
          5    1    3    3  502    0 -0.15862820903E+02 -0.26991216232E+02  0.40892920046E+02  0.51715333805E+02  0.47000000000E+01 0. -1.
        -13    1    4    4    0    0  0.97431310080E+02  0.67631323919E+02  0.48540689357E+03  0.49968661027E+03  0.00000000000E+00 0.  1.
         14    1    4    4    0    0  0.27805501923E+02 -0.18904671979E+02  0.22592832479E+03  0.22841659419E+03  0.00000000000E+00 0. -1.
         -5    1    5    5    0  501  0.20986554300E+00  0.49964117039E+02  0.56906471387E+02  0.75874195355E+02  0.47000000000E+01 0.  1.
         13    1    6    6    0    0 -0.92200192657E+02 -0.71751381705E+02  0.13724152453E+03  0.18023421528E+03  0.00000000000E+00 0. -1.
        -14    1    6    6    0    0 -0.17383663987E+02  0.51828957620E-01  0.10535981991E+03  0.10678429712E+03  0.00000000000E+00 0.  1.
</event>
<event>
12    1  0.1348628E-002  0.2051435E+03  0.7818608E-02  0.1145471E+00
         -1   -1    0    0    0  501 -0.00000000000E+00  0.00000000000E+00  0.86331590079E+03  0.86331590079E+03  0.00000000000E+00 0. -1.
          1   -1    0    0  502    0  0.00000000000E+00 -0.00000000000E+00 -0.49091806280E+02  0.49091806280E+02  0.00000000000E+00 0.  1.
          6    2    1    2  502    0  0.38103336084E+02 -0.10621788890E+03  0.36993497821E+03  0.42326719175E+03  0.17195674854E+03 0.  0.
         24    2    3    3    0    0  0.89536550372E+00 -0.13422692121E+03  0.30892624627E+03  0.34637054463E+03  0.80743176153E+02 0.  0.
         -6    2    1    2    0  501 -0.38103336084E+02  0.10621788890E+03  0.44428911630E+03  0.48914051532E+03  0.17067958495E+03 0.  0.
        -24    2    5    5    0    0 -0.31225277681E+02  0.18197388857E+02  0.34669131292E+03  0.35745020687E+03  0.79180938409E+02 0.  0.
          5    1    3    3  502    0  0.37207970580E+02  0.28009032315E+02  0.61008731942E+02  0.76896647125E+02  0.47000000000E+01 0. -1.
        -11    1    4    4    0    0 -0.16895290917E+02 -0.80806739218E+02  0.98392418296E+02  0.12843772007E+03  0.00000000000E+00 0.  1.
         12    1    4    4    0    0  0.17790656421E+02 -0.53420181995E+02  0.21053382797E+03  0.21793282456E+03  0.00000000000E+00 0. -1.
         -5    1    5    5    0  501 -0.68780584028E+01  0.88020500041E+02  0.97597803379E+02  0.13169030845E+03  0.47000000000E+01 0.  1.
         13    1    6    6    0    0 -0.51752994200E+02 -0.93857781972E+01  0.20319565365E+03  0.20989268426E+03  0.00000000000E+00 0. -1.
        -14    1    6    6    0    0  0.20527716520E+02  0.27583167054E+02  0.14349565927E+03  0.14755752261E+03  0.00000000000E+00 0.  1.
</event>
<event>
12    1  0.1348628E-002  0.2104943E+03  0.7818608E-02  0.1141175E+00
         -1   -1    0    0    0  501 -0.00000000000E+00  0.00000000000E+00  0.16421733605E+03  0.16421733605E+03  0.00000000000E+00 0. -1.
          1   -1    0    0  502    0  0.00000000000E+00 -0.00000000000E+00 -0.28681955539E+03  0.28681955539E+03  0.00000000000E+00 0.  1.
          6    2    1    2  502    0  0.19324012899E+02  0.12387088557E+03 -0.11674320204E+03  0.24253709999E+03  0.17169116425E+03 0.  0.
         24    2    3    3    0    0 -0.20696959173E+01  0.15600734667E+03 -0.96919485595E+02  0.19888492200E+03  0.76284006561E+02 0.  0.
         -6    2    1    2    0  501 -0.19324012899E+02 -0.12387088557E+03 -0.58590172928E+01  0.20849979146E+03  0.16649450798E+03 0.  0.
        -24    2    5    5    0    0 -0.41683076974E+02 -0.13827696097E+03  0.25961147018E+02  0.16676161216E+03  0.79230406379E+02 0.  0.
          5    1    3    3  502    0  0.21393708816E+02 -0.32136461098E+02 -0.19823716448E+02  0.43652177982E+02  0.47000000000E+01 0. -1.
        -11    1    4    4    0    0 -0.21625505068E+02  0.11381825842E+03 -0.34179672142E+02  0.12079117686E+03  0.00000000000E+00 0.  1.
         12    1    4    4    0    0  0.19555809151E+02  0.42189088248E+02 -0.62739813453E+02  0.78093745145E+02  0.00000000000E+00 0. -1.
         -5    1    5    5    0  501  0.22359064075E+02  0.14406075394E+02 -0.31820164311E+02  0.41738179301E+02  0.47000000000E+01 0.  1.
         13    1    6    6    0    0  0.13917082716E+02 -0.77356429092E+02  0.30135829193E+02  0.84177612905E+02  0.00000000000E+00 0. -1.
        -14    1    6    6    0    0 -0.55600159690E+02 -0.60920531873E+02 -0.41746821749E+01  0.82583999252E+02  0.00000000000E+00 0.  1.
</event>
<event>
12    1  0.1348628E-002  0.1946858E+03  0.7818608E-02  0.1154302E+00
         -2   -1    0    0    0  501 -0.00000000000E+00  0.00000000000E+00  0.68589634423E+02  0.68589634423E+02  0.00000000000E+00 0. -1.
          2   -1    0    0  502    0  0.00000000000E+00 -0.00000000000E+00 -0.58329326344E+03  0.58329326344E+03  0.00000000000E+00 0.  1.
          6    2    1    2  502    0 -0.87100082176E+02  0.38806491133E+02 -0.33386478214E+03  0.38720307056E+03  0.17137140085E+03 0.  0.
         24    2    3    3    0    0 -0.50554982789E+01  0.70305026746E+02 -0.16135653926E+03  0.19354188355E+03  0.80337868270E+02 0.  0.
         -6    2    1    2    0  501  0.87100082176E+02 -0.38806491133E+02 -0.18083884688E+03  0.26467982730E+03  0.16810816271E+03 0.  0.
        -24    2    5    5    0    0  0.76058205129E+02 -0.57626684641E+02 -0.52269551616E+02  0.13418738914E+03  0.78539569825E+02 0.  0.
          5    1    3    3  502    0 -0.82044583897E+02 -0.31498535613E+02 -0.17250824288E+03  0.19366118701E+03  0.47000000000E+01 0. -1.
        -11    1    4    4    0    0 -0.23333556889E+02  0.25471094476E+02 -0.13304294232E+03  0.13745419612E+03  0.00000000000E+00 0.  1.
         12    1    4    4    0    0  0.18278058610E+02  0.44833932270E+02 -0.28313596940E+02  0.56087687428E+02  0.00000000000E+00 0. -1.
         -5    1    5    5    0  501  0.11041877047E+02  0.18820193508E+02 -0.12856929526E+03  0.13049243816E+03  0.47000000000E+01 0.  1.
         11    1    6    6    0    0  0.21602938789E+02 -0.15965137467E+02 -0.59460907203E+02  0.65247008085E+02  0.00000000000E+00 0. -1.
        -12    1    6    6    0    0  0.54455266340E+02 -0.41661547174E+02  0.71913555868E+01  0.68940381057E+02  0.00000000000E+00 0.  1.
</event>
<event>
12    1  0.1348628E-002  0.1856121E+03  0.7818608E-02  0.1162480E+00
          2   -1    0    0  502    0  0.00000000000E+00  0.00000000000E+00  0.28947130715E+03  0.28947130715E+03  0.00000000000E+00 0. -1.
         -2   -1    0    0    0  501 -0.00000000000E+00 -0.00000000000E+00 -0.18167425080E+03  0.18167425080E+03  0.00000000000E+00 0.  1.
          6    2    1    2  502    0  0.30848024346E+02 -0.62666720994E+02  0.19216650457E+03  0.26688932987E+03  0.17153200981E+03 0.  0.
         24    2    3    3    0    0  0.34951486338E+02  0.23479370180E+02  0.13963257537E+03  0.16579585262E+03  0.78855065909E+02 0.  0.
         -6    2    1    2    0  501 -0.30848024346E+02  0.62666720994E+02 -0.84369448220E+02  0.20425622809E+03  0.17240558110E+03 0.  0.
        -24    2    5    5    0    0  0.35742107402E+02  0.57105223689E+02 -0.10577826225E+02  0.10459445319E+03  0.79307026280E+02 0.  0.
          5    1    3    3  502    0 -0.41034619920E+01 -0.86146091174E+02  0.52533929206E+02  0.10109347725E+03  0.47000000000E+01 0. -1.
        -13    1    4    4    0    0  0.55499966449E+02  0.11165377204E+02  0.59371067794E+02  0.82035575301E+02  0.00000000000E+00 0.  1.
         14    1    4    4    0    0 -0.20548480111E+02  0.12313992976E+02  0.80261507574E+02  0.83760277315E+02  0.00000000000E+00 0. -1.
         -5    1    5    5    0  501 -0.66590131748E+02  0.55614973056E+01 -0.73791621995E+02  0.99661774895E+02  0.47000000000E+01 0.  1.
         13    1    6    6    0    0  0.92660942854E+01  0.80776854766E+01  0.32122831291E+02  0.34394560560E+02  0.00000000000E+00 0. -1.
        -14    1    6    6    0    0  0.26476013117E+02  0.49027538212E+02 -0.42700657515E+02  0.70199892635E+02  0.00000000000E+00 0.  1.
</event>
<event>
12    1  0.1348628E-002  0.2259985E+03  0.7818608E-02  0.1129488E+00
          2   -1    0    0  502    0  0.00000000000E+00  0.00000000000E+00  0.11204934156E+04  0.11204934156E+04  0.00000000000E+00 0. -1.
         -2   -1    0    0    0  501 -0.00000000000E+00 -0.00000000000E+00 -0.65494030866E+02  0.65494030866E+02  0.00000000000E+00 0.  1.
          6    2    1    2  502    0  0.30340716269E+02  0.14265546463E+03  0.85485695372E+03  0.88428840117E+03  0.17295786904E+03 0.  0.
         24    2    3    3    0    0  0.10432464919E+02  0.16120889374E+03  0.57132582256E+03  0.59941551628E+03  0.82393093748E+02 0.  0.
         -6    2    1    2    0  501 -0.30340716269E+02 -0.14265546463E+03  0.20014243102E+03  0.30169904531E+03  0.17231999475E+03 0.  0.
        -24    2    5    5    0    0 -0.81225361872E+02 -0.85484712175E+02  0.16574684001E+03  0.21765805069E+03  0.77445572052E+02 0.  0.
          5    1    3    3  502    0  0.19908251350E+02 -0.18553429107E+02  0.28353113117E+03  0.28487288489E+03  0.47000000000E+01 0. -1.
        -13    1    4    4    0    0  0.36229951329E+02  0.79225026612E+02  0.19788679384E+03  0.21621377706E+03  0.00000000000E+00 0.  1.
         14    1    4    4    0    0 -0.25797486410E+02  0.81983867125E+02  0.37343902872E+03  0.38320173922E+03  0.00000000000E+00 0. -1.
         -5    1    5    5    0  501  0.50884645604E+02 -0.57170752455E+02  0.34395591006E+02  0.84040994610E+02  0.47000000000E+01 0.  1.
         11    1    6    6    0    0 -0.80310931489E+02 -0.30240692835E+02  0.10213396138E+03  0.13340049208E+03  0.00000000000E+00 0. -1.
        -12    1    6    6    0    0 -0.91443038394E+00 -0.55244019340E+02  0.63612878640E+02  0.84257558620E+02  0.00000000000E+00 0.  1.
</event>
<event>
12    1  0.1348628E-002  0.1810048E+03  0.7818608E-02  0.1166834E+00
         -1   -1    0    0    0  501 -0.00000000000E+00  0.00000000000E+00  0.12927832143E+03  0.12927832143E+03  0.00000000000E+00 0.  1.
          1   -1    0    0  502    0  0.00000000000E+00 -0.00000000000E+00 -0.27969674090E+03  0.27969674090E+03  0.00000000000E+00 0. -1.
          6    2    1    2  502    0 -0.15993586103E+02 -0.49833443471E+02 -0.13820974212E+03  0.22846068097E+03  0.17422164919E+03 0.  0.
         24    2    3    3    0    0 -0.61398812970E+02 -0.39536898114E+02 -0.32358766753E+02  0.11272748582E+03  0.79545054692E+02 0.  0.
         -6    2    1    2    0  501  0.15993586103E+02  0.49833443471E+02 -0.12208677346E+02  0.18051438137E+03  0.17232882288E+03 0.  0.
        -24    2    5    5    0    0  0.40098818274E+02  0.19772348173E+02 -0.66443650543E+02  0.11381914926E+03  0.80877555985E+02 0.  0.
          5    1    3    3  502    0  0.45405226867E+02 -0.10296545357E+02 -0.10585097537E+03  0.11573319515E+03  0.47000000000E+01 0. -1.
        -11    1    4    4    0    0  0.33559211505E+01 -0.37315512026E+02  0.52164328915E+01  0.37827514016E+02  0.00000000000E+00 0.  1.
         12    1    4    4    0    0 -0.64754734121E+02 -0.22213860877E+01 -0.37575199645E+02  0.74899971799E+02  0.00000000000E+00 0. -1.
         -5    1    5    5    0  501 -0.24105232172E+02  0.30061095298E+02  0.54234973196E+02  0.66695232110E+02  0.47000000000E+01 0.  1.
         13    1    6    6    0    0 -0.12653787482E+02  0.20984147867E+00 -0.54957245136E+02  0.56395577522E+02  0.00000000000E+00 0. -1.
        -14    1    6    6    0    0  0.52752605756E+02  0.19562506694E+02 -0.11486405406E+02  0.57423571740E+02  0.00000000000E+00 0.  1.
</event>
<event>
12    1  0.1348628E-002  0.2056894E+03  0.7818608E-02  0.1145026E+00
         -2   -1    0    0    0  501 -0.00000000000E+00  0.00000000000E+00  0.10894884105E+03  0.10894884105E+03  0.00000000000E+00 0.  1.
          2   -1    0    0  502    0  0.00000000000E+00 -0.00000000000E+00 -0.43953640164E+03  0.43953640164E+03  0.00000000000E+00 0. -1.
          6    2    1    2  502    0 -0.87006592023E+02  0.72482107358E+02 -0.71578603266E+02  0.21764096015E+03  0.17152343322E+03 0.  0.
         24    2    3    3    0    0 -0.71734115174E+02  0.11698272987E+03 -0.52312921322E+02  0.16658402669E+03  0.78631125150E+02 0.  0.
         -6    2    1    2    0  501  0.87006592023E+02 -0.72482107358E+02 -0.25900895733E+03  0.33084428254E+03  0.17189676079E+03 0.  0.
        -24    2    5    5    0    0  0.79861082500E+02 -0.40229522130E+01 -0.22820920785E+03  0.25529013774E+03  0.81851299527E+02 0.  0.
          5    1    3    3  502    0 -0.15272476849E+02 -0.44500622514E+02 -0.19265681944E+02  0.51056933457E+02  0.47000000000E+01 0. -1.
        -11    1    4    4    0    0 -0.81433144327E+02  0.11039893253E+03 -0.28601645913E+02  0.14013327745E+03  0.00000000000E+00 0.  1.
         12    1    4    4    0    0  0.96990291529E+01  0.65837973416E+01 -0.23711275409E+02  0.26450749242E+02  0.00000000000E+00 0. -1.
         -5    1    5    5    0  501  0.71455095233E+01 -0.68459155145E+02 -0.30799749477E+02  0.75554144806E+02  0.47000000000E+01 0.  1.
         11    1    6    6    0    0  0.64766735987E+02 -0.33716800099E+02 -0.19513602895E+03  0.20834976001E+03  0.00000000000E+00 0. -1.
        -12    1    6    6    0    0  0.15094346513E+02  0.29693847886E+02 -0.33073178900E+02  0.46940377731E+02  0.00000000000E+00 0.  1.
</event>
<event>
12    1  0.1348628E-002  0.1845215E+03  0.7818608E-02  0.1163498E+00
          1   -1    0    0  502    0  0.00000000000E+00  0.00000000000E+00  0.11265425356E+04  0.11265425356E+04  0.00000000000E+00 0. -1.
         -1   -1    0    0    0  501 -0.00000000000E+00 -0.00000000000E+00 -0.51489665764E+02  0.51489665764E+02  0.00000000000E+00 0.  1.
          6    2    1    2  502    0  0.31774543395E+01 -0.71353855459E+02  0.91928619585E+03  0.93800128530E+03  0.17221449545E+03 0.  0.
         24    2    3    3    0    0  0.24202100282E+02 -0.10512425175E+03  0.52567592942E+03  0.54235800248E+03  0.78614058022E+02 0.  0.
         -6    2    1    2    0  501 -0.31774543395E+01  0.71353855459E+02  0.15576667403E+03  0.24003091610E+03  0.16807770537E+03 0.  0.
        -24    2    5    5    0    0 -0.21952541231E+02  0.11118254209E+03  0.11792990472E+03  0.18178540745E+03  0.79341037325E+02 0.  0.
          5    1    3    3  502    0 -0.21024645942E+02  0.33770396295E+02  0.39361026643E+03  0.39564328282E+03  0.47000000000E+01 0. -1.
        -13    1    4    4    0    0 -0.42424336043E+01 -0.10484711603E+03  0.42200508813E+03  0.43485539021E+03  0.00000000000E+00 0.  1.
         14    1    4    4    0    0  0.28444533886E+02 -0.27713572092E+00  0.10367084129E+03  0.10750261227E+03  0.00000000000E+00 0. -1.
         -5    1    5    5    0  501  0.18775086892E+02 -0.39828686628E+02  0.37836769313E+02  0.58245508654E+02  0.47000000000E+01 0.  1.
         13    1    6    6    0    0 -0.49981539858E+02  0.88624244480E+02  0.94409118159E+02  0.13880018958E+03  0.00000000000E+00 0. -1.
        -14    1    6    6    0    0  0.28028998626E+02  0.22558297608E+02  0.23520786556E+02  0.42985217868E+02  0.00000000000E+00 0.  1.
</event>
<event>
12    1  0.1348628E-002  0.2181845E+03  0.7818608E-02  0.1135244E+00
          1   -1    0    0  502    0  0.00000000000E+00  0.00000000000E+00  0.41402022346E+03  0.41402022346E+03  0.00000000000E+00 0.  1.
         -1   -1    0    0    0  501 -0.00000000000E+00 -0.00000000000E+00 -0.11532338848E+03  0.11532338848E+03  0.00000000000E+00 0. -1.
          6    2    1    2  502    0 -0.93381513675E+02 -0.99201724619E+02  0.13475242581E+03  0.25621883159E+03  0.17008463815E+03 0.  0.
         24    2    3    3    0    0 -0.86515090304E+02 -0.58724876314E+02  0.16101516120E+03  0.20725614897E+03  0.78075330312E+02 0.  0.
         -6    2    1    2    0  501  0.93381513675E+02  0.99201724619E+02  0.16394440917E+03  0.27312478036E+03  0.17075797809E+03 0.  0.
        -24    2    5    5    0    0 -0.12451470366E+02  0.30166901480E+02  0.99016458343E+02  0.13098345591E+03  0.79292658172E+02 0.  0.
          5    1    3    3  502    0 -0.68664233706E+01 -0.40476848304E+02 -0.26262735390E+02  0.48962682614E+02  0.47000000000E+01 0. -1.
        -11    1    4    4    0    0 -0.26700579750E+02 -0.32734123808E+02  0.12671145686E+03  0.13356735050E+03  0.00000000000E+00 0.  1.
         12    1    4    4    0    0 -0.59814510554E+02 -0.25990752506E+02  0.34303704334E+02  0.73688798468E+02  0.00000000000E+00 0. -1.
         -5    1    5    5    0  501  0.10583298404E+03  0.69034823139E+02  0.64927950829E+02  0.14214132445E+03  0.47000000000E+01 0.  1.
         13    1    6    6    0    0 -0.35339680259E+02  0.40631947157E+02  0.40803386810E+02  0.67563040975E+02  0.00000000000E+00 0. -1.
        -14    1    6    6    0    0  0.22888209894E+02 -0.10465045678E+02  0.58213071532E+02  0.63420414934E+02  0.00000000000E+00 0.  1.
</event>
<event>
12    1  0.1348628E-002  0.2022306E+03  0.7818608E-02  0.1147871E+00
          2   -1    0    0  502    0  0.00000000000E+00  0.00000000000E+00  0.55865295884E+03  0.55865295884E+03  0.00000000000E+00 0.  1.
         -2   -1    0    0    0  501 -0.00000000000E+00 -0.00000000000E+00 -0.84779647173E+02  0.84779647173E+02  0.00000000000E+00 0. -1.
          6    2    1    2  502    0  0.74436275899E+02  0.78506282802E+02  0.11721337059E+03  0.23300351217E+03  0.16984600917E+03 0.  0.
         24    2    3    3    0    0 -0.22128608343E+02  0.16272389002E+02  0.32693247646E+02  0.90302511514E+02  0.79569021567E+02 0.  0.
         -6    2    1    2    0  501 -0.74436275899E+02 -0.78506282802E+02  0.35665994108E+03  0.41042909385E+03  0.17187708368E+03 0.  0.
        -24    2    5    5    0    0 -0.65743877950E+01  0.19626541094E+02  0.16572221013E+03  0.18523008389E+03  0.80111855291E+02 0.  0.
          5    1    3    3  502    0  0.96564884242E+02  0.62233893800E+02  0.84520122940E+02  0.14270100065E+03  0.47000000000E+01 0. -1.
        -13    1    4    4    0    0 -0.11870765337E+02  0.19777845158E+02  0.58190987823E+02  0.62596080489E+02  0.00000000000E+00 0.  1.
         14    1    4    4    0    0 -0.10257843006E+02 -0.35054561564E+01 -0.25497740177E+02  0.27706431025E+02  0.00000000000E+00 0. -1.
         -5    1    5    5    0  501 -0.67861888104E+02 -0.98132823895E+02  0.19093773095E+03  0.22519900995E+03  0.47000000000E+01 0.  1.
         13    1    6    6    0    0  0.24995660992E+02  0.10516066740E+02  0.14234335940E+03  0.14490342541E+03  0.00000000000E+00 0. -1.
        -14    1    6    6    0    0 -0.31570048787E+02  0.91104743537E+01  0.23378850727E+02  0.40326658487E+02  0.00000000000E+00 0.  1.
</event>
<event>
12    1  0.1348628E-002  0.3321946E+03  0.7818608E-02  0.1070170E+00
         -2   -1    0    0    0  501 -0.00000000000E+00  0.00000000000E+00  0.72031422176E+02  0.72031422176E+02  0.00000000000E+00 0. -1.
          2   -1    0    0  502    0  0.00000000000E+00 -0.00000000000E+00 -0.16426606183E+04  0.16426606183E+04  0.00000000000E+00 0.  1.
          6    2    1    2  502    0  0.19321342690E+03 -0.20828628071E+03 -0.10076722388E+04  0.10609952986E+04  0.17202639301E+03 0.  0.
         24    2    3    3    0    0  0.10629067634E+03 -0.20073448252E+03 -0.81305906664E+03  0.84766698129E+03  0.76695664574E+02 0.  0.
         -6    2    1    2    0  501 -0.19321342690E+03  0.20828628071E+03 -0.56295695736E+03  0.65369674184E+03  0.17229129805E+03 0.  0.
        -24    2    5    5    0    0 -0.41062515949E+02  0.62174877135E+02 -0.28293003203E+03  0.30307499284E+03  0.79077194561E+02 0.  0.
          5    1    3    3  502    0  0.86922750560E+02 -0.75517981879E+01 -0.19461317211E+03  0.21332831734E+03  0.47000000000E+01 0. -1.
        -13    1    4    4    0    0  0.10187309689E+03 -0.11824243931E+03 -0.56832438525E+03  0.58936576860E+03  0.00000000000E+00 0.  1.
         14    1    4    4    0    0  0.44175794538E+01 -0.82492043206E+02 -0.24473468140E+03  0.25830121269E+03  0.00000000000E+00 0. -1.
         -5    1    5    5    0  501 -0.15215091095E+03  0.14611140357E+03 -0.28002692533E+03  0.35062174900E+03  0.47000000000E+01 0.  1.
         13    1    6    6    0    0 -0.47487957641E+02  0.25797349124E+02 -0.78312492160E+02  0.95149649348E+02  0.00000000000E+00 0. -1.
        -14    1    6    6    0    0  0.64254416922E+01  0.36377528011E+02 -0.20461753987E+03  0.20792534349E+03  0.00000000000E+00 0.  1.
</event>
<event>
12    1  0.1348628E-002  0.1769475E+03  0.7818608E-02  0.1170790E+00
         -2   -1    0    0    0  501 -0.00000000000E+00  0.00000000000E+00  0.87505735890E+02  0.87505735890E+02  0.00000000000E+00 0. -1.
          2   -1    0    0  502    0  0.00000000000E+00 -0.00000000000E+00 -0.43507636853E+03  0.43507636853E+03  0.00000000000E+00 0.  1.
          6    2    1    2  502    0 -0.27296411375E+02  0.35196945802E+02 -0.28457586401E+03  0.33555229948E+03  0.17212787178E+03 0.  0.
         24    2    3    3    0    0  0.26228894896E+02  0.71201481908E+02 -0.18469863465E+03  0.21656139236E+03  0.83831050740E+02 0.  0.
         -6    2    1    2    0  501  0.27296411375E+02 -0.35196945802E+02 -0.62994768629E+02  0.18702980494E+03  0.17037572595E+03 0.  0.
        -24    2    5    5    0    0 -0.20076860813E+01 -0.63307910272E+02  0.12708845639E+02  0.10099444207E+03  0.77630150487E+02 0.  0.
          5    1    3    3  502    0 -0.53525306271E+02 -0.36004536107E+02 -0.99877229367E+02  0.11899090712E+03  0.47000000000E+01 0. -1.
        -13    1    4    4    0    0 -0.27043873970E+02  0.39600772275E+02 -0.10654132784E+03  0.11683598256E+03  0.00000000000E+00 0.  1.
         14    1    4    4    0    0  0.53272768866E+02  0.31600709633E+02 -0.78157306807E+02  0.99725409798E+02  0.00000000000E+00 0. -1.
         -5    1    5    5    0  501  0.29304097456E+02  0.28110964470E+02 -0.75703614268E+02  0.86035362871E+02  0.47000000000E+01 0.  1.
         13    1    6    6    0    0  0.14097614151E+02 -0.43217694464E+02  0.42072503186E+02  0.61940353276E+02  0.00000000000E+00 0. -1.
        -14    1    6    6    0    0 -0.16105300233E+02 -0.20090215807E+02 -0.29363657547E+02  0.39054088791E+02  0.00000000000E+00 0.  1.
</event>
<event>
12    1  0.1348628E-002  0.1868613E+03  0.7818608E-02  0.1161323E+00
          2   -1    0    0  502    0  0.00000000000E+00  0.00000000000E+00  0.77638334582E+02  0.77638334582E+02  0.00000000000E+00 0. -1.
         -2   -1    0    0    0  501 -0.00000000000E+00 -0.00000000000E+00 -0.94612099224E+03  0.94612099224E+03  0.00000000000E+00 0.  1.
          6    2    1    2  502    0 -0.71577360567E+02  0.76648366242E+01 -0.80565099777E+03  0.82716954206E+03  0.17307181406E+03 0.  0.
         24    2    3    3    0    0  0.23196939121E+02 -0.26093165398E+02 -0.41052160107E+03  0.41940600675E+03  0.78450381073E+02 0.  0.
         -6    2    1    2    0  501  0.71577360567E+02 -0.76648366242E+01 -0.62831659887E+02  0.19658978477E+03  0.17180703631E+03 0.  0.
        -24    2    5    5    0    0  0.62192906290E+02 -0.69956203034E+02 -0.48948933585E+02  0.13191287698E+03  0.79013803091E+02 0.  0.
          5    1    3    3  502    0 -0.94774299688E+02  0.33758002023E+02 -0.39512939670E+03  0.40776353530E+03  0.47000000000E+01 0. -1.
        -13    1    4    4    0    0  0.40868142533E+02  0.13061149867E+02 -0.20250972888E+03  0.20700480429E+03  0.00000000000E+00 0.  1.
         14    1    4    4    0    0 -0.17671203412E+02 -0.39154315266E+02 -0.20801187220E+03  0.21240120246E+03  0.00000000000E+00 0. -1.
         -5    1    5    5    0  501  0.93844542770E+01  0.62291366410E+02 -0.13882726302E+02  0.64676907787E+02  0.47000000000E+01 0.  1.
         11    1    6    6    0    0  0.54869942851E+02 -0.40429046717E+02  0.67072208968E+01  0.68485073257E+02  0.00000000000E+00 0. -1.
        -12    1    6    6    0    0  0.73229634390E+01 -0.29527156318E+02 -0.55656154482E+02  0.63427803725E+02  0.00000000000E+00 0.  1.
</event>
<event>
12    1  0.1348628E-002  0.2042881E+03  0.7818608E-02  0.1146171E+00
          2   -1    0    0  502    0  0.00000000000E+00  0.00000000000E+00  0.33614972740E+04  0.33614972740E+04  0.00000000000E+00 0. -1.
         -2   -1    0    0    0  501 -0.00000000000E+00 -0.00000000000E+00 -0.12455579286E+02  0.12455579286E+02  0.00000000000E+00 0.  1.
          6    2    1    2  502    0 -0.10596594069E+03 -0.28187063698E+02  0.15795943508E+04  0.15927676554E+04  0.17253173493E+03 0.  0.
         24    2    3    3    0    0 -0.16299156804E+02 -0.31160049105E+02  0.11774350255E+04  0.11806958367E+04  0.80329373951E+02 0.  0.
         -6    2    1    2    0  501  0.10596594069E+03  0.28187063698E+02  0.17694473439E+04  0.17811851980E+04  0.17220196133E+03 0.  0.
        -24    2    5    5    0    0  0.24164920512E+02 -0.38123750076E+02  0.95146170592E+03  0.95643606953E+03  0.86331996140E+02 0.  0.
          5    1    3    3  502    0 -0.89666783881E+02  0.29729854073E+01  0.40215932533E+03  0.41207181865E+03  0.47000000000E+01 0. -1.
        -13    1    4    4    0    0  0.26031865516E+02 -0.11985172910E+02  0.18816334013E+03  0.19033324713E+03  0.00000000000E+00 0.  1.
         14    1    4    4    0    0 -0.42331022320E+02 -0.19174876195E+02  0.98927168538E+03  0.99036258957E+03  0.00000000000E+00 0. -1.
         -5    1    5    5    0  501  0.81801020173E+02  0.66310813773E+02  0.81798563798E+03  0.82474912844E+03  0.47000000000E+01 0.  1.
         11    1    6    6    0    0  0.51481640482E+02 -0.40844260044E+02  0.78293689929E+03  0.78569001594E+03  0.00000000000E+00 0. -1.
        -12    1    6    6    0    0 -0.27316719970E+02  0.27205099682E+01  0.16852480663E+03  0.17074605359E+03  0.00000000000E+00 0.  1.
</event>
<event>
12    1  0.1348628E-002  0.2198443E+03  0.7818608E-02  0.1133999E+00
          2   -1    0    0  502    0  0.00000000000E+00  0.00000000000E+00  0.46534903348E+03  0.46534903348E+03  0.00000000000E+00 0.  1.
         -2   -1    0    0    0  501 -0.00000000000E+00 -0.00000000000E+00 -0.11883334313E+03  0.11883334313E+03  0.00000000000E+00 0. -1.
          6    2    1    2  502    0  0.31553160646E+02  0.12493851386E+03  0.66635736865E+02  0.22544540994E+03  0.17256905065E+03 0.  0.
         24    2    3    3    0    0 -0.16829051641E+02  0.13810933126E+03  0.29231306126E+02  0.16271192338E+03  0.79140990594E+02 0.  0.
         -6    2    1    2    0  501 -0.31553160646E+02 -0.12493851386E+03  0.27987995349E+03  0.35873696667E+03  0.18372313054E+03 0.  0.
        -24    2    5    5    0    0  0.24214655058E+01 -0.14230839063E+03  0.14491080359E+03  0.21839898440E+03  0.80258543790E+02 0.  0.
          5    1    3    3  502    0  0.48382212287E+02 -0.13170817403E+02  0.37404430739E+02  0.62733486559E+02  0.47000000000E+01 0. -1.
        -13    1    4    4    0    0  0.61546420003E+01  0.22470388775E+02  0.37904872290E+02  0.44492441304E+02  0.00000000000E+00 0.  1.
         14    1    4    4    0    0 -0.22983693641E+02  0.11563894249E+03 -0.86735661643E+01  0.11821948208E+03  0.00000000000E+00 0. -1.
         -5    1    5    5    0  501 -0.33974626152E+02  0.17369876776E+02  0.13496914990E+03  0.14033798226E+03  0.47000000000E+01 0.  1.
         11    1    6    6    0    0 -0.58186681193E+01 -0.57988971253E+02  0.10058284341E+02  0.59141751493E+02  0.00000000000E+00 0. -1.
        -12    1    6    6    0    0  0.82401336250E+01 -0.84319419381E+02  0.13485251925E+03  0.15925723291E+03  0.00000000000E+00 0.  1.
</event>
<event>
12    1  0.1348628E-002  0.1835208E+03  0.7818608E-02  0.1164438E+00
          1   -1    0    0  502    0  0.00000000000E+00  0.00000000000E+00  0.17530795848E+04  0.17530795848E+04  0.00000000000E+00 0. -1.
         -1   -1    0    0    0  501 -0.00000000000E+00 -0.00000000000E+00 -0.19874967251E+02  0.19874967251E+02  0.00000000000E+00 0.  1.
          6    2    1    2  502    0  0.60633015245E+01  0.53922492812E+02  0.72246727908E+03  0.74633627567E+03  0.17920510090E+03 0.  0.
         24    2    3    3    0    0  0.54005529729E+02  0.69412630745E+01  0.22513148145E+03  0.24446908329E+03  0.78205948417E+02 0.  0.
         -6    2    1    2    0  501 -0.60633015245E+01 -0.53922492812E+02  0.10107373384E+04  0.10266182763E+04  0.17149553685E+03 0.  0.
        -24    2    5    5    0    0  0.27633198120E+02  0.27050095203E+02  0.54070773421E+03  0.54845310306E+03  0.83310570320E+02 0.  0.
          5    1    3    3  502    0 -0.47942228204E+02  0.46981229737E+02  0.49733579762E+03  0.50186719238E+03  0.47000000000E+01 0. -1.
        -13    1    4    4    0    0  0.49050549083E+02  0.33752469641E+02  0.99849088921E+02  0.11625414457E+03  0.00000000000E+00 0.  1.
         14    1    4    4    0    0  0.49549806459E+01 -0.26811206567E+02  0.12528239253E+03  0.12821493871E+03  0.00000000000E+00 0. -1.
         -5    1    5    5    0  501 -0.33696499645E+02 -0.80972588015E+02  0.47002960421E+03  0.47816517328E+03  0.47000000000E+01 0.  1.
         11    1    6    6    0    0  0.31635465746E+02  0.75673362424E+01  0.51462567831E+03  0.51565265057E+03  0.00000000000E+00 0. -1.
        -12    1    6    6    0    0 -0.40022676250E+01  0.19482758961E+02  0.26082055906E+02  0.32800452484E+02  0.00000000000E+00 0.  1.
</event>
<event>
12    1  0.1348628E-002  0.1748271E+03  0.7818608E-02  0.1172905E+00
         -2   -1    0    0    0  501 -0.00000000000E+00  0.00000000000E+00  0.14587123398E+02  0.14587123398E+02  0.00000000000E+00 0.  1.
          2   -1    0    0  502    0  0.00000000000E+00 -0.00000000000E+00 -0.21117337314E+04  0.21117337314E+04  0.00000000000E+00 0. -1.
          6    2    1    2  502    0 -0.94252516755E+01 -0.31270797243E+02 -0.11421201645E+04  0.11554177874E+04  0.17171224520E+03 0.  0.
         24    2    3    3    0    0  0.32981531382E+02  0.35258171121E+02 -0.74295903143E+03  0.74850730703E+03  0.77098289541E+02 0.  0.
         -6    2    1    2    0  501  0.94252516755E+01  0.31270797243E+02 -0.95502644349E+03  0.97090306738E+03  0.17178638004E+03 0.  0.
        -24    2    5    5    0    0 -0.23471516125E+02  0.74418463240E+02 -0.50138232642E+03  0.51400155353E+03  0.82002073416E+02 0.  0.
          5    1    3    3  502    0 -0.42406783057E+02 -0.66528968364E+02 -0.39916113305E+03  0.40691048035E+03  0.47000000000E+01 0. -1.
        -13    1    4    4    0    0  0.17669214342E+02  0.53367477063E+02 -0.65497810288E+03  0.65738619090E+03  0.00000000000E+00 0.  1.
         14    1    4    4    0    0  0.15312317040E+02 -0.18109305941E+02 -0.87980928548E+02  0.91121116121E+02  0.00000000000E+00 0. -1.
         -5    1    5    5    0  501  0.32896767801E+02 -0.43147665997E+02 -0.45364411707E+03  0.45690151385E+03  0.47000000000E+01 0.  1.
         13    1    6    6    0    0  0.18814403496E+01  0.32504760983E+02 -0.40084933568E+03  0.40216947823E+03  0.00000000000E+00 0. -1.
        -14    1    6    6    0    0 -0.25352956475E+02  0.41913702257E+02 -0.10053299074E+03  0.11183207530E+03  0.00000000000E+00 0.  1.
</event>
<event>
12    1  0.1348628E-002  0.1969985E+03  0.7818608E-02  0.1152296E+00
          1   -1    0    0  502    0  0.00000000000E+00  0.00000000000E+00  0.16817592301E+03  0.16817592301E+03  0.00000000000E+00 0.  1.
         -1   -1    0    0    0  501 -0.00000000000E+00 -0.00000000000E+00 -0.37194848155E+03  0.37194848155E+03  0.00000000000E+00 0. -1.
          6    2    1    2  502    0  0.63683098526E+02  0.71243689528E+02 -0.26821186093E+03  0.33267122545E+03  0.17205040414E+03 0.  0.
         24    2    3    3    0    0  0.70972009796E+02  0.96692525251E+02 -0.26961245869E+03  0.30574868580E+03  0.80030683959E+02 0.  0.
         -6    2    1    2    0  501 -0.63683098526E+02 -0.71243689528E+02  0.64439302392E+02  0.20745317911E+03  0.17249115193E+03 0.  0.
        -24    2    5    5    0    0  0.14916117948E+02 -0.63939521451E+02 -0.24628516255E+02  0.88346697251E+02  0.53738460382E+02 0.  0.
          5    1    3    3  502    0 -0.72889112706E+01 -0.25448835723E+02  0.14005977612E+01  0.26922539650E+02  0.47000000000E+01 0. -1.
        -13    1    4    4    0    0  0.58614284325E+02  0.91363921418E+02 -0.14878326312E+03  0.18417236451E+03  0.00000000000E+00 0.  1.
         14    1    4    4    0    0  0.12357725471E+02  0.53286038329E+01 -0.12082919556E+03  0.12157632129E+03  0.00000000000E+00 0. -1.
         -5    1    5    5    0  501 -0.78599216474E+02 -0.73041680770E+01  0.89067818647E+02  0.11910648186E+03  0.47000000000E+01 0.  1.
         13    1    6    6    0    0 -0.19645715503E+02 -0.15325377105E+02 -0.10563752281E+02  0.27063151762E+02  0.00000000000E+00 0. -1.
        -14    1    6    6    0    0  0.34561833452E+02 -0.48614144346E+02 -0.14064763974E+02  0.61283545489E+02  0.00000000000E+00 0.  1.
</event>
<event>
12    1  0.1348628E-002  0.1815980E+03  0.7818608E-02  0.1166265E+00
          2   -1    0    0  502    0  0.00000000000E+00  0.00000000000E+00  0.62505010122E+03  0.62505010122E+03  0.00000000000E+00 0.  1.
         -2   -1    0    0    0  501 -0.00000000000E+00 -0.00000000000E+00 -0.53629622388E+02  0.53629622388E+02  0.00000000000E+00 0. -1.
          6    2    1    2  502    0  0.54533632423E+02  0.18219660112E+02  0.32920367941E+03  0.37606017005E+03  0.17245380796E+03 0.  0.
         24    2    3    3    0    0  0.51590561597E+02 -0.22097685499E+02  0.85794249935E+02  0.12927202127E+03  0.78744577019E+02 0.  0.
         -6    2    1    2    0  501 -0.54533632423E+02 -0.18219660112E+02  0.24221679943E+03  0.30261955357E+03  0.17205738343E+03 0.  0.
        -24    2    5    5    0    0 -0.45840100735E+02  0.47796292432E+02  0.91196315694E+02  0.13750456336E+03  0.78771419578E+02 0.  0.
          5    1    3    3  502    0  0.29430708255E+01  0.40317345611E+02  0.24340942947E+03  0.24678814878E+03  0.47000000000E+01 0. -1.
        -13    1    4    4    0    0  0.14820273637E+02  0.26411993179E+02  0.50566904046E+02  0.58942732200E+02  0.00000000000E+00 0.  1.
         14    1    4    4    0    0  0.36770287961E+02 -0.48509678678E+02  0.35227345889E+02  0.70329289066E+02  0.00000000000E+00 0. -1.
         -5    1    5    5    0  501 -0.86935316876E+01 -0.66015952544E+02  0.15102048374E+03  0.16511499021E+03  0.47000000000E+01 0.  1.
         13    1    6    6    0    0 -0.67231005404E+01 -0.21928691997E+02  0.19033882242E+02  0.29805306353E+02  0.00000000000E+00 0. -1.
        -14    1    6    6    0    0 -0.39117000195E+02  0.69724984428E+02  0.72162433451E+02  0.10769925700E+03  0.00000000000E+00 0.  1.
</event>
<event>
12    1  0.1348628E-002  0.2939223E+03  0.7818608E-02  0.1088319E+00
         -2   -1    0    0    0  501 -0.00000000000E+00  0.00000000000E+00  0.56777714814E+02  0.56777714814E+02  0.00000000000E+00 0. -1.
          2   -1    0    0  502    0  0.00000000000E+00 -0.00000000000E+00 -0.23928272260E+04  0.23928272260E+04  0.00000000000E+00 0.  1.
          6    2    1    2  502    0 -0.60305636081E+02  0.23062916499E+03 -0.19063708801E+04  0.19288523370E+04  0.17144918834E+03 0.  0.
         24    2    3    3    0    0 -0.23997031038E+02  0.16664471127E+03 -0.86606763224E+03  0.88594042197E+03  0.80442341924E+02 0.  0.
         -6    2    1    2    0  501  0.60305636081E+02 -0.23062916499E+03 -0.42967863115E+03  0.52075260382E+03  0.17243249935E+03 0.  0.
        -24    2    5    5    0    0  0.28631928816E+01 -0.20986667198E+03 -0.27764192739E+03  0.35683809962E+03  0.78715764717E+02 0.  0.
          5    1    3    3  502    0 -0.36308605043E+02  0.63984453722E+02 -0.10403032478E+04  0.10429119151E+04  0.47000000000E+01 0. -1.
        -11    1    4    4    0    0  0.24751146292E+02  0.19802852088E+02 -0.16216229218E+03  0.16523129606E+03  0.00000000000E+00 0.  1.
         12    1    4    4    0    0 -0.48748177330E+02  0.14684185918E+03 -0.70390534006E+03  0.72070912591E+03  0.00000000000E+00 0. -1.
         -5    1    5    5    0  501  0.57442443199E+02 -0.20762493006E+02 -0.15203670376E+03  0.16391450420E+03  0.47000000000E+01 0.  1.
         11    1    6    6    0    0 -0.14386276991E+02 -0.15701635145E+03 -0.15005003057E+03  0.21766054135E+03  0.00000000000E+00 0. -1.
        -12    1    6    6    0    0  0.17249469872E+02 -0.52850320530E+02 -0.12759189682E+03  0.13917755827E+03  0.00000000000E+00 0.  1.
</event>
<event>
12    1  0.1348628E-002  0.4052982E+03  0.7818608E-02  0.1041960E+00
         -2   -1    0    0    0  501 -0.00000000000E+00  0.00000000000E+00  0.39894477296E+03  0.39894477296E+03  0.00000000000E+00 0.  1.
          2   -1    0    0  502    0  0.00000000000E+00 -0.00000000000E+00 -0.41186694731E+03  0.41186694731E+03  0.00000000000E+00 0. -1.
          6    2    1    2  502    0 -0.19744785226E+03  0.30917538215E+03  0.29015073963E+00  0.40529204648E+03  0.17229767109E+03 0.  0.
         24    2    3    3    0    0 -0.14980646409E+03  0.24969125055E+03  0.60252262809E+02  0.30820647257E+03  0.81075256844E+02 0.  0.
         -6    2    1    2    0  501  0.19744785226E+03 -0.30917538215E+03 -0.13212325091E+02  0.40551967379E+03  0.17232692478E+03 0.  0.
        -24    2    5    5    0    0  0.74676535841E+02 -0.12241250463E+03  0.51855481981E+02  0.17269124324E+03  0.81067059803E+02 0.  0.
          5    1    3    3  502    0 -0.47641388163E+02  0.59484131601E+02 -0.59962112069E+02  0.97085573914E+02  0.47000000000E+01 0. -1.
        -13    1    4    4    0    0 -0.86645209500E+01  0.59144281312E+02  0.36152792774E+02  0.69858030036E+02  0.00000000000E+00 0.  1.
         14    1    4    4    0    0 -0.14114194314E+03  0.19054696924E+03  0.24099470034E+02  0.23834844253E+03  0.00000000000E+00 0. -1.
         -5    1    5    5    0  501  0.12277131642E+03 -0.18676287752E+03 -0.65067807072E+02  0.23282843055E+03  0.47000000000E+01 0.  1.
         11    1    6    6    0    0  0.30957517077E+02  0.71368654307E+00 -0.27382095721E+01  0.31086572724E+02  0.00000000000E+00 0. -1.
        -12    1    6    6    0    0  0.43719018764E+02 -0.12312619117E+03  0.54593691553E+02  0.14160467051E+03  0.00000000000E+00 0.  1.
</event>
<event>
12    1  0.1348628E-002  0.1924704E+03  0.7818608E-02  0.1156252E+00
         -2   -1    0    0    0  501 -0.00000000000E+00  0.00000000000E+00  0.48824993980E+02  0.48824993980E+02  0.00000000000E+00 0.  1.
          2   -1    0    0  502    0  0.00000000000E+00 -0.00000000000E+00 -0.11162940637E+04  0.11162940637E+04  0.00000000000E+00 0. -1.
          6    2    1    2  502    0 -0.34308798794E+02 -0.83397370344E+02 -0.86448632545E+03  0.88577427998E+03  0.17066708276E+03 0.  0.
         24    2    3    3    0    0 -0.44341981261E+02  0.86363417497E+01 -0.28803181457E+03  0.30191405525E+03  0.78415386584E+02 0.  0.
         -6    2    1    2    0  501  0.34308798794E+02  0.83397370344E+02 -0.20298274423E+03  0.27934477766E+03  0.16940866357E+03 0.  0.
        -24    2    5    5    0    0  0.75720495869E+02  0.52975389259E+02 -0.18917188942E+03  0.22592890643E+03  0.81962684530E+02 0.  0.
          5    1    3    3  502    0  0.10033182467E+02 -0.92033712094E+02 -0.57645451088E+03  0.58386022473E+03  0.47000000000E+01 0. -1.
        -13    1    4    4    0    0 -0.29773650487E+02 -0.30714010023E+02 -0.92236464456E+02  0.10167293667E+03  0.00000000000E+00 0.  1.
         14    1    4    4    0    0 -0.14568330774E+02  0.39350351773E+02 -0.19579535011E+03  0.20024111858E+03  0.00000000000E+00 0. -1.
         -5    1    5    5    0  501 -0.41411697076E+02  0.30421981085E+02 -0.13810854817E+02  0.53415871224E+02  0.47000000000E+01 0.  1.
         13    1    6    6    0    0  0.47921171598E+02 -0.14683389697E+02 -0.69858239680E+02  0.85977987133E+02  0.00000000000E+00 0. -1.
        -14    1    6    6    0    0  0.27799324272E+02  0.67658778956E+02 -0.11931364974E+03  0.13995091930E+03  0.00000000000E+00 0.  1.
</event>
<event>
12    1  0.1348628E-002  0.2989038E+03  0.7818608E-02  0.1085790E+00
          1   -1    0    0  502    0  0.00000000000E+00  0.00000000000E+00  0.18195652666E+04  0.18195652666E+04  0.00000000000E+00 0. -1.
         -1   -1    0    0    0  501 -0.00000000000E+00 -0.00000000000E+00 -0.51484421680E+02  0.51484421680E+02  0.00000000000E+00 0.  1.
          6    2    1    2  502    0  0.78270901126E+02 -0.23090265903E+03  0.10813922613E+04  0.11215778815E+04  0.17054427442E+03 0.  0.
         24    2    3    3    0    0  0.46790225336E+02 -0.12910645830E+03  0.37873035099E+03  0.41086742735E+03  0.80731414762E+02 0.  0.
         -6    2    1    2    0  501 -0.78270901126E+02  0.23090265903E+03  0.68668858357E+03  0.74947180674E+03  0.17528378815E+03 0.  0.
        -24    2    5    5    0    0 -0.24950675399E+02  0.22889976231E+03  0.59815158113E+03  0.64599258724E+03  0.80644103192E+02 0.  0.
          5    1    3    3  502    0  0.31480675791E+02 -0.10179620073E+03  0.70266191033E+03  0.71071045416E+03  0.47000000000E+01 0. -1.
        -11    1    4    4    0    0  0.41405640265E+02 -0.27745151125E+02  0.19164173167E+03  0.19801710475E+03  0.00000000000E+00 0.  1.
         12    1    4    4    0    0  0.53845850711E+01 -0.10136130718E+03  0.18708861932E+03  0.21285032259E+03  0.00000000000E+00 0. -1.
         -5    1    5    5    0  501 -0.53320225727E+02  0.20028967218E+01  0.88537002443E+02  0.10347921950E+03  0.47000000000E+01 0.  1.
         13    1    6    6    0    0  0.27159311143E+02  0.42803211616E+02  0.12079620510E+03  0.13100177966E+03  0.00000000000E+00 0. -1.
        -14    1    6    6    0    0 -0.52109986542E+02  0.18609655069E+03  0.47735537603E+03  0.51499080759E+03  0.00000000000E+00 0.  1.
</event>
<event>
12    1  0.1348628E-002  0.1877820E+03  0.7818608E-02  0.1160477E+00
          4   -1    0    0  502    0  0.00000000000E+00  0.00000000000E+00  0.32897870833E+02  0.32897870833E+02  0.00000000000E+00 0. -1.
         -4   -1    0    0    0  501 -0.00000000000E+00 -0.00000000000E+00 -0.14243409673E+04  0.14243409673E+04  0.00000000000E+00 0.  1.
          6    2    1    2  502    0  0.57607473250E+02 -0.50833240785E+02 -0.10532874207E+04  0.10695939916E+04  0.16945287501E+03 0.  0.
         24    2    3    3    0    0  0.83175795256E+02 -0.14115284087E+02 -0.45227673448E+03  0.46690179617E+03  0.79533568758E+02 0.  0.
         -6    2    1    2    0  501 -0.57607473250E+02  0.50833240785E+02 -0.33815567581E+03  0.38764484660E+03  0.17325307119E+03 0.  0.
        -24    2    5    5    0    0 -0.90472567223E+01  0.88438837722E+02 -0.17859933329E+03  0.21661095527E+03  0.84375963501E+02 0.  0.
          5    1    3    3  502    0 -0.25568322005E+02 -0.36717956698E+02 -0.60101068623E+03  0.60269219540E+03  0.47000000000E+01 0. -1.
        -13    1    4    4    0    0  0.17991388361E+02 -0.37268093947E+02 -0.10617490168E+03  0.11395486224E+03  0.00000000000E+00 0.  1.
         14    1    4    4    0    0  0.65184406895E+02  0.23152809860E+02 -0.34610183280E+03  0.35294693394E+03  0.00000000000E+00 0. -1.
         -5    1    5    5    0  501 -0.48560216528E+02 -0.37605596937E+02 -0.15955634251E+03  0.17103389134E+03  0.47000000000E+01 0.  1.
         11    1    6    6    0    0 -0.36883534562E+02  0.88453664304E+01 -0.62788018997E+02  0.73355101790E+02  0.00000000000E+00 0. -1.
        -12    1    6    6    0    0  0.27836277839E+02  0.79593471292E+02 -0.11581131430E+03  0.14325585348E+03  0.00000000000E+00 0.  1.
</event>
<event>
12    1  0.1348628E-002  0.1819616E+03  0.7818608E-02  0.1165918E+00
         -4   -1    0    0    0  501 -0.00000000000E+00  0.00000000000E+00  0.27613600563E+03  0.27613600563E+03  0.00000000000E+00 0.  1.
          4   -1    0    0  502    0  0.00000000000E+00 -0.00000000000E+00 -0.12111273045E+03  0.12111273045E+03  0.00000000000E+00 0. -1.
          6    2    1    2  502    0  0.39707641492E+02  0.43914028248E+02  0.97161998566E+02  0.20590117908E+03  0.17160915743E+03 0.  0.
         24    2    3    3    0    0 -0.21764173188E+02  0.48312504926E+02  0.10464440503E+03  0.14364198696E+03  0.82914362736E+02 0.  0.
         -6    2    1    2    0  501 -0.39707641492E+02 -0.43914028248E+02  0.57861276620E+02  0.19134755700E+03  0.17251325041E+03 0.  0.
        -24    2    5    5    0    0 -0.30874871180E+01 -0.88873173848E+02  0.18415466228E+02  0.12105941834E+03  0.80051731805E+02 0.  0.
          5    1    3    3  502    0  0.61471814680E+02 -0.43984766780E+01 -0.74824064606E+01  0.62259192121E+02  0.47000000000E+01 0. -1.
        -13    1    4    4    0    0  0.24690436556E+02  0.35460309395E+02  0.23303586067E+02  0.49092854096E+02  0.00000000000E+00 0.  1.
         14    1    4    4    0    0 -0.46454609744E+02  0.12852195531E+02  0.81340818960E+02  0.94549132865E+02  0.00000000000E+00 0. -1.
         -5    1    5    5    0  501 -0.36620154374E+02  0.44959145600E+02  0.39445810393E+02  0.70288138665E+02  0.47000000000E+01 0.  1.
         11    1    6    6    0    0  0.29018359458E+02 -0.77495131416E+02  0.89413343202E+00  0.82754818914E+02  0.00000000000E+00 0. -1.
        -12    1    6    6    0    0 -0.32105846576E+02 -0.11378042432E+02  0.17521332796E+02  0.38304599422E+02  0.00000000000E+00 0.  1.
</event>
<event>
12    1  0.1348628E-002  0.2898088E+03  0.7818608E-02  0.1090449E+00
         -2   -1    0    0    0  501 -0.00000000000E+00  0.00000000000E+00  0.50591601004E+02  0.50591601004E+02  0.00000000000E+00 0. -1.
          2   -1    0    0  502    0  0.00000000000E+00 -0.00000000000E+00 -0.18808465532E+04  0.18808465532E+04  0.00000000000E+00 0.  1.
          6    2    1    2  502    0  0.22952127097E+03  0.39627946558E+02 -0.58299362171E+03  0.65084215040E+03  0.17164950858E+03 0.  0.
         24    2    3    3    0    0  0.58380163656E+02  0.58759989141E+02 -0.27750721252E+03  0.30012951893E+03  0.78781313139E+02 0.  0.
         -6    2    1    2    0  501 -0.22952127097E+03 -0.39627946558E+02 -0.12472613305E+04  0.12805960039E+04  0.17324811825E+03 0.  0.
        -24    2    5    5    0    0 -0.11335720384E+03 -0.26669612006E+01 -0.93648198211E+03  0.94673061431E+03  0.80270697727E+02 0.  0.
          5    1    3    3  502    0  0.17114110732E+03 -0.19132042583E+02 -0.30548640919E+03  0.35071263146E+03  0.47000000000E+01 0. -1.
        -13    1    4    4    0    0  0.68357101745E+02  0.70804301730E+02 -0.24592683010E+03  0.26488855820E+03  0.00000000000E+00 0.  1.
         14    1    4    4    0    0 -0.99769380885E+01 -0.12044312588E+02 -0.31580382423E+02  0.35240960732E+02  0.00000000000E+00 0. -1.
         -5    1    5    5    0  501 -0.11616406713E+03 -0.36960985358E+02 -0.31077934842E+03  0.33386538954E+03  0.47000000000E+01 0.  1.
         13    1    6    6    0    0  0.98184089643E+01  0.30548764434E+01 -0.17746386646E+03  0.17776151811E+03  0.00000000000E+00 0. -1.
        -14    1    6    6    0    0 -0.12317561281E+03 -0.57218376440E+01 -0.75901811565E+03  0.76896909620E+03  0.00000000000E+00 0.  1.
</event>
<event>
12    1  0.1348628E-002  0.2050679E+03  0.7818608E-02  0.1145532E+00
          1   -1    0    0  502    0  0.00000000000E+00  0.00000000000E+00  0.15813261564E+03  0.15813261564E+03  0.00000000000E+00 0.  1.
         -1   -1    0    0    0  501 -0.00000000000E+00 -0.00000000000E+00 -0.27677630520E+03  0.27677630520E+03  0.00000000000E+00 0. -1.
          6    2    1    2  502    0 -0.95195502314E+02 -0.70354457528E+02 -0.10077041766E+03  0.22433947430E+03  0.16174544599E+03 0.  0.
         24    2    3    3    0    0 -0.47020511240E+02 -0.26135363450E+02  0.84645047696E+01  0.96940430644E+02  0.80198588220E+02 0.  0.
         -6    2    1    2    0  501  0.95195502314E+02  0.70354457528E+02 -0.17873271898E+02  0.21056944655E+03  0.17322847519E+03 0.  0.
        -24    2    5    5    0    0  0.72696933190E+02 -0.26442138492E+02 -0.28118403846E+01  0.10994786172E+03  0.78080695867E+02 0.  0.
          5    1    3    3  502    0 -0.48174991074E+02 -0.44219094078E+02 -0.10923492243E+03  0.12739904365E+03  0.47000000000E+01 0. -1.
        -11    1    4    4    0    0  0.12581456733E+02 -0.16805173443E+02  0.26655473894E+02  0.33929650698E+02  0.00000000000E+00 0.  1.
         12    1    4    4    0    0 -0.59601967972E+02 -0.93301900069E+01 -0.18190969124E+02  0.63010779946E+02  0.00000000000E+00 0. -1.
         -5    1    5    5    0  501  0.22498569124E+02  0.96796596020E+02 -0.15061431513E+02  0.10062158483E+03  0.47000000000E+01 0.  1.
         13    1    6    6    0    0  0.54496143555E+02  0.21276215847E+02  0.27979976730E+01  0.58569068748E+02  0.00000000000E+00 0. -1.
        -14    1    6    6    0    0  0.18200789636E+02 -0.47718354339E+02 -0.56098380576E+01  0.51378792971E+02  0.00000000000E+00 0.  1.
</event>
<event>
12    1  0.1348628E-002  0.2366897E+03  0.7818608E-02  0.1122018E+00
          2   -1    0    0  502    0  0.00000000000E+00  0.00000000000E+00  0.30471180715E+03  0.30471180715E+03  0.00000000000E+00 0. -1.
         -2   -1    0    0    0  501 -0.00000000000E+00 -0.00000000000E+00 -0.18429334235E+03  0.18429334235E+03  0.00000000000E+00 0.  1.
          6    2    1    2  502    0 -0.14305766597E+03  0.74839033334E+02  0.48236193713E+02  0.24149570293E+03  0.17299441449E+03 0.  0.
         24    2    3    3    0    0 -0.15537021026E+03  0.39821951981E+02  0.77977667282E+02  0.19369988739E+03  0.75587298419E+02 0.  0.
         -6    2    1    2    0  501  0.14305766597E+03 -0.74839033334E+02  0.72182271089E+02  0.24750944656E+03  0.17315966382E+03 0.  0.
        -24    2    5    5    0    0  0.53648351619E+02  0.27669034665E+02  0.23154152410E+02  0.10284509048E+03  0.79982977889E+02 0.  0.
          5    1    3    3  502    0  0.12312544289E+02  0.35017081353E+02 -0.29741473570E+02  0.47795815543E+02  0.47000000000E+01 0. -1.
        -11    1    4    4    0    0 -0.58325101550E+02  0.51712661652E+01 -0.85099973802E+01  0.59169075707E+02  0.00000000000E+00 0.  1.
         12    1    4    4    0    0 -0.97045108712E+02  0.34650685816E+02  0.86487664663E+02  0.13453081168E+03  0.00000000000E+00 0. -1.
         -5    1    5    5    0  501  0.89409314355E+02 -0.10250806800E+03  0.49028118679E+02  0.14466435608E+03  0.47000000000E+01 0.  1.
         11    1    6    6    0    0  0.44631054144E+02  0.31405732440E+02  0.50163723180E+02  0.74125907397E+02  0.00000000000E+00 0. -1.
        -12    1    6    6    0    0  0.90172974745E+01 -0.37366977750E+01 -0.27009570770E+02  0.28719183087E+02  0.00000000000E+00 0.  1.
</event>
<event>
12    1  0.1348628E-002  0.3125203E+03  0.7818608E-02  0.1079144E+00
         -2   -1    0    0    0  501 -0.00000000000E+00  0.00000000000E+00  0.22510798390E+03  0.22510798390E+03  0.00000000000E+00 0.  1.
          2   -1    0    0  502    0  0.00000000000E+00 -0.00000000000E+00 -0.44268917942E+03  0.44268917942E+03  0.00000000000E+00 0. -1.
          6    2    1    2  502    0  0.21984235409E+03  0.14065788013E+03 -0.61577552766E+02  0.31823594595E+03  0.17136809036E+03 0.  0.
         24    2    3    3    0    0  0.22387798687E+03  0.16298650242E+03 -0.63618063276E+02  0.29497423086E+03  0.79224907200E+02 0.  0.
         -6    2    1    2    0  501 -0.21984235409E+03 -0.14065788013E+03 -0.15600364275E+03  0.34956121737E+03  0.17245465562E+03 0.  0.
        -24    2    5    5    0    0 -0.16781761395E+03 -0.38805862030E+02 -0.13573232292E+03  0.23331396543E+03  0.79646070206E+02 0.  0.
          5    1    3    3  502    0 -0.40356327816E+01 -0.22328622295E+02  0.20405105102E+01  0.23261715085E+02  0.47000000000E+01 0. -1.
        -13    1    4    4    0    0  0.64738346788E+02  0.54102560849E+02  0.16846924741E+02  0.86034641328E+02  0.00000000000E+00 0.  1.
         14    1    4    4    0    0  0.15913964008E+03  0.10888394157E+03 -0.80464988017E+02  0.20893958953E+03  0.00000000000E+00 0. -1.
         -5    1    5    5    0  501 -0.52024740141E+02 -0.10185201810E+03 -0.20271319834E+02  0.11624725195E+03  0.47000000000E+01 0.  1.
         13    1    6    6    0    0 -0.40461669888E+02 -0.31491088540E+02 -0.77881123273E+02  0.93243255788E+02  0.00000000000E+00 0. -1.
        -14    1    6    6    0    0 -0.12735594406E+03 -0.73147734893E+01 -0.57851199647E+02  0.14007070964E+03  0.00000000000E+00 0.  1.
</event>
<event>
12    1  0.1348628E-002  0.1965543E+03  0.7818608E-02  0.1152679E+00
         -2   -1    0    0    0  501 -0.00000000000E+00  0.00000000000E+00  0.40969839126E+02  0.40969839126E+02  0.00000000000E+00 0. -1.
          2   -1    0    0  502    0  0.00000000000E+00 -0.00000000000E+00 -0.94726994969E+03  0.94726994969E+03  0.00000000000E+00 0.  1.
          6    2    1    2  502    0  0.65688687727E+02  0.68417773888E+02 -0.48620029564E+03  0.52439241737E+03  0.17204849445E+03 0.  0.
         24    2    3    3    0    0  0.58997447692E+02 -0.44301119944E+01 -0.13678790891E+03  0.16737323978E+03  0.76174435633E+02 0.  0.
         -6    2    1    2    0  501 -0.65688687727E+02 -0.68417773888E+02 -0.42009981492E+03  0.46384737144E+03  0.17226297923E+03 0.  0.
        -24    2    5    5    0    0  0.18792824184E+02 -0.53275193857E+02 -0.13830690167E+03  0.16923617080E+03  0.79502615900E+02 0.  0.
          5    1    3    3  502    0  0.66912400345E+01  0.72847885882E+02 -0.34941238673E+03  0.35701917759E+03  0.47000000000E+01 0. -1.
        -11    1    4    4    0    0  0.32150906343E+01 -0.33212765885E+02 -0.54028775341E+02  0.63502229806E+02  0.00000000000E+00 0.  1.
         12    1    4    4    0    0  0.55782357058E+02  0.28782653890E+02 -0.82759133569E+02  0.10387100997E+03  0.00000000000E+00 0. -1.
         -5    1    5    5    0  501 -0.84481511911E+02 -0.15142580030E+02 -0.28179291325E+03  0.29461120064E+03  0.47000000000E+01 0.  1.
         13    1    6    6    0    0  0.91495550976E+01 -0.10562404895E+02  0.82839978075E+01  0.16245103118E+02  0.00000000000E+00 0. -1.
        -14    1    6    6    0    0  0.96432690863E+01 -0.42712788962E+02 -0.14659089948E+03  0.15299106768E+03  0.00000000000E+00 0.  1.
</event>
<event>
12    1  0.1348628E-002  0.2427941E+03  0.7818608E-02  0.1117945E+00
         -1   -1    0    0    0  501 -0.00000000000E+00  0.00000000000E+00  0.29619642370E+02  0.29619642370E+02  0.00000000000E+00 0.  1.
          1   -1    0    0  502    0  0.00000000000E+00 -0.00000000000E+00 -0.19977680047E+04  0.19977680047E+04  0.00000000000E+00 0. -1.
          6    2    1    2  502    0 -0.20533744728E+02 -0.17029870428E+03 -0.10471097697E+04  0.10749256344E+04  0.17205512563E+03 0.  0.
         24    2    3    3    0    0  0.46772345695E+02 -0.53952596037E+02 -0.41458790022E+03  0.42826302366E+03  0.80172036788E+02 0.  0.
         -6    2    1    2    0  501  0.20533744728E+02  0.17029870428E+03 -0.92103859265E+03  0.95246201273E+03  0.17160569102E+03 0.  0.
        -24    2    5    5    0    0  0.54790384973E+02  0.13638745816E+03 -0.47028290529E+03  0.49911196067E+03  0.79644291991E+02 0.  0.
          5    1    3    3  502    0 -0.67306090423E+02 -0.11634610824E+03 -0.63252186950E+03  0.64666261072E+03  0.47000000000E+01 0. -1.
        -11    1    4    4    0    0  0.41101218240E+02 -0.74665516508E+02 -0.34863013606E+03  0.35889722940E+03  0.00000000000E+00 0.  1.
         12    1    4    4    0    0  0.56711274553E+01  0.20712920472E+02 -0.65957764154E+02  0.69365794260E+02  0.00000000000E+00 0. -1.
         -5    1    5    5    0  501 -0.34256640245E+02  0.33911246116E+02 -0.45075568736E+03  0.45335005206E+03  0.47000000000E+01 0.  1.
         11    1    6    6    0    0  0.44922699129E+02  0.11537697241E+03 -0.45444877650E+03  0.47101335981E+03  0.00000000000E+00 0. -1.
        -12    1    6    6    0    0  0.98676858430E+01  0.21010485755E+02 -0.15834128785E+02  0.28098600853E+02  0.00000000000E+00 0.  1.
</event>
<event>
12    1  0.1348628E-002  0.1938832E+03  0.7818608E-02  0.1155005E+00
         -2   -1    0    0    0  501 -0.00000000000E+00  0.00000000000E+00  0.23379920081E+02  0.23379920081E+02  0.00000000000E+00 0.  1.
          2   -1    0    0  502    0  0.00000000000E+00 -0.00000000000E+00 -0.21275921275E+04  0.21275921275E+04  0.00000000000E+00 0. -1.
          6    2    1    2  502    0 -0.83464796258E+02 -0.28709332979E+02 -0.15854598348E+04  0.15973234989E+04  0.17311520503E+03 0.  0.
         24    2    3    3    0    0 -0.29436347684E+02 -0.81940942574E+02 -0.98973830093E+03  0.99677465535E+03  0.79981201470E+02 0.  0.
         -6    2    1    2    0  501  0.83464796258E+02  0.28709332979E+02 -0.51875237260E+03  0.55364854871E+03  0.17213974960E+03 0.  0.
        -24    2    5    5    0    0  0.10354290997E+03  0.14760423672E+02 -0.51057157968E+03  0.52744324211E+03  0.81080400598E+02 0.  0.
          5    1    3    3  502    0 -0.54028448573E+02  0.53231609595E+02 -0.59572153388E+03  0.60054884352E+03  0.47000000000E+01 0. -1.
        -11    1    4    4    0    0  0.17573918019E+02  0.22177531616E+01 -0.79683773682E+02  0.81628823413E+02  0.00000000000E+00 0.  1.
         12    1    4    4    0    0 -0.47010265704E+02 -0.84158695736E+02 -0.91005452725E+03  0.91514583194E+03  0.00000000000E+00 0. -1.
         -5    1    5    5    0  501 -0.20078113712E+02  0.13948909307E+02 -0.81807929247E+01  0.26205306600E+02  0.47000000000E+01 0.  1.
         11    1    6    6    0    0  0.20407086630E+02  0.39343836515E+02 -0.20957539443E+03  0.21421072010E+03  0.00000000000E+00 0. -1.
        -12    1    6    6    0    0  0.83135823341E+02 -0.24583412843E+02 -0.30099618525E+03  0.31323252201E+03  0.00000000000E+00 0.  1.
</event>
<event>
12    1  0.1348628E-002  0.1728547E+03  0.7818608E-02  0.1174903E+00
         -1   -1    0    0    0  501 -0.00000000000E+00  0.00000000000E+00  0.45793925300E+03  0.45793925300E+03  0.00000000000E+00 0. -1.
          1   -1    0    0  502    0  0.00000000000E+00 -0.00000000000E+00 -0.65267444013E+02  0.65267444013E+02  0.00000000000E+00 0.  1.
          6    2    1    2  502    0  0.13642167824E+02  0.84117291427E+01  0.20222547331E+03  0.26742327050E+03  0.17425038772E+03 0.  0.
         24    2    3    3    0    0 -0.22531271877E+02  0.47980951908E+02  0.18788702440E+03  0.21172836726E+03  0.81960585679E+02 0.  0.
         -6    2    1    2    0  501 -0.13642167824E+02 -0.84117291427E+01  0.19044633568E+03  0.25578342651E+03  0.16999555457E+03 0.  0.
        -24    2    5    5    0    0 -0.19625243481E+02 -0.70239423369E+02  0.11132383701E+03  0.15508128769E+03  0.79614586153E+02 0.  0.
          5    1    3    3  502    0  0.36173439701E+02 -0.39569222765E+02  0.14338448904E+02  0.55694903240E+02  0.47000000000E+01 0. -1.
        -13    1    4    4    0    0  0.18453660653E+02  0.46455008491E+02  0.63865015120E+02  0.81100835764E+02  0.00000000000E+00 0.  1.
         14    1    4    4    0    0 -0.40984932529E+02  0.15259434161E+01  0.12402200928E+03  0.13062753149E+03  0.00000000000E+00 0. -1.
         -5    1    5    5    0  501  0.59830756571E+01  0.61827694226E+02  0.79122498675E+02  0.10070213883E+03  0.47000000000E+01 0.  1.
         13    1    6    6    0    0 -0.36793182259E+02 -0.51453808518E+02  0.11308243960E+03  0.12957187510E+03  0.00000000000E+00 0. -1.
        -14    1    6    6    0    0  0.17167938778E+02 -0.18785614851E+02 -0.17586025969E+01  0.25509412583E+02  0.00000000000E+00 0.  1.
</event>
<event>
12    1  0.1348628E-002  0.1869436E+03  0.7818608E-02  0.1161247E+00
          1   -1    0    0  502    0  0.00000000000E+00  0.00000000000E+00  0.60188112405E+03  0.60188112405E+03  0.00000000000E+00 0. -1.
         -1   -1    0    0    0  501 -0.00000000000E+00 -0.00000000000E+00 -0.64347465881E+02  0.64347465881E+02  0.00000000000E+00 0.  1.
          6    2    1    2  502    0 -0.23190723312E+02 -0.67860473490E+02  0.37370466609E+03  0.41815083116E+03  0.17335537669E+03 0.  0.
         24    2    3    3    0    0  0.15186122975E+02  0.25755797189E+02  0.17822238084E+03  0.19798679614E+03  0.80880003673E+02 0.  0.
         -6    2    1    2    0  501  0.23190723312E+02  0.67860473490E+02  0.16382899208E+03  0.24807775877E+03  0.17192958513E+03 0.  0.
        -24    2    5    5    0    0  0.14433507904E+02  0.61786039369E+02  0.19219723386E+03  0.21741125076E+03  0.79385354069E+02 0.  0.
          5    1    3    3  502    0 -0.38376846286E+02 -0.93616270679E+02  0.19548228526E+03  0.22016403502E+03  0.47000000000E+01 0. -1.
        -13    1    4    4    0    0 -0.23551318033E+02 -0.23440215051E+01  0.12145279628E+03  0.12373738619E+03  0.00000000000E+00 0.  1.
         14    1    4    4    0    0  0.38737441008E+02  0.28099818694E+02  0.56769584562E+02  0.74249409949E+02  0.00000000000E+00 0. -1.
         -5    1    5    5    0  501  0.87572154080E+01  0.60744341206E+01 -0.28368241788E+02  0.30666508014E+02  0.47000000000E+01 0.  1.
         13    1    6    6    0    0  0.40512397401E+02  0.29770468734E+02  0.15071997860E+03  0.15888375342E+03  0.00000000000E+00 0. -1.
        -14    1    6    6    0    0 -0.26078889497E+02  0.32015570635E+02  0.41477255263E+02  0.58527497338E+02  0.00000000000E+00 0.  1.
</event>
<event>
12    1  0.1348628E-002  0.1909832E+03  0.7818608E-02  0.1157578E+00
          2   -1    0    0  502    0  0.00000000000E+00  0.00000000000E+00  0.20644272109E+04  0.20644272109E+04  0.00000000000E+00 0.  1.
         -2   -1    0    0    0  501 -0.00000000000E+00 -0.00000000000E+00 -0.17757849814E+02  0.17757849814E+02  0.00000000000E+00 0. -1.
          6    2    1    2  502    0 -0.16225964848E+02 -0.85925518473E+02  0.95558992544E+03  0.97470964845E+03  0.17105647175E+03 0.  0.
         24    2    3    3    0    0 -0.68329523047E+01 -0.45956665463E+02  0.21491443571E+03  0.23288216920E+03  0.76727998249E+02 0.  0.
         -6    2    1    2    0  501  0.16225964848E+02  0.85925518473E+02  0.10910794356E+04  0.11074754122E+04  0.16852589477E+03 0.  0.
        -24    2    5    5    0    0 -0.42752173518E+02  0.18521598676E+02  0.41058799419E+03  0.42109912981E+03  0.81062804038E+02 0.  0.
          5    1    3    3  502    0 -0.93930125430E+01 -0.39968853010E+02  0.74067548973E+03  0.74182747926E+03  0.47000000000E+01 0. -1.
        -11    1    4    4    0    0 -0.33420657999E+02 -0.40940460863E+02  0.18565272658E+03  0.19302848650E+03  0.00000000000E+00 0.  1.
         12    1    4    4    0    0  0.26587705695E+02 -0.50162045999E+01  0.29261709133E+02  0.39853682691E+02  0.00000000000E+00 0. -1.
         -5    1    5    5    0  501  0.58978138366E+02  0.67403919797E+02  0.68049144144E+03  0.68637628243E+03  0.47000000000E+01 0.  1.
         11    1    6    6    0    0 -0.22581829554E+02  0.40990027731E+02  0.11775638840E+03  0.12671498888E+03  0.00000000000E+00 0. -1.
        -12    1    6    6    0    0 -0.20170343964E+02 -0.22468429055E+02  0.29283160579E+03  0.29438414093E+03  0.00000000000E+00 0.  1.
</event>
<event>
12    1  0.1348628E-002  0.1740975E+03  0.7818608E-02  0.1173641E+00
         -1   -1    0    0    0  501 -0.00000000000E+00  0.00000000000E+00  0.76407819728E+02  0.76407819728E+02  0.00000000000E+00 0.  1.
          1   -1    0    0  502    0  0.00000000000E+00 -0.00000000000E+00 -0.77010936694E+03  0.77010936694E+03  0.00000000000E+00 0. -1.
          6    2    1    2  502    0  0.23705797102E+02 -0.36884112308E+01 -0.51720692548E+02  0.18124698563E+03  0.17204612919E+03 0.  0.
         24    2    3    3    0    0  0.79890356355E+00  0.62137838613E+02 -0.12384859564E+02  0.10107704927E+03  0.78749196238E+02 0.  0.
         -6    2    1    2    0  501 -0.23705797102E+02  0.36884112308E+01 -0.64198085466E+03  0.66527020103E+03  0.17282781441E+03 0.  0.
        -24    2    5    5    0    0 -0.28574658120E+00 -0.18855871917E+02 -0.61890914466E+03  0.62513122656E+03  0.85935414835E+02 0.  0.
          5    1    3    3  502    0  0.22906893538E+02 -0.65826249844E+02 -0.39335832984E+02  0.80169936364E+02  0.47000000000E+01 0. -1.
        -11    1    4    4    0    0 -0.12427424124E+02  0.61708892234E+02 -0.37081826737E+02  0.73058128400E+02  0.00000000000E+00 0.  1.
         12    1    4    4    0    0  0.13226327688E+02  0.42894637924E+00  0.24696967174E+02  0.28018920869E+02  0.00000000000E+00 0. -1.
         -5    1    5    5    0  501 -0.23420050521E+02  0.22544283148E+02 -0.23071710002E+02  0.40138974469E+02  0.47000000000E+01 0.  1.
         13    1    6    6    0    0 -0.42851638349E+02 -0.14083550836E+02 -0.32698797672E+03  0.33008445318E+03  0.00000000000E+00 0. -1.
        -14    1    6    6    0    0  0.42565891768E+02 -0.47723210805E+01 -0.29192116794E+03  0.29504677338E+03  0.00000000000E+00 0.  1.
</event>
<event>
12    1  0.1348628E-002  0.2319359E+03  0.7818608E-02  0.1125285E+00
          2   -1    0    0  502    0  0.00000000000E+00  0.00000000000E+00  0.53545739771E+03  0.53545739771E+03  0.00000000000E+00 0.  1.
         -2   -1    0    0    0  501 -0.00000000000E+00 -0.00000000000E+00 -0.10426674720E+03  0.10426674720E+03  0.00000000000E+00 0. -1.
          6    2    1    2  502    0 -0.38867265675E+01  0.15510591083E+03  0.27689416876E+03  0.36135309819E+03  0.17272154080E+03 0.  0.
         24    2    3    3    0    0  0.29423292572E+02  0.16118152004E+03  0.26948508886E+03  0.32637517848E+03  0.83984114315E+02 0.  0.
         -6    2    1    2    0  501  0.38867265675E+01 -0.15510591083E+03  0.15429648175E+03  0.27837104672E+03  0.17207581223E+03 0.  0.
        -24    2    5    5    0    0 -0.13151868321E+02 -0.15022581427E+03  0.56658438217E+02  0.17902615957E+03  0.78098785367E+02 0.  0.
          5    1    3    3  502    0 -0.33310019139E+02 -0.60756092125E+01  0.74090798989E+01  0.34977919711E+02  0.47000000000E+01 0. -1.
        -11    1    4    4    0    0 -0.24495256272E+02  0.16071982463E+02  0.44439932333E+02  0.53228129649E+02  0.00000000000E+00 0.  1.
         12    1    4    4    0    0  0.53918548844E+02  0.14510953758E+03  0.22504515653E+03  0.27314704883E+03  0.00000000000E+00 0. -1.
         -5    1    5    5    0  501  0.17038594889E+02 -0.48800965605E+01  0.97638043531E+02  0.99344887149E+02  0.47000000000E+01 0.  1.
         13    1    6    6    0    0  0.23343770347E+02 -0.10228865484E+03  0.15491233502E+02  0.10605601746E+03  0.00000000000E+00 0. -1.
        -14    1    6    6    0    0 -0.36495638668E+02 -0.47937159425E+02  0.41167204715E+02  0.72970142110E+02  0.00000000000E+00 0.  1.
</event>
<event>
12    1  0.1348628E-002  0.2619532E+03  0.7818608E-02  0.1105975E+00
          2   -1    0    0  502    0  0.00000000000E+00  0.00000000000E+00  0.52327935246E+03  0.52327935246E+03  0.00000000000E+00 0. -1.
         -2   -1    0    0    0  501 -0.00000000000E+00 -0.00000000000E+00 -0.18426197343E+03  0.18426197343E+03  0.00000000000E+00 0.  1.
          6    2    1    2  502    0 -0.74423806950E+02 -0.18041103200E+03  0.35902175024E+03  0.44385987596E+03  0.17328568561E+03 0.  0.
         24    2    3    3    0    0 -0.51403542290E+01 -0.16734507710E+03  0.22563169159E+03  0.29290983871E+03  0.82799246949E+02 0.  0.
         -6    2    1    2    0  501  0.74423806950E+02  0.18041103200E+03 -0.20004371202E+02  0.26368144993E+03  0.17618367876E+03 0.  0.
        -24    2    5    5    0    0  0.76407846622E+02  0.35577422505E+02  0.85128890432E+01  0.11597892800E+03  0.79213196136E+02 0.  0.
          5    1    3    3  502    0 -0.69283452721E+02 -0.13065954901E+02  0.13339005865E+03  0.15095003725E+03  0.47000000000E+01 0. -1.
        -11    1    4    4    0    0 -0.32504505894E+02 -0.43415491384E+02  0.37366969571E+02  0.65861507806E+02  0.00000000000E+00 0.  1.
         12    1    4    4    0    0  0.27364151665E+02 -0.12392958571E+03  0.18826472202E+03  0.22704833091E+03  0.00000000000E+00 0. -1.
         -5    1    5    5    0  501 -0.19840396720E+01  0.14483360950E+03 -0.28517260245E+02  0.14770252193E+03  0.47000000000E+01 0.  1.
         11    1    6    6    0    0  0.65574383731E+02  0.11127015625E+02 -0.26778016271E+02  0.71699877503E+02  0.00000000000E+00 0. -1.
        -12    1    6    6    0    0  0.10833462890E+02  0.24450406880E+02  0.35290905315E+02  0.44279050495E+02  0.00000000000E+00 0.  1.
</event>
<event>
12    1  0.1348628E-002  0.2954458E+03  0.7818608E-02  0.1087540E+00
         -1   -1    0    0    0  501 -0.00000000000E+00  0.00000000000E+00  0.40456511556E+03  0.40456511556E+03  0.00000000000E+00 0. -1.
          1   -1    0    0  502    0  0.00000000000E+00 -0.00000000000E+00 -0.23981787467E+03  0.23981787467E+03  0.00000000000E+00 0.  1.
          6    2    1    2  502    0 -0.22619101440E+03 -0.69013054424E+02 -0.18785723169E+02  0.29935873113E+03  0.18258578759E+03 0.  0.
         24    2    3    3    0    0 -0.19260258611E+03 -0.18168287385E+02 -0.68263817762E+02  0.22072321310E+03  0.81442894985E+02 0.  0.
         -6    2    1    2    0  501  0.22619101440E+03  0.69013054424E+02  0.18353296406E+03  0.34502425911E+03  0.17155819362E+03 0.  0.
        -24    2    5    5    0    0  0.23018062012E+03  0.40040895625E+02  0.19350125034E+03  0.31377110454E+03  0.80144750048E+02 0.  0.
          5    1    3    3  502    0 -0.33588428289E+02 -0.50844767039E+02  0.49478094593E+02  0.78635518023E+02  0.47000000000E+01 0. -1.
        -11    1    4    4    0    0 -0.17060674396E+02  0.13399160185E+02 -0.32089257174E+02  0.38734022906E+02  0.00000000000E+00 0.  1.
         12    1    4    4    0    0 -0.17554191172E+03 -0.31567447570E+02 -0.36174560589E+02  0.18198919020E+03  0.00000000000E+00 0. -1.
         -5    1    5    5    0  501 -0.39896057158E+01  0.28972158799E+02 -0.99682862751E+01  0.31253154569E+02  0.47000000000E+01 0.  1.
         11    1    6    6    0    0  0.63534354616E+02 -0.12448358839E+02  0.89436429375E+02  0.11041037430E+03  0.00000000000E+00 0. -1.
        -12    1    6    6    0    0  0.16664626550E+03  0.52489254464E+02  0.10406482096E+03  0.20336073023E+03  0.00000000000E+00 0.  1.
</event>
<event>
12    1  0.1348628E-002  0.1910994E+03  0.7818608E-02  0.1157473E+00
         -2   -1    0    0    0  501 -0.00000000000E+00  0.00000000000E+00  0.32050565936E+02  0.32050565936E+02  0.00000000000E+00 0. -1.
          2   -1    0    0  502    0  0.00000000000E+00 -0.00000000000E+00 -0.13651913224E+04  0.13651913224E+04  0.00000000000E+00 0.  1.
          6    2    1    2  502    0  0.87039623644E+02  0.75724845640E+01 -0.94682182615E+03  0.96565678832E+03  0.16848805222E+03 0.  0.
         24    2    3    3    0    0  0.60599116754E+02  0.67954151154E+02 -0.53983722851E+03  0.55334186161E+03  0.80454725901E+02 0.  0.
         -6    2    1    2    0  501 -0.87039623644E+02 -0.75724845640E+01 -0.38631893032E+03  0.43158510003E+03  0.17143553901E+03 0.  0.
        -24    2    5    5    0    0  0.22438452669E+01  0.23420805681E+02 -0.23576697476E+03  0.25376467604E+03  0.90867350802E+02 0.  0.
          5    1    3    3  502    0  0.26440506890E+02 -0.60381666590E+02 -0.40698459764E+03  0.41231492670E+03  0.47000000000E+01 0. -1.
        -13    1    4    4    0    0  0.71855019049E+02  0.41068470010E+02 -0.47631478039E+03  0.48345168632E+03  0.00000000000E+00 0.  1.
         14    1    4    4    0    0 -0.11255902296E+02  0.26885681144E+02 -0.63522448120E+02  0.69890175291E+02  0.00000000000E+00 0. -1.
         -5    1    5    5    0  501 -0.89283468910E+02 -0.30993290245E+02 -0.15055195557E+03  0.17782042398E+03  0.47000000000E+01 0.  1.
         11    1    6    6    0    0 -0.28227776850E+02  0.13730668859E+01 -0.19702796244E+02  0.34451311708E+02  0.00000000000E+00 0. -1.
        -12    1    6    6    0    0  0.30471622117E+02  0.22047738795E+02 -0.21606417851E+03  0.21931336434E+03  0.00000000000E+00 0.  1.
</event>
<event>
12    1  0.1348628E-002  0.3036579E+03  0.7818608E-02  0.1083426E+00
         -2   -1    0    0    0  501 -0.00000000000E+00  0.00000000000E+00  0.86159454164E+02  0.86159454164E+02  0.00000000000E+00 0. -1.
          2   -1    0    0  502    0  0.00000000000E+00 -0.00000000000E+00 -0.10715378216E+04  0.10715378216E+04  0.00000000000E+00 0.  1.
          6    2    1    2  502    0  0.16414810798E+03  0.19058615172E+03 -0.51251826044E+03  0.59553645946E+03  0.16947278449E+03 0.  0.
         24    2    3    3    0    0  0.20466955005E+02  0.80433279300E+02 -0.26481247687E+03  0.28868441981E+03  0.79527590619E+02 0.  0.
         -6    2    1    2    0  501 -0.16414810798E+03 -0.19058615172E+03 -0.47286010702E+03  0.56216081632E+03  0.17076422348E+03 0.  0.
        -24    2    5    5    0    0 -0.14312339033E+03 -0.20756409942E+03 -0.36426805180E+03  0.45015807566E+03  0.79899432327E+02 0.  0.
          5    1    3    3  502    0  0.14368115298E+03  0.11015287242E+03 -0.24770578357E+03  0.30685203965E+03  0.47000000000E+01 0. -1.
        -11    1    4    4    0    0  0.44822432964E+02  0.70998955858E+02 -0.23212207275E+03  0.24684116125E+03  0.00000000000E+00 0.  1.
         12    1    4    4    0    0 -0.24355477959E+02  0.94343234417E+01 -0.32690404117E+02  0.41843258558E+02  0.00000000000E+00 0. -1.
         -5    1    5    5    0  501 -0.21024717650E+02  0.16977947705E+02 -0.10859205522E+03  0.11200274066E+03  0.47000000000E+01 0.  1.
         13    1    6    6    0    0 -0.10823191055E+03 -0.15979962442E+03 -0.21143452435E+03  0.28627718127E+03  0.00000000000E+00 0. -1.
        -14    1    6    6    0    0 -0.34891479783E+02 -0.47764475008E+02 -0.15283352745E+03  0.16388089439E+03  0.00000000000E+00 0.  1.
</event>
<event>
12    1  0.1348628E-002  0.2182913E+03  0.7818608E-02  0.1135163E+00
         -1   -1    0    0    0  501 -0.00000000000E+00  0.00000000000E+00  0.13279932214E+03  0.13279932214E+03  0.00000000000E+00 0. -1.
          1   -1    0    0  502    0  0.00000000000E+00 -0.00000000000E+00 -0.88888267910E+03  0.88888267910E+03  0.00000000000E+00 0.  1.
          6    2    1    2  502    0  0.48271280997E+02 -0.12633316818E+03 -0.77243289845E+03  0.80265006973E+03  0.17118518007E+03 0.  0.
         24    2    3    3    0    0 -0.13175510458E+01 -0.10840270903E+03 -0.70476543803E+03  0.71673424564E+03  0.72531186173E+02 0.  0.
         -6    2    1    2    0  501 -0.48271280997E+02  0.12633316818E+03  0.16349541499E+02  0.21903193151E+03  0.17151528667E+03 0.  0.
        -24    2    5    5    0    0 -0.43727174607E+02  0.15986417870E+03  0.14538575164E+02  0.18482159435E+03  0.80492422864E+02 0.  0.
          5    1    3    3  502    0  0.49588832043E+02 -0.17930459147E+02 -0.67667460418E+02  0.85915824085E+02  0.47000000000E+01 0. -1.
        -13    1    4    4    0    0 -0.31014195467E+02 -0.83681939053E+02 -0.42139461409E+03  0.43074118451E+03  0.00000000000E+00 0.  1.
         14    1    4    4    0    0  0.29696644421E+02 -0.24720769977E+02 -0.28337082394E+03  0.28599306114E+03  0.00000000000E+00 0. -1.
         -5    1    5    5    0  501 -0.45441063905E+01 -0.33531010523E+02  0.18109663346E+01  0.34210337161E+02  0.47000000000E+01 0.  1.
         11    1    6    6    0    0  0.15044142837E+02  0.92135712730E+02 -0.32020293711E+01  0.93410753053E+02  0.00000000000E+00 0. -1.
        -12    1    6    6    0    0 -0.58771317444E+02  0.67728465971E+02  0.17740604535E+02  0.91410841294E+02  0.00000000000E+00 0.  1.
</event>
<event>
12    1  0.1348628E-002  0.1902800E+03  0.7818608E-02  0.1158209E+00
          3   -1    0    0  502    0  0.00000000000E+00  0.00000000000E+00  0.45079057303E+03  0.45079057303E+03  0.00000000000E+00 0.  1.
         -3   -1    0    0    0  501 -0.00000000000E+00 -0.00000000000E+00 -0.18600131915E+03  0.18600131915E+03  0.00000000000E+00 0. -1.
          6    2    1    2  502    0  0.45788101296E+02  0.64797060927E+02 -0.10771107441E+03  0.21834677751E+03  0.17256427897E+03 0.  0.
         24    2    3    3    0    0  0.48658078828E+01  0.11917944522E+02 -0.12507726912E+03  0.14910437888E+03  0.80137875341E+02 0.  0.
         -6    2    1    2    0  501 -0.45788101296E+02 -0.64797060927E+02  0.37250032829E+03  0.41844511467E+03  0.17333381117E+03 0.  0.
        -24    2    5    5    0    0 -0.40781109623E+02 -0.97170778708E+02  0.18344709637E+03  0.22651715406E+03  0.80943960725E+02 0.  0.
          5    1    3    3  502    0  0.40922293413E+02  0.52879116405E+02  0.17366194704E+02  0.69242398633E+02  0.47000000000E+01 0. -1.
        -11    1    4    4    0    0 -0.10265534732E+01 -0.32936077715E+02 -0.73182826462E+02  0.80259361549E+02  0.00000000000E+00 0.  1.
         12    1    4    4    0    0  0.58923613560E+01  0.44854022237E+02 -0.51894442653E+02  0.68845017332E+02  0.00000000000E+00 0. -1.
         -5    1    5    5    0  501 -0.50069916732E+01  0.32373717781E+02  0.18905323191E+03  0.19192796061E+03  0.47000000000E+01 0.  1.
         11    1    6    6    0    0 -0.60399699241E+02 -0.90494549158E+02  0.13204192784E+03  0.17109195715E+03  0.00000000000E+00 0. -1.
        -12    1    6    6    0    0  0.19618589618E+02 -0.66762295502E+01  0.51405168536E+02  0.55425196904E+02  0.00000000000E+00 0.  1.
</event>
<event>
12    1  0.1348628E-002  0.2077558E+03  0.7818608E-02  0.1143356E+00
         -2   -1    0    0    0  501 -0.00000000000E+00  0.00000000000E+00  0.11044885597E+03  0.11044885597E+03  0.00000000000E+00 0. -1.
          2   -1    0    0  502    0  0.00000000000E+00 -0.00000000000E+00 -0.60575865683E+03  0.60575865683E+03  0.00000000000E+00 0.  1.
          6    2    1    2  502    0 -0.10329787724E+03  0.50976593514E+02 -0.33648481102E+02  0.20958621633E+03  0.17182868581E+03 0.  0.
         24    2    3    3    0    0 -0.96081790407E+02  0.65673346399E+02 -0.80063686308E+02  0.16014405084E+03  0.75440203332E+02 0.  0.
         -6    2    1    2    0  501  0.10329787724E+03 -0.50976593514E+02 -0.46166131976E+03  0.50662129646E+03  0.17396809862E+03 0.  0.
        -24    2    5    5    0    0  0.60349529585E+02 -0.95630596737E+02 -0.24606941591E+03  0.28225441037E+03  0.79562038515E+02 0.  0.
          5    1    3    3  502    0 -0.72160868300E+01 -0.14696752884E+02  0.46415205206E+02  0.49442165494E+02  0.47000000000E+01 0. -1.
        -13    1    4    4    0    0 -0.98114055752E+02  0.77912785345E+02 -0.66801570854E+02  0.14198316775E+03  0.00000000000E+00 0.  1.
         14    1    4    4    0    0  0.20322653449E+01 -0.12239438947E+02 -0.13262115454E+02  0.18160883087E+02  0.00000000000E+00 0. -1.
         -5    1    5    5    0  501  0.42948347652E+02  0.44654003222E+02 -0.21559190385E+03  0.22436688609E+03  0.47000000000E+01 0.  1.
         11    1    6    6    0    0  0.51129187190E+01  0.99441721856E+01 -0.30395183496E+01  0.11587371146E+02  0.00000000000E+00 0. -1.
        -12    1    6    6    0    0  0.55236610866E+02 -0.10557476892E+03 -0.24302989756E+03  0.27066703922E+03  0.00000000000E+00 0.  1.
</event>
<event>
12    1  0.1348628E-002  0.1752963E+03  0.7818608E-02  0.1172435E+00
         -1   -1    0    0    0  501 -0.00000000000E+00  0.00000000000E+00  0.14721871724E+03  0.14721871724E+03  0.00000000000E+00 0.  1.
          1   -1    0    0  502    0  0.00000000000E+00 -0.00000000000E+00 -0.24314819570E+03  0.24314819570E+03  0.00000000000E+00 0. -1.
          6    2    1    2  502    0 -0.20438675058E+02 -0.29904897255E+02 -0.12115850875E+03  0.21227527400E+03  0.17049740582E+03 0.  0.
         24    2    3    3    0    0 -0.35125915693E+02 -0.70143455438E+02 -0.12543785839E+03  0.16897100821E+03  0.81624818566E+02 0.  0.
         -6    2    1    2    0  501  0.20438675058E+02  0.29904897255E+02  0.25229030287E+02  0.17809163894E+03  0.17253430260E+03 0.  0.
        -24    2    5    5    0    0  0.75158138608E+02 -0.10253848171E+02 -0.47866500822E+01  0.10372783328E+03  0.70587988891E+02 0.  0.
          5    1    3    3  502    0  0.14687240635E+02  0.40238558183E+02  0.42793496367E+01  0.43304265788E+02  0.47000000000E+01 0. -1.
        -11    1    4    4    0    0  0.16109025385E+02  0.56531423770E+01 -0.51260295950E+01  0.17825119831E+02  0.00000000000E+00 0.  1.
         12    1    4    4    0    0 -0.51234941078E+02 -0.75796597815E+02 -0.12031182879E+03  0.15114588838E+03  0.00000000000E+00 0. -1.
         -5    1    5    5    0  501 -0.54719463550E+02  0.40158745426E+02  0.30015680370E+02  0.74363805668E+02  0.47000000000E+01 0.  1.
         11    1    6    6    0    0  0.16741600623E+01  0.19996925867E+01 -0.26108203039E+02  0.26238137286E+02  0.00000000000E+00 0. -1.
        -12    1    6    6    0    0  0.73483978546E+02 -0.12253540758E+02  0.21321552956E+02  0.77489695989E+02  0.00000000000E+00 0.  1.
</event>
<event>
12    1  0.1348628E-002  0.1798069E+03  0.7818608E-02  0.1167990E+00
          1   -1    0    0  502    0  0.00000000000E+00  0.00000000000E+00  0.28418056101E+03  0.28418056101E+03  0.00000000000E+00 0. -1.
         -1   -1    0    0    0  501 -0.00000000000E+00 -0.00000000000E+00 -0.16941331068E+03  0.16941331068E+03  0.00000000000E+00 0.  1.
          6    2    1    2  502    0 -0.35061655776E+02 -0.41645116218E+02 -0.72751367496E+02  0.19328931577E+03  0.17060000794E+03 0.  0.
         24    2    3    3    0    0 -0.29251339298E+02  0.38384776788E+01 -0.10704453091E+03  0.13583822224E+03  0.78250343515E+02 0.  0.
         -6    2    1    2    0  501  0.35061655776E+02  0.41645116218E+02  0.18751861782E+03  0.26030455592E+03  0.17213830019E+03 0.  0.
        -24    2    5    5    0    0  0.18025613161E+01  0.76348741746E+01  0.15150476013E+02  0.81431052466E+02  0.79623732965E+02 0.  0.
          5    1    3    3  502    0 -0.58103164776E+01 -0.45483593896E+02  0.34293163418E+02  0.57451093536E+02  0.47000000000E+01 0. -1.
        -11    1    4    4    0    0 -0.62266204154E+01  0.16933062986E+02  0.65519495662E+01  0.19194464489E+02  0.00000000000E+00 0.  1.
         12    1    4    4    0    0 -0.23024718883E+02 -0.13094585308E+02 -0.11359648048E+03  0.11664375775E+03  0.00000000000E+00 0. -1.
         -5    1    5    5    0  501  0.33259094459E+02  0.34010242043E+02  0.17236814181E+03  0.17887350346E+03  0.47000000000E+01 0.  1.
         13    1    6    6    0    0 -0.16747233452E+02  0.47296737013E+01  0.43826439987E+02  0.47155026069E+02  0.00000000000E+00 0. -1.
        -14    1    6    6    0    0  0.18549794769E+02  0.29052004732E+01 -0.28675963974E+02  0.34276026397E+02  0.00000000000E+00 0.  1.
</event>
<event>
12    1  0.1348628E-002  0.3249935E+03  0.7818608E-02  0.1073374E+00
          2   -1    0    0  502    0  0.00000000000E+00  0.00000000000E+00  0.69312524144E+03  0.69312524144E+03  0.00000000000E+00 0.  1.
         -2   -1    0    0    0  501 -0.00000000000E+00 -0.00000000000E+00 -0.18536152592E+03  0.18536152592E+03  0.00000000000E+00 0. -1.
          6    2    1    2  502    0 -0.92629290791E+02  0.26002333223E+03  0.43923642676E+03  0.54647393948E+03  0.17179292512E+03 0.  0.
         24    2    3    3    0    0 -0.10131214425E+03  0.99777916651E+02  0.24621621676E+03  0.29541044826E+03  0.80156873182E+02 0.  0.
         -6    2    1    2    0  501  0.92629290791E+02 -0.26002333223E+03  0.68527288755E+02  0.33201282788E+03  0.17130151708E+03 0.  0.
        -24    2    5    5    0    0  0.18339005216E+02 -0.20710207934E+03  0.84934763721E+02  0.23921734968E+03  0.82361616801E+02 0.  0.
          5    1    3    3  502    0  0.86828534618E+01  0.16024541558E+03  0.19302021000E+03  0.25106349123E+03  0.47000000000E+01 0. -1.
        -11    1    4    4    0    0 -0.10206218142E+03  0.75063112974E+02  0.15136463358E+03  0.19738898679E+03  0.00000000000E+00 0.  1.
         12    1    4    4    0    0  0.75003716922E+00  0.24714803678E+02  0.94851583182E+02  0.98021461470E+02  0.00000000000E+00 0. -1.
         -5    1    5    5    0  501  0.74290285574E+02 -0.52921252891E+02 -0.16407474966E+02  0.92795478193E+02  0.47000000000E+01 0.  1.
         11    1    6    6    0    0  0.22681920808E+02 -0.13771996507E+03  0.14619616449E+02  0.14033884529E+03  0.00000000000E+00 0. -1.
        -12    1    6    6    0    0 -0.43429155912E+01 -0.69382114266E+02  0.70315147272E+02  0.98878504397E+02  0.00000000000E+00 0.  1.
</event>
<event>
12    1  0.1348628E-002  0.1821931E+03  0.7818608E-02  0.1165697E+00
          2   -1    0    0  502    0  0.00000000000E+00  0.00000000000E+00  0.17021132548E+04  0.17021132548E+04  0.00000000000E+00 0. -1.
         -2   -1    0    0    0  501 -0.00000000000E+00 -0.00000000000E+00 -0.23008990200E+02  0.23008990200E+02  0.00000000000E+00 0.  1.
          6    2    1    2  502    0  0.48121300721E+02  0.37420538045E+02  0.11755629918E+04  0.11895684451E+04  0.17148988767E+03 0.  0.
         24    2    3    3    0    0  0.97437523733E+02  0.31478819188E+02  0.91938257974E+03  0.92857440798E+03  0.80629499167E+02 0.  0.
         -6    2    1    2    0  501 -0.48121300721E+02 -0.37420538045E+02  0.50354127279E+03  0.53555379992E+03  0.17189561644E+03 0.  0.
        -24    2    5    5    0    0 -0.55521705501E+02 -0.33400357867E+01  0.14533460654E+03  0.17562276156E+03  0.81408788837E+02 0.  0.
          5    1    3    3  502    0 -0.49316223012E+02  0.59417188571E+01  0.25618041206E+03  0.26099403709E+03  0.47000000000E+01 0. -1.
        -13    1    4    4    0    0  0.10084318479E+03  0.45483164845E+02  0.69692339993E+03  0.70564884438E+03  0.00000000000E+00 0.  1.
         14    1    4    4    0    0 -0.34056610618E+01 -0.14004345658E+02  0.22245917981E+03  0.22292556360E+03  0.00000000000E+00 0. -1.
         -5    1    5    5    0  501  0.74004047805E+01 -0.34080502258E+02  0.35820666626E+03  0.35993103836E+03  0.47000000000E+01 0.  1.
         13    1    6    6    0    0  0.97375041837E+00 -0.21077941125E+02  0.96759660570E+02  0.99033629165E+02  0.00000000000E+00 0. -1.
        -14    1    6    6    0    0 -0.56495455919E+02  0.17737905338E+02  0.48574945966E+02  0.76589132395E+02  0.00000000000E+00 0.  1.
</event>
<event>
12    1  0.1348628E-002  0.1751592E+03  0.7818608E-02  0.1172572E+00
          2   -1    0    0  502    0  0.00000000000E+00  0.00000000000E+00  0.32124106369E+03  0.32124106369E+03  0.00000000000E+00 0. -1.
         -2   -1    0    0    0  501 -0.00000000000E+00 -0.00000000000E+00 -0.99143561387E+02  0.99143561387E+02  0.00000000000E+00 0.  1.
          6    2    1    2  502    0  0.34958110664E+02  0.20100166793E+01  0.70956102293E+02  0.18923259676E+03  0.17189560074E+03 0.  0.
         24    2    3    3    0    0  0.84353979335E+02 -0.24764193014E+02  0.51407315839E+02  0.12955801927E+03  0.80085636358E+02 0.  0.
         -6    2    1    2    0  501 -0.34958110664E+02 -0.20100166793E+01  0.15114140001E+03  0.23115202832E+03  0.17135176605E+03 0.  0.
        -24    2    5    5    0    0  0.23688203466E+02  0.38137185170E+01  0.14312000510E+03  0.17148848142E+03  0.91374438254E+02 0.  0.
          5    1    3    3  502    0 -0.49395868671E+02  0.26774209693E+02  0.19548786454E+02  0.59674577487E+02  0.47000000000E+01 0. -1.
        -13    1    4    4    0    0  0.71332504396E+02 -0.41512009904E+02  0.10134352160E+02  0.83152139139E+02  0.00000000000E+00 0.  1.
         14    1    4    4    0    0  0.13021474938E+02  0.16747816890E+02  0.41272963678E+02  0.46405880133E+02  0.00000000000E+00 0. -1.
         -5    1    5    5    0  501 -0.58646314130E+02 -0.58237351963E+01  0.80213949118E+01  0.59663546902E+02  0.47000000000E+01 0.  1.
         11    1    6    6    0    0  0.46727016971E+02 -0.21553618039E+02  0.47946680180E+02  0.70333894431E+02  0.00000000000E+00 0. -1.
        -12    1    6    6    0    0 -0.23038813505E+02  0.25367336556E+02  0.95173324920E+02  0.10115458698E+03  0.00000000000E+00 0.  1.
</event>
<event>
12    1  0.1348628E-002  0.1926248E+03  0.7818608E-02  0.1156115E+00
          2   -1    0    0  502    0  0.00000000000E+00  0.00000000000E+00  0.27498462799E+04  0.27498462799E+04  0.00000000000E+00 0. -1.
         -2   -1    0    0    0  501 -0.00000000000E+00 -0.00000000000E+00 -0.14937589623E+02  0.14937589623E+02  0.00000000000E+00 0.  1.
          6    2    1    2  502    0  0.86459462558E+02 -0.20460455575E+02  0.17940877470E+04  0.18043454674E+04  0.17034627352E+03 0.  0.
         24    2    3    3    0    0  0.26995308076E+01  0.58376443924E+01  0.41627230086E+03  0.42372792085E+03  0.78875578526E+02 0.  0.
         -6    2    1    2    0  501 -0.86459462558E+02  0.20460455575E+02  0.94082094335E+03  0.96043840219E+03  0.17147596930E+03 0.  0.
        -24    2    5    5    0    0 -0.11467149206E+03  0.55362744886E+02  0.69058592397E+03  0.70616739848E+03  0.74490883114E+02 0.  0.
          5    1    3    3  502    0  0.83759931750E+02 -0.26298099968E+02  0.13778154461E+04  0.13806175465E+04  0.47000000000E+01 0. -1.
        -13    1    4    4    0    0  0.27178672116E+00  0.36104386316E+01 -0.28406613742E+01  0.46020095803E+01  0.00000000000E+00 0.  1.
         14    1    4    4    0    0  0.24277440865E+01  0.22272057607E+01  0.41911296223E+03  0.41912591127E+03  0.00000000000E+00 0. -1.
         -5    1    5    5    0  501  0.28212029500E+02 -0.34902289310E+02  0.25023501938E+03  0.25427100372E+03  0.47000000000E+01 0.  1.
         11    1    6    6    0    0  0.82487183049E+01  0.11827022636E+02  0.37223015403E+02  0.39918325288E+02  0.00000000000E+00 0. -1.
        -12    1    6    6    0    0 -0.12292021036E+03  0.43535722250E+02  0.65336290857E+03  0.66624907319E+03  0.00000000000E+00 0.  1.
</event>
<event>
12    1  0.1348628E-002  0.1730505E+03  0.7818608E-02  0.1174703E+00
         -1   -1    0    0    0  501 -0.00000000000E+00  0.00000000000E+00  0.32468911272E+03  0.32468911272E+03  0.00000000000E+00 0. -1.
          1   -1    0    0  502    0  0.00000000000E+00 -0.00000000000E+00 -0.10073491375E+03  0.10073491375E+03  0.00000000000E+00 0.  1.
          6    2    1    2  502    0  0.15634333426E+02 -0.39325792379E+01  0.49961065889E+02  0.17976955165E+03  0.17193337673E+03 0.  0.
         24    2    3    3    0    0  0.56578117619E+02  0.46350367032E+02  0.26135409940E+02  0.11052707891E+03  0.78636731887E+02 0.  0.
         -6    2    1    2    0  501 -0.15634333426E+02  0.39325792379E+01  0.17399313308E+03  0.24565447483E+03  0.17266329396E+03 0.  0.
        -24    2    5    5    0    0  0.22531717259E+02  0.50703582044E+01  0.18795977625E+03  0.20472650044E+03  0.77786089265E+02 0.  0.
          5    1    3    3  502    0 -0.40943784193E+02 -0.50282946270E+02  0.23825655950E+02  0.69242472739E+02  0.47000000000E+01 0. -1.
        -13    1    4    4    0    0  0.27065666973E+02  0.11847925926E+02 -0.27425206779E+02  0.40312102950E+02  0.00000000000E+00 0.  1.
         14    1    4    4    0    0  0.29512450646E+02  0.34502441106E+02  0.53560616719E+02  0.70214975958E+02  0.00000000000E+00 0. -1.
         -5    1    5    5    0  501 -0.38166050685E+02 -0.11377789665E+01 -0.13966643164E+02  0.40927974384E+02  0.47000000000E+01 0.  1.
         11    1    6    6    0    0 -0.24260759847E+02 -0.62664173861E-01  0.23934029312E+02  0.34079702966E+02  0.00000000000E+00 0. -1.
        -12    1    6    6    0    0  0.46792477106E+02  0.51330223782E+01  0.16402574693E+03  0.17064679748E+03  0.00000000000E+00 0.  1.
</event>
<event>
12    1  0.1348628E-002  0.1958380E+03  0.7818608E-02  0.1153299E+00
          2   -1    0    0  502    0  0.00000000000E+00  0.00000000000E+00  0.25791582706E+03  0.25791582706E+03  0.00000000000E+00 0.  1.
         -2   -1    0    0    0  501 -0.00000000000E+00 -0.00000000000E+00 -0.21698844417E+03  0.21698844417E+03  0.00000000000E+00 0. -1.
          6    2    1    2  502    0  0.26935428864E+02 -0.89363585764E+02 -0.11274801603E+03  0.22591441339E+03  0.17208672019E+03 0.  0.
         24    2    3    3    0    0  0.18947658554E+02 -0.12508509676E+03 -0.59303769939E+02  0.16096667853E+03  0.79925210497E+02 0.  0.
         -6    2    1    2    0  501 -0.26935428864E+02  0.89363585764E+02  0.15367539892E+03  0.24898985784E+03  0.17224532877E+03 0.  0.
        -24    2    5    5    0    0  0.48152187390E+02  0.42100951697E+02  0.41768070409E+02  0.10610092591E+03  0.73632272058E+02 0.  0.
          5    1    3    3  502    0  0.79877703100E+01  0.35721510994E+02 -0.53444246093E+02  0.64947734853E+02  0.47000000000E+01 0. -1.
        -13    1    4    4    0    0  0.34424833931E+02 -0.72945436290E+02 -0.21944407441E+00  0.80660734080E+02  0.00000000000E+00 0.  1.
         14    1    4    4    0    0 -0.15477175377E+02 -0.52139660468E+02 -0.59084325864E+02  0.80305944452E+02  0.00000000000E+00 0. -1.
         -5    1    5    5    0  501 -0.75087616254E+02  0.47262634068E+02  0.11190732851E+03  0.14288893193E+03  0.47000000000E+01 0.  1.
         11    1    6    6    0    0  0.42738640475E+02  0.31898433210E+01 -0.70552658219E+01  0.43434355824E+02  0.00000000000E+00 0. -1.
        -12    1    6    6    0    0  0.54135469148E+01  0.38911108376E+02  0.48823336231E+02  0.62666570083E+02  0.00000000000E+00 0.  1.
</event>
<event>
12    1  0.1348628E-002  0.2168101E+03  0.7818608E-02  0.1136284E+00
          2   -1    0    0  502    0  0.00000000000E+00  0.00000000000E+00  0.75603867774E+03  0.75603867774E+03  0.00000000000E+00 0. -1.
         -2   -1    0    0    0  501 -0.00000000000E+00 -0.00000000000E+00 -0.65944223017E+02  0.65944223017E+02  0.00000000000E+00 0.  1.
          6    2    1    2  502    0 -0.13335272210E+03 -0.34362510610E+01  0.24765266340E+03  0.32952610754E+03  0.17164165447E+03 0.  0.
         24    2    3    3    0    0 -0.58994687197E+01 -0.15608069864E+02  0.13925215227E+03  0.16170106238E+03  0.80483887130E+02 0.  0.
         -6    2    1    2    0  501  0.13335272210E+03  0.34362510610E+01  0.44244179132E+03  0.49245679321E+03  0.17018871338E+03 0.  0.
        -24    2    5    5    0    0  0.24004974417E+02 -0.45918858438E+02  0.20519719187E+03  0.22656217738E+03  0.80868735081E+02 0.  0.
          5    1    3    3  502    0 -0.12745325338E+03  0.12171818803E+02  0.10840051113E+03  0.16782504516E+03  0.47000000000E+01 0. -1.
        -11    1    4    4    0    0 -0.15109135323E+02  0.19346733217E+02  0.11634463100E+03  0.11890607730E+03  0.00000000000E+00 0.  1.
         12    1    4    4    0    0  0.92096666029E+01 -0.34954803080E+02  0.22907521267E+02  0.42794985079E+02  0.00000000000E+00 0. -1.
         -5    1    5    5    0  501  0.10934774768E+03  0.49355109499E+02  0.23724459945E+03  0.26589461583E+03  0.47000000000E+01 0.  1.
         11    1    6    6    0    0  0.28151938039E+02  0.45768227504E+01  0.14547194247E+03  0.14824157638E+03  0.00000000000E+00 0. -1.
        -12    1    6    6    0    0 -0.41469636212E+01 -0.50495681188E+02  0.59725249397E+02  0.78320601003E+02  0.00000000000E+00 0.  1.
</event>
<event>
12    1  0.1348628E-002  0.1802771E+03  0.7818608E-02  0.1167535E+00
          1   -1    0    0  502    0  0.00000000000E+00  0.00000000000E+00  0.71498068969E+02  0.71498068969E+02  0.00000000000E+00 0.  1.
         -1   -1    0    0    0  501 -0.00000000000E+00 -0.00000000000E+00 -0.46393401024E+03  0.46393401024E+03  0.00000000000E+00 0. -1.
          6    2    1    2  502    0 -0.45106931291E+02  0.24290867267E+02 -0.15722869941E+03  0.23854075687E+03  0.17191901374E+03 0.  0.
         24    2    3    3    0    0  0.15986786754E+02  0.50087400097E+02 -0.14157759655E+03  0.17024031389E+03  0.78569864634E+02 0.  0.
         -6    2    1    2    0  501  0.45106931291E+02 -0.24290867267E+02 -0.23520724187E+03  0.29689132235E+03  0.17377378736E+03 0.  0.
        -24    2    5    5    0    0  0.37214831024E+02  0.20829474473E+02 -0.23398322680E+03  0.25082920452E+03  0.79676400305E+02 0.  0.
          5    1    3    3  502    0 -0.61093718045E+02 -0.25796532830E+02 -0.15651102859E+02  0.68300442980E+02  0.47000000000E+01 0. -1.
        -11    1    4    4    0    0 -0.31737572723E+02  0.15290657514E+02 -0.47041366417E+02  0.58770467788E+02  0.00000000000E+00 0.  1.
         12    1    4    4    0    0  0.47724359477E+02  0.34796742583E+02 -0.94536230132E+02  0.11146984610E+03  0.00000000000E+00 0. -1.
         -5    1    5    5    0  501  0.78921002672E+01 -0.45120341740E+02 -0.12240150705E+01  0.46062117822E+02  0.47000000000E+01 0.  1.
         13    1    6    6    0    0  0.20194775827E+02 -0.23365148263E+02 -0.36815244066E+02  0.48053317468E+02  0.00000000000E+00 0. -1.
        -14    1    6    6    0    0  0.17020055196E+02  0.44194622735E+02 -0.19716798273E+03  0.20277588706E+03  0.00000000000E+00 0.  1.
</event>
<event>
12    1  0.1348628E-002  0.1796121E+03  0.7818608E-02  0.1168179E+00
          2   -1    0    0  502    0  0.00000000000E+00  0.00000000000E+00  0.47404464366E+03  0.47404464366E+03  0.00000000000E+00 0.  1.
         -2   -1    0    0    0  501 -0.00000000000E+00 -0.00000000000E+00 -0.68415768086E+02  0.68415768086E+02  0.00000000000E+00 0. -1.
          6    2    1    2  502    0  0.48501664097E+02 -0.53471954386E+01  0.18194238584E+03  0.25490981613E+03  0.17174102210E+03 0.  0.
         24    2    3    3    0    0  0.56018994969E+00  0.49259911122E+02  0.60846047987E+02  0.11360612165E+03  0.82324095288E+02 0.  0.
         -6    2    1    2    0  501 -0.48501664097E+02  0.53471954386E+01  0.22368648974E+03  0.28755059562E+03  0.17397900860E+03 0.  0.
        -24    2    5    5    0    0  0.17613153661E+02  0.43148149115E+02  0.17109766750E+03  0.19488045237E+03  0.80820745722E+02 0.  0.
          5    1    3    3  502    0  0.47941474147E+02 -0.54607106561E+02  0.12109633785E+03  0.14130369447E+03  0.47000000000E+01 0. -1.
        -11    1    4    4    0    0 -0.92664091325E+01 -0.21916940534E+02  0.19054370608E+02  0.30484219850E+02  0.00000000000E+00 0.  1.
         12    1    4    4    0    0  0.98265990822E+01  0.71176851657E+02  0.41791677378E+02  0.83121901803E+02  0.00000000000E+00 0. -1.
         -5    1    5    5    0  501 -0.66114817758E+02 -0.37800953676E+02  0.52588822243E+02  0.92670143255E+02  0.47000000000E+01 0.  1.
         11    1    6    6    0    0 -0.77273458554E+01  0.48106848174E+02  0.45530445393E+02  0.66685846872E+02  0.00000000000E+00 0. -1.
        -12    1    6    6    0    0  0.25340499517E+02 -0.49586990594E+01  0.12556722210E+03  0.12819460550E+03  0.00000000000E+00 0.  1.
</event>
<event>
12    1  0.1348628E-002  0.2713779E+03  0.7818608E-02  0.1100494E+00
         -2   -1    0    0    0  501 -0.00000000000E+00  0.00000000000E+00  0.43851945157E+03  0.43851945157E+03  0.00000000000E+00 0. -1.
          2   -1    0    0  502    0  0.00000000000E+00 -0.00000000000E+00 -0.24054751808E+03  0.24054751808E+03  0.00000000000E+00 0.  1.
          6    2    1    2  502    0 -0.40662924611E+02  0.20647963426E+03 -0.87602198492E+02  0.28497665250E+03  0.17102699929E+03 0.  0.
         24    2    3    3    0    0 -0.69468323476E+02  0.20808240594E+03 -0.52180750477E+02  0.23905183502E+03  0.79365064585E+02 0.  0.
         -6    2    1    2    0  501  0.40662924611E+02 -0.20647963426E+03  0.28557413199E+03  0.39409031715E+03  0.17166036354E+03 0.  0.
        -24    2    5    5    0    0  0.65140806702E+02 -0.58011375666E+02  0.10746990616E+03  0.16088397980E+03  0.82007498581E+02 0.  0.
          5    1    3    3  502    0  0.28805398865E+02 -0.16027716817E+01 -0.35421448014E+02  0.45924817477E+02  0.47000000000E+01 0. -1.
        -13    1    4    4    0    0 -0.42016083159E+02  0.19913508437E+03 -0.52479903840E+02  0.21017676698E+03  0.00000000000E+00 0.  1.
         14    1    4    4    0    0 -0.27452240317E+02  0.89473215768E+01  0.29915336275E+00  0.28875068044E+02  0.00000000000E+00 0. -1.
         -5    1    5    5    0  501 -0.24477882091E+02 -0.14846825860E+03  0.17810422583E+03  0.23320633735E+03  0.47000000000E+01 0.  1.
         11    1    6    6    0    0  0.80503072031E+01 -0.15201394623E+02  0.84032769099E+02  0.85775265240E+02  0.00000000000E+00 0. -1.
        -12    1    6    6    0    0  0.57090499499E+02 -0.42809981043E+02  0.23437137058E+02  0.75108714564E+02  0.00000000000E+00 0.  1.
</event>
<event>
12    1  0.1348628E-002  0.2429129E+03  0.7818608E-02  0.1117867E+00
         -2   -1    0    0    0  501 -0.00000000000E+00  0.00000000000E+00  0.57094682533E+02  0.57094682533E+02  0.00000000000E+00 0.  1.
          2   -1    0    0  502    0  0.00000000000E+00 -0.00000000000E+00 -0.10339067240E+04  0.10339067240E+04  0.00000000000E+00 0. -1.
          6    2    1    2  502    0 -0.36605318076E+01 -0.17119864902E+03 -0.47745512758E+03  0.53570063903E+03  0.17230611970E+03 0.  0.
         24    2    3    3    0    0 -0.79887332776E+01 -0.19216603118E+03 -0.35448067148E+03  0.41078798437E+03  0.78093650487E+02 0.  0.
         -6    2    1    2    0  501  0.36605318076E+01  0.17119864902E+03 -0.49935691393E+03  0.55530076755E+03  0.17227663228E+03 0.  0.
        -24    2    5    5    0    0  0.29507678339E+02  0.18943944633E+03 -0.40079999516E+03  0.45168436967E+03  0.81364161538E+02 0.  0.
          5    1    3    3  502    0  0.43282014700E+01  0.20967382164E+02 -0.12297445609E+03  0.12491265466E+03  0.47000000000E+01 0. -1.
        -11    1    4    4    0    0  0.24774049922E+02 -0.13937167200E+03 -0.20721097295E+03  0.25094741245E+03  0.00000000000E+00 0.  1.
         12    1    4    4    0    0 -0.32762783199E+02 -0.52794359183E+02 -0.14726969853E+03  0.15984057192E+03  0.00000000000E+00 0. -1.
         -5    1    5    5    0  501 -0.25847146531E+02 -0.18240797312E+02 -0.98556918776E+02  0.10361639788E+03  0.47000000000E+01 0.  1.
         11    1    6    6    0    0  0.40638395429E+02  0.10598513103E+03 -0.15684462522E+03  0.19360930670E+03  0.00000000000E+00 0. -1.
        -12    1    6    6    0    0 -0.11130717091E+02  0.83454315302E+02 -0.24395536994E+03  0.25807506297E+03  0.00000000000E+00 0.  1.
</event>
<event>
12    1  0.1348628E-002  0.4911958E+03  0.7818608E-02  0.1016103E+00
          2   -1    0    0  502    0  0.00000000000E+00  0.00000000000E+00  0.14132079556E+03  0.14132079556E+03  0.00000000000E+00 0. -1.
         -2   -1    0    0    0  501 -0.00000000000E+00 -0.00000000000E+00 -0.17212793415E+04  0.17212793415E+04  0.00000000000E+00 0.  1.
          6    2    1    2  502    0  0.45431152750E+03 -0.73250404816E+02 -0.87408477358E+03  0.10026754727E+04  0.17195733876E+03 0.  0.
         24    2    3    3    0    0  0.24885629190E+03  0.11399134345E+02 -0.55788224234E+03  0.61617381802E+03  0.79863529964E+02 0.  0.
         -6    2    1    2    0  501 -0.45431152750E+03  0.73250404816E+02 -0.70587377237E+03  0.85992466435E+03  0.17160437063E+03 0.  0.
        -24    2    5    5    0    0 -0.28504480727E+03  0.37031985107E+02 -0.55591732514E+03  0.63085693951E+03  0.79463800899E+02 0.  0.
          5    1    3    3  502    0  0.20545523560E+03 -0.84649539161E+02 -0.31620253124E+03  0.38650165469E+03  0.47000000000E+01 0. -1.
        -11    1    4    4    0    0  0.12064707025E+03 -0.32264157976E+02 -0.23734375914E+03  0.26819536061E+03  0.00000000000E+00 0.  1.
         12    1    4    4    0    0  0.12820922165E+03  0.43663292321E+02 -0.32053848320E+03  0.34797845742E+03  0.00000000000E+00 0. -1.
         -5    1    5    5    0  501 -0.16926672023E+03  0.36218419710E+02 -0.14995644723E+03  0.22906772485E+03  0.47000000000E+01 0.  1.
         13    1    6    6    0    0 -0.96731818359E+02  0.17656105880E+02 -0.11685149857E+03  0.15271887727E+03  0.00000000000E+00 0. -1.
        -14    1    6    6    0    0 -0.18831298891E+03  0.19375879226E+02 -0.43906582657E+03  0.47813806223E+03  0.00000000000E+00 0.  1.
</event>
<event>
12    1  0.1348628E-002  0.1764973E+03  0.7818608E-02  0.1171237E+00
         -2   -1    0    0    0  501 -0.00000000000E+00  0.00000000000E+00  0.98778863902E+01  0.98778863902E+01  0.00000000000E+00 0. -1.
          2   -1    0    0  502    0  0.00000000000E+00 -0.00000000000E+00 -0.33134918519E+04  0.33134918519E+04  0.00000000000E+00 0.  1.
          6    2    1    2  502    0  0.30478248050E+02 -0.14894606437E+02 -0.20307985153E+04  0.20385943392E+04  0.17485278681E+03 0.  0.
         24    2    3    3    0    0  0.14786224483E+02 -0.51986646047E+02 -0.18794844357E+04  0.18819415394E+04  0.79504526260E+02 0.  0.
         -6    2    1    2    0  501 -0.30478248050E+02  0.14894606437E+02 -0.12728154502E+04  0.12847753991E+04  0.17157471545E+03 0.  0.
        -24    2    5    5    0    0 -0.46966706609E+02 -0.55301266851E+01 -0.12357048856E+04  0.12390772263E+04  0.78162361373E+02 0.  0.
          5    1    3    3  502    0  0.15692023567E+02  0.37092039610E+02 -0.15131407956E+03  0.15665279978E+03  0.47000000000E+01 0. -1.
        -11    1    4    4    0    0  0.11845482782E+02 -0.17558170594E+01 -0.13541434335E+04  0.13541963804E+04  0.00000000000E+00 0.  1.
         12    1    4    4    0    0  0.29407417010E+01 -0.50230828988E+02 -0.52534100227E+03  0.52774515896E+03  0.00000000000E+00 0. -1.
         -5    1    5    5    0  501  0.16488458560E+02  0.20424733122E+02 -0.37110564622E+02  0.45698172779E+02  0.47000000000E+01 0.  1.
         13    1    6    6    0    0  0.12559550403E+02 -0.15943152023E+02 -0.11745065920E+03  0.11919137448E+03  0.00000000000E+00 0. -1.
        -14    1    6    6    0    0 -0.59526257012E+02  0.10413025338E+02 -0.11182542264E+04  0.11198858519E+04  0.00000000000E+00 0.  1.
</event>
<event>
12    1  0.1348628E-002  0.1824233E+03  0.7818608E-02  0.1165478E+00
          2   -1    0    0  502    0  0.00000000000E+00  0.00000000000E+00  0.15806034867E+03  0.15806034867E+03  0.00000000000E+00 0.  1.
         -2   -1    0    0    0  501 -0.00000000000E+00 -0.00000000000E+00 -0.38804974380E+03  0.38804974380E+03  0.00000000000E+00 0. -1.
          6    2    1    2  502    0 -0.47008077127E+02  0.27896971620E+02  0.68990197345E+02  0.19688936755E+03  0.17611864008E+03 0.  0.
         24    2    3    3    0    0  0.21198371856E+02  0.40554851182E+02  0.84635491301E+02  0.12562081332E+03  0.80767291824E+02 0.  0.
         -6    2    1    2    0  501  0.47008077127E+02 -0.27896971620E+02 -0.29897959248E+03  0.34922072493E+03  0.17198348077E+03 0.  0.
        -24    2    5    5    0    0  0.16050033124E+01  0.49385728817E+02 -0.12508303794E+03  0.15352668675E+03  0.74048301240E+02 0.  0.
          5    1    3    3  502    0 -0.68206448984E+02 -0.12657879562E+02 -0.15645293956E+02  0.71268554222E+02  0.47000000000E+01 0. -1.
        -11    1    4    4    0    0 -0.44396205938E+01 -0.23210890150E+02  0.16338112415E+02  0.28729593973E+02  0.00000000000E+00 0.  1.
         12    1    4    4    0    0  0.25637992450E+02  0.63765741332E+02  0.68297378887E+02  0.96891219351E+02  0.00000000000E+00 0. -1.
         -5    1    5    5    0  501  0.45403073815E+02 -0.77282700436E+02 -0.17389655454E+03  0.19569403818E+03  0.47000000000E+01 0.  1.
         11    1    6    6    0    0  0.36663827584E+02  0.35460603960E+02 -0.65713163009E+02  0.83185999297E+02  0.00000000000E+00 0. -1.
        -12    1    6    6    0    0 -0.35058824271E+02  0.13925124857E+02 -0.59369874930E+02  0.70340687449E+02  0.00000000000E+00 0.  1.
</event>
<event>
12    1  0.1348628E-002  0.1949725E+03  0.7818608E-02  0.1154051E+00
          1   -1    0    0  502    0  0.00000000000E+00  0.00000000000E+00  0.29980928765E+04  0.29980928765E+04  0.00000000000E+00 0.  1.
         -1   -1    0    0    0  501 -0.00000000000E+00 -0.00000000000E+00 -0.13670592635E+02  0.13670592635E+02  0.00000000000E+00 0. -1.
          6    2    1    2  502    0  0.69490570594E+02 -0.60913138980E+02  0.18969695016E+04  0.19069526789E+04  0.17156887743E+03 0.  0.
         24    2    3    3    0    0  0.88260611039E+02 -0.93776557835E+01  0.16290030083E+04  0.16333903424E+04  0.80220530937E+02 0.  0.
         -6    2    1    2    0  501 -0.69490570594E+02  0.60913138980E+02  0.10874527822E+04  0.11048107902E+04  0.17179632893E+03 0.  0.
        -24    2    5    5    0    0 -0.10353853501E+03  0.13296523139E+02  0.85709058047E+03  0.86708102768E+03  0.79550107870E+02 0.  0.
          5    1    3    3  502    0 -0.18770040445E+02 -0.51535483197E+02  0.26796649332E+03  0.27356233657E+03  0.47000000000E+01 0. -1.
        -13    1    4    4    0    0 -0.12221137135E+02 -0.12094004839E+02  0.36107828616E+03  0.36148741318E+03  0.00000000000E+00 0.  1.
         14    1    4    4    0    0  0.10048174817E+03  0.27163490554E+01  0.12679247221E+04  0.12719029292E+04  0.00000000000E+00 0. -1.
         -5    1    5    5    0  501  0.34047964420E+02  0.47616615842E+02  0.23036220176E+03  0.23772976252E+03  0.47000000000E+01 0.  1.
         11    1    6    6    0    0 -0.23636001352E+02  0.72981393688E+01  0.47689481166E+02  0.53723458676E+02  0.00000000000E+00 0. -1.
        -12    1    6    6    0    0 -0.79902533662E+02  0.59983837697E+01  0.80940109930E+03  0.81335756900E+03  0.00000000000E+00 0.  1.
</event>
<event>
12    1  0.1348628E-002  0.2850140E+03  0.7818608E-02  0.1092981E+00
         -1   -1    0    0    0  501 -0.00000000000E+00  0.00000000000E+00  0.60454963246E+03  0.60454963246E+03  0.00000000000E+00 0. -1.
          1   -1    0    0  502    0  0.00000000000E+00 -0.00000000000E+00 -0.13639296021E+03  0.13639296021E+03  0.00000000000E+00 0.  1.
          6    2    1    2  502    0  0.17408299684E+03  0.14657987297E+03  0.27941823417E+03  0.39932482058E+03  0.17203259517E+03 0.  0.
         24    2    3    3    0    0  0.19090737210E+03  0.13822012708E+03  0.20545940641E+03  0.32287259264E+03  0.80515310010E+02 0.  0.
         -6    2    1    2    0  501 -0.17408299684E+03 -0.14657987297E+03  0.18873843808E+03  0.34161777208E+03  0.17114308412E+03 0.  0.
        -24    2    5    5    0    0 -0.14130701720E+03 -0.31902052793E+02  0.10997303085E+03  0.19860956722E+03  0.79788962864E+02 0.  0.
          5    1    3    3  502    0 -0.16824375253E+02  0.83597458908E+01  0.73958827763E+02  0.76452227947E+02  0.47000000000E+01 0. -1.
        -13    1    4    4    0    0  0.65569468934E+02  0.63330587335E+02  0.33098694232E+02  0.96982689735E+02  0.00000000000E+00 0.  1.
         14    1    4    4    0    0  0.12533790316E+03  0.74889539742E+02  0.17236071218E+03  0.22588990290E+03  0.00000000000E+00 0. -1.
         -5    1    5    5    0  501 -0.32775979648E+02 -0.11467782017E+03  0.78765407230E+02  0.14300820486E+03  0.47000000000E+01 0.  1.
         13    1    6    6    0    0 -0.60851010512E+02  0.24213841862E+02  0.29943790602E+02  0.72012403193E+02  0.00000000000E+00 0. -1.
        -14    1    6    6    0    0 -0.80456006684E+02 -0.56115894655E+02  0.80029240250E+02  0.12659716403E+03  0.00000000000E+00 0.  1.
</event>
<event>
12    1  0.1348628E-002  0.2874955E+03  0.7818608E-02  0.1091664E+00
          2   -1    0    0  502    0  0.00000000000E+00  0.00000000000E+00  0.12072563393E+04  0.12072563393E+04  0.00000000000E+00 0. -1.
         -2   -1    0    0    0  501 -0.00000000000E+00 -0.00000000000E+00 -0.68538709917E+02  0.68538709917E+02  0.00000000000E+00 0.  1.
          6    2    1    2  502    0  0.13408390349E+03 -0.18720690255E+03  0.58945224603E+03  0.65561892920E+03  0.17133975730E+03 0.  0.
         24    2    3    3    0    0  0.83915601174E+02 -0.18788933943E+03  0.54767932174E+03  0.59016366600E+03  0.77435658502E+02 0.  0.
         -6    2    1    2    0  501 -0.13408390349E+03  0.18720690255E+03  0.54926538336E+03  0.62017612003E+03  0.17291917464E+03 0.  0.
        -24    2    5    5    0    0 -0.12006851838E+03  0.11505432589E+03  0.24265700401E+03  0.30484579540E+03  0.79966182662E+02 0.  0.
          5    1    3    3  502    0  0.50168302313E+02  0.68243687666E+00  0.41772924293E+02  0.65455263204E+02  0.47000000000E+01 0. -1.
        -11    1    4    4    0    0  0.88332075114E+02 -0.12320214653E+03  0.33249668530E+03  0.36542491724E+03  0.00000000000E+00 0.  1.
         12    1    4    4    0    0 -0.44164739400E+01 -0.64687192902E+02  0.21518263644E+03  0.22473874876E+03  0.00000000000E+00 0. -1.
         -5    1    5    5    0  501 -0.14015385110E+02  0.72152576658E+02  0.30660837936E+03  0.31533032463E+03  0.47000000000E+01 0.  1.
         13    1    6    6    0    0  0.48932635035E+01 -0.76624584346E+01  0.16031746806E+02  0.18430252375E+02  0.00000000000E+00 0. -1.
        -14    1    6    6    0    0 -0.12496178188E+03  0.12271678433E+03  0.22662525720E+03  0.28641554303E+03  0.00000000000E+00 0.  1.
</event>
<event>
12    1  0.1348628E-002  0.2427795E+03  0.7818608E-02  0.1117955E+00
          2   -1    0    0  502    0  0.00000000000E+00  0.00000000000E+00  0.37815080596E+03  0.37815080596E+03  0.00000000000E+00 0.  1.
         -2   -1    0    0    0  501 -0.00000000000E+00 -0.00000000000E+00 -0.20929584871E+03  0.20929584871E+03  0.00000000000E+00 0. -1.
          6    2    1    2  502    0 -0.18286573751E+03 -0.15530510338E+02 -0.64862291995E+02  0.24777937344E+03  0.15331805592E+03 0.  0.
         24    2    3    3    0    0 -0.10135362252E+03 -0.17864561760E+02  0.16674306818E+02  0.13236715731E+03  0.81555701586E+02 0.  0.
         -6    2    1    2    0  501  0.18286573751E+03  0.15530510338E+02  0.23371724924E+03  0.33966728123E+03  0.16452669886E+03 0.  0.
        -24    2    5    5    0    0  0.17031974158E+03  0.23292652217E+02  0.11798422402E+03  0.22290309157E+03  0.78829874370E+02 0.  0.
          5    1    3    3  502    0 -0.81512114995E+02  0.23340514222E+01 -0.81536598813E+02  0.11541221613E+03  0.47000000000E+01 0. -1.
        -13    1    4    4    0    0 -0.60368452649E+02  0.66124525757E+01 -0.28101882474E+02  0.66916294002E+02  0.00000000000E+00 0.  1.
         14    1    4    4    0    0 -0.40985169870E+02 -0.24477014336E+02  0.44776189291E+02  0.65450863306E+02  0.00000000000E+00 0. -1.
         -5    1    5    5    0  501  0.12545995934E+02 -0.77621418792E+01  0.11573302522E+03  0.11676418966E+03  0.47000000000E+01 0.  1.
         13    1    6    6    0    0  0.47790884410E+02 -0.76994970407E+01 -0.22519439512E+01  0.48459489668E+02  0.00000000000E+00 0. -1.
        -14    1    6    6    0    0  0.12252885717E+03  0.30992149258E+02  0.12023616797E+03  0.17444360190E+03  0.00000000000E+00 0.  1.
</event>
<event>
12    1  0.1348628E-002  0.2508222E+03  0.7818608E-02  0.1112786E+00
         -1   -1    0    0    0  501 -0.00000000000E+00  0.00000000000E+00  0.38633684802E+03  0.38633684802E+03  0.00000000000E+00 0.  1.
          1   -1    0    0  502    0  0.00000000000E+00 -0.00000000000E+00 -0.40721111933E+03  0.40721111933E+03  0.00000000000E+00 0. -1.
          6    2    1    2  502    0 -0.14171381750E+03 -0.10918918762E+03  0.29695568685E+03  0.38692850622E+03  0.17183103389E+03 0.  0.
         24    2    3    3    0    0 -0.46513286941E+02  0.68781358506E+01  0.13157301286E+03  0.16352688704E+03  0.84963465425E+02 0.  0.
         -6    2    1    2    0  501  0.14171381750E+03  0.10918918762E+03 -0.31782995817E+03  0.40661946113E+03  0.17977324355E+03 0.  0.
        -24    2    5    5    0    0  0.12138861748E+03  0.13806372325E+03 -0.30931052097E+03  0.36999264890E+03  0.86167126691E+02 0.  0.
          5    1    3    3  502    0 -0.95200530555E+02 -0.11606732347E+03  0.16538267399E+03  0.22340161918E+03  0.47000000000E+01 0. -1.
        -11    1    4    4    0    0 -0.47955247038E+02 -0.32314336763E+02  0.81214888727E+02  0.99698446477E+02  0.00000000000E+00 0.  1.
         12    1    4    4    0    0  0.14419600971E+01  0.39192472614E+02  0.50358124134E+02  0.63828440564E+02  0.00000000000E+00 0. -1.
         -5    1    5    5    0  501  0.20325200020E+02 -0.28874535636E+02 -0.85194371932E+01  0.36626812230E+02  0.47000000000E+01 0.  1.
         13    1    6    6    0    0  0.10890951258E+03  0.71276264559E+02 -0.16233548538E+03  0.20807305840E+03  0.00000000000E+00 0. -1.
        -14    1    6    6    0    0  0.12479104896E+02  0.66787458695E+02 -0.14697503560E+03  0.16191959050E+03  0.00000000000E+00 0.  1.
</event>
<event>
12    1  0.1348628E-002  0.2042511E+03  0.7818608E-02  0.1146201E+00
         -1   -1    0    0    0  501 -0.00000000000E+00  0.00000000000E+00  0.19880784336E+04  0.19880784336E+04  0.00000000000E+00 0. -1.
          1   -1    0    0  502    0  0.00000000000E+00 -0.00000000000E+00 -0.13031136329E+03  0.13031136329E+03  0.00000000000E+00 0.  1.
          6    2    1    2  502    0  0.10919163625E+03 -0.34516900065E+01 -0.40863488639E+02  0.20886599313E+03  0.17326410705E+03 0.  0.
         24    2    3    3    0    0  0.79925130722E+02  0.36544372427E+02 -0.81881610337E+02  0.14436180982E+03  0.80076315771E+02 0.  0.
         -6    2    1    2    0  501 -0.10919163625E+03  0.34516900065E+01  0.18986305589E+04  0.19095238038E+04  0.17189656822E+03 0.  0.
        -24    2    5    5    0    0 -0.73180852291E+01 -0.10357580087E+02  0.12634435502E+04  0.12660538802E+04  0.80262004722E+02 0.  0.
          5    1    3    3  502    0  0.29266505526E+02 -0.39996062434E+02  0.41018121698E+02  0.64504183302E+02  0.47000000000E+01 0. -1.
        -11    1    4    4    0    0  0.58930644712E+02 -0.10488175410E+02 -0.68853732643E+02  0.91234090166E+02  0.00000000000E+00 0.  1.
         12    1    4    4    0    0  0.20994486010E+02  0.47032547838E+02 -0.13027877694E+02  0.53127719659E+02  0.00000000000E+00 0. -1.
         -5    1    5    5    0  501 -0.10187355102E+03  0.13809270094E+02  0.63518700877E+03  0.64346992350E+03  0.47000000000E+01 0.  1.
         11    1    6    6    0    0 -0.88141505606E+01 -0.35920873329E+02  0.30018285504E+03  0.30245288038E+03  0.00000000000E+00 0. -1.
        -12    1    6    6    0    0  0.14960653315E+01  0.25563293241E+02  0.96326069512E+03  0.96360099986E+03  0.00000000000E+00 0.  1.
</event>
<event>
12    1  0.1348628E-002  0.1899897E+03  0.7818608E-02  0.1158471E+00
         -2   -1    0    0    0  501 -0.00000000000E+00  0.00000000000E+00  0.16587899784E+02  0.16587899784E+02  0.00000000000E+00 0. -1.
          2   -1    0    0  502    0  0.00000000000E+00 -0.00000000000E+00 -0.25262487351E+04  0.25262487351E+04  0.00000000000E+00 0.  1.
          6    2    1    2  502    0  0.27715832630E+02  0.69206530663E+02 -0.79642794451E+03  0.81938177687E+03  0.17757058934E+03 0.  0.
         24    2    3    3    0    0 -0.18507505708E+02  0.62488397188E+02 -0.73456362382E+03  0.74172217026E+03  0.79503036784E+02 0.  0.
         -6    2    1    2    0  501 -0.27715832630E+02 -0.69206530663E+02 -0.17132328909E+04  0.17234548581E+04  0.17196510756E+03 0.  0.
        -24    2    5    5    0    0  0.45629113893E+02 -0.30222527726E+02 -0.11509879342E+04  0.11550881499E+04  0.80374076365E+02 0.  0.
          5    1    3    3  502    0  0.46223338338E+02  0.67181334750E+01 -0.61864320688E+02  0.77659606610E+02  0.47000000000E+01 0. -1.
        -13    1    4    4    0    0  0.24084180737E+02  0.39579333471E+02 -0.50493075135E+03  0.50705190569E+03  0.00000000000E+00 0.  1.
         14    1    4    4    0    0 -0.42591686446E+02  0.22909063718E+02 -0.22963287247E+03  0.23467026457E+03  0.00000000000E+00 0. -1.
         -5    1    5    5    0  501 -0.73344946523E+02 -0.38984002937E+02 -0.56224495662E+03  0.56836670813E+03  0.47000000000E+01 0.  1.
         13    1    6    6    0    0  0.36236551468E+02 -0.45170830183E+02 -0.42974352846E+03  0.43362771108E+03  0.00000000000E+00 0. -1.
        -14    1    6    6    0    0  0.93925624248E+01  0.14948302457E+02 -0.72124440577E+03  0.72146043885E+03  0.00000000000E+00 0.  1.
</event>
<event>
12    1  0.1348628E-002  0.1724709E+03  0.7818608E-02  0.1175295E+00
          1   -1    0    0  502    0  0.00000000000E+00  0.00000000000E+00  0.17252633351E+02  0.17252633351E+02  0.00000000000E+00 0.  1.
         -1   -1    0    0    0  501 -0.00000000000E+00 -0.00000000000E+00 -0.26327244346E+04  0.26327244346E+04  0.00000000000E+00 0. -1.
          6    2    1    2  502    0 -0.19577267345E+02 -0.23606199246E+02 -0.52402311993E+03  0.55133948800E+03  0.16862526136E+03 0.  0.
         24    2    3    3    0    0  0.38597371331E+02 -0.54399365857E+02 -0.28439282962E+03  0.30278914355E+03  0.79705306157E+02 0.  0.
         -6    2    1    2    0  501  0.19577267345E+02  0.23606199246E+02 -0.20914486813E+04  0.20986375800E+04  0.17082617877E+03 0.  0.
        -24    2    5    5    0    0  0.27034370274E+02 -0.33462070647E+02 -0.68111684771E+03  0.68712407782E+03  0.79804578407E+02 0.  0.
          5    1    3    3  502    0 -0.58174638677E+02  0.30793166610E+02 -0.23963029031E+03  0.24855034445E+03  0.47000000000E+01 0. -1.
        -11    1    4    4    0    0  0.19885644841E+02 -0.16776320509E+02 -0.14781030577E+02  0.29922611275E+02  0.00000000000E+00 0.  1.
         12    1    4    4    0    0  0.18711726490E+02 -0.37623045348E+02 -0.26961179905E+03  0.27286653227E+03  0.00000000000E+00 0. -1.
         -5    1    5    5    0  501 -0.74571029285E+01  0.57068269893E+02 -0.14103318336E+04  0.14115135021E+04  0.47000000000E+01 0.  1.
         13    1    6    6    0    0  0.30909147903E+02  0.14457009189E+02 -0.43624675098E+03  0.43757925943E+03  0.00000000000E+00 0. -1.
        -14    1    6    6    0    0 -0.38747776288E+01 -0.47919079836E+02 -0.24487009673E+03  0.24954481839E+03  0.00000000000E+00 0.  1.
</event>
<event>
12    1  0.1348628E-002  0.1940759E+03  0.7818608E-02  0.1154836E+00
         -1   -1    0    0    0  501 -0.00000000000E+00  0.00000000000E+00  0.49623348765E+03  0.49623348765E+03  0.00000000000E+00 0.  1.
          1   -1    0    0  502    0  0.00000000000E+00 -0.00000000000E+00 -0.78830215003E+02  0.78830215003E+02  0.00000000000E+00 0. -1.
          6    2    1    2  502    0 -0.90298562630E+02  0.20138971937E+01  0.15265278257E+03  0.24642796499E+03  0.17107303619E+03 0.  0.
         24    2    3    3    0    0  0.87223314707E+01  0.29085541052E+02  0.98039961709E+02  0.13005502324E+03  0.79877576414E+02 0.  0.
         -6    2    1    2    0  501  0.90298562630E+02 -0.20138971937E+01  0.26475049008E+03  0.32863573766E+03  0.17248402788E+03 0.  0.
        -24    2    5    5    0    0  0.11813494080E+02  0.18869650508E+02  0.20668957430E+03  0.22868980983E+03  0.95303864768E+02 0.  0.
          5    1    3    3  502    0 -0.99020894100E+02 -0.27071643858E+02  0.54612820858E+02  0.11637294175E+03  0.47000000000E+01 0. -1.
        -13    1    4    4    0    0 -0.22502034541E+02  0.91681908633E+01  0.88549108416E+02  0.91822338695E+02  0.00000000000E+00 0.  1.
         14    1    4    4    0    0  0.31224366012E+02  0.19917350189E+02  0.94908532937E+01  0.38232684546E+02  0.00000000000E+00 0. -1.
         -5    1    5    5    0  501  0.78485068550E+02 -0.20883547702E+02  0.58060915776E+02  0.99945927835E+02  0.47000000000E+01 0.  1.
         11    1    6    6    0    0  0.21443194436E+02 -0.15061187482E+02  0.87409637211E+01  0.27623439373E+02  0.00000000000E+00 0. -1.
        -12    1    6    6    0    0 -0.96297003566E+01  0.33930837990E+02  0.19794861058E+03  0.20106637045E+03  0.00000000000E+00 0.  1.
</event>
<event>
12    1  0.1348628E-002  0.3592735E+03  0.7818608E-02  0.1058872E+00
         -1   -1    0    0    0  501 -0.00000000000E+00  0.00000000000E+00  0.40229666527E+03  0.40229666527E+03  0.00000000000E+00 0.  1.
          1   -1    0    0  502    0  0.00000000000E+00 -0.00000000000E+00 -0.55110980606E+03  0.55110980606E+03  0.00000000000E+00 0. -1.
          6    2    1    2  502    0 -0.31162542245E+03  0.51982641456E+02  0.23365537398E+03  0.42905207968E+03  0.17227377734E+03 0.  0.
         24    2    3    3    0    0 -0.23960245318E+03  0.27751153194E+02  0.24608195299E+03  0.35190946505E+03  0.71445657172E+02 0.  0.
         -6    2    1    2    0  501  0.31162542245E+03 -0.51982641456E+02 -0.38246851477E+03  0.52435439166E+03  0.16986101476E+03 0.  0.
        -24    2    5    5    0    0  0.20648450747E+03 -0.27824627658E+00 -0.32660851402E+03  0.39446834096E+03  0.79348732446E+02 0.  0.
          5    1    3    3  502    0 -0.72022969267E+02  0.24231488262E+02 -0.12426579016E+02  0.77142614627E+02  0.47000000000E+01 0. -1.
        -11    1    4    4    0    0 -0.35439474216E+02  0.16397216629E+02  0.11477065642E+02  0.40700713527E+02  0.00000000000E+00 0.  1.
         12    1    4    4    0    0 -0.20416297897E+03  0.11353936566E+02  0.23460488735E+03  0.31120875152E+03  0.00000000000E+00 0. -1.
         -5    1    5    5    0  501  0.10514091498E+03 -0.51704395180E+02 -0.55860000744E+02  0.12988605070E+03  0.47000000000E+01 0.  1.
         11    1    6    6    0    0  0.12516106480E+03 -0.28649018786E+02 -0.24077695914E+03  0.27287286870E+03  0.00000000000E+00 0. -1.
        -12    1    6    6    0    0  0.81323442673E+02  0.28370772509E+02 -0.85831554882E+02  0.12159547226E+03  0.00000000000E+00 0.  1.
</event>
<event>
12    1  0.1348628E-002  0.1918430E+03  0.7818608E-02  0.1156810E+00
         -1   -1    0    0    0  501 -0.00000000000E+00  0.00000000000E+00  0.43411612960E+02  0.43411612960E+02  0.00000000000E+00 0.  1.
          1   -1    0    0  502    0  0.00000000000E+00 -0.00000000000E+00 -0.16909540281E+04  0.16909540281E+04  0.00000000000E+00 0. -1.
          6    2    1    2  502    0  0.44555429880E+02 -0.71114293343E+02 -0.21172250505E+03  0.28580486168E+03  0.17267185863E+03 0.  0.
         24    2    3    3    0    0 -0.40802047865E+02 -0.50139782858E+02 -0.98906850089E+02  0.14271296428E+03  0.80035118813E+02 0.  0.
         -6    2    1    2    0  501 -0.44555429880E+02  0.71114293343E+02 -0.14358199101E+04  0.14485607794E+04  0.17235744344E+03 0.  0.
        -24    2    5    5    0    0  0.50563951435E+01  0.90970511172E+02 -0.68652081999E+03  0.69734388727E+03  0.81709606544E+02 0.  0.
          5    1    3    3  502    0  0.85357477745E+02 -0.20974510485E+02 -0.11281565497E+03  0.14309189740E+03  0.47000000000E+01 0. -1.
        -11    1    4    4    0    0 -0.77885168569E+01  0.20388687690E+02 -0.38113256735E+02  0.43920153910E+02  0.00000000000E+00 0.  1.
         12    1    4    4    0    0 -0.33013531008E+02 -0.70528470548E+02 -0.60793593354E+02  0.98792810368E+02  0.00000000000E+00 0. -1.
         -5    1    5    5    0  501 -0.49611825024E+02 -0.19856217829E+02 -0.74929909014E+03  0.75121689215E+03  0.47000000000E+01 0.  1.
         11    1    6    6    0    0  0.37773147977E+02  0.44244086948E+02 -0.46381177295E+03  0.46744594411E+03  0.00000000000E+00 0. -1.
        -12    1    6    6    0    0 -0.32716752834E+02  0.46726424223E+02 -0.22270904704E+03  0.22989794316E+03  0.00000000000E+00 0.  1.
</event>
<event>
12    1  0.1348628E-002  0.2292470E+03  0.7818608E-02  0.1127171E+00
          2   -1    0    0  502    0  0.00000000000E+00  0.00000000000E+00  0.75301795414E+02  0.75301795414E+02  0.00000000000E+00 0. -1.
         -2   -1    0    0    0  501 -0.00000000000E+00 -0.00000000000E+00 -0.71807836650E+03  0.71807836650E+03  0.00000000000E+00 0.  1.
          6    2    1    2  502    0 -0.98418585803E+02 -0.11496029162E+03 -0.38778151878E+03  0.45044557767E+03  0.17211805673E+03 0.  0.
         24    2    3    3    0    0 -0.36417336909E+02 -0.13647866543E+03 -0.25497644965E+03  0.30223467502E+03  0.79875906040E+02 0.  0.
         -6    2    1    2    0  501  0.98418585803E+02  0.11496029162E+03 -0.25499505231E+03  0.34293458425E+03  0.17227758325E+03 0.  0.
        -24    2    5    5    0    0  0.69659647199E+02  0.10189750723E+03 -0.83983318031E+02  0.16896672473E+03  0.79126404755E+02 0.  0.
          5    1    3    3  502    0 -0.62001248894E+02  0.21518373814E+02 -0.13280506913E+03  0.14821090264E+03  0.47000000000E+01 0. -1.
        -11    1    4    4    0    0  0.13418238289E+02 -0.98971070786E+02 -0.15948861404E+03  0.18818060469E+03  0.00000000000E+00 0.  1.
         12    1    4    4    0    0 -0.49835575199E+02 -0.37507594644E+02 -0.95487835609E+02  0.11405407034E+03  0.00000000000E+00 0. -1.
         -5    1    5    5    0  501  0.28758938604E+02  0.13062784383E+02 -0.17101173428E+03  0.17396785952E+03  0.47000000000E+01 0.  1.
         13    1    6    6    0    0 -0.74393937929E+01  0.32983765948E+02  0.28547110585E+01  0.33932621050E+02  0.00000000000E+00 0. -1.
        -14    1    6    6    0    0  0.77099040992E+02  0.68913741286E+02 -0.86838029089E+02  0.13503410368E+03  0.00000000000E+00 0.  1.
</event>
<event>
12    1  0.1348628E-002  0.1802535E+03  0.7818608E-02  0.1167558E+00
          1   -1    0    0  502    0  0.00000000000E+00  0.00000000000E+00  0.30722785913E+03  0.30722785913E+03  0.00000000000E+00 0.  1.
         -1   -1    0    0    0  501 -0.00000000000E+00 -0.00000000000E+00 -0.13987520433E+03  0.13987520433E+03  0.00000000000E+00 0. -1.
          6    2    1    2  502    0  0.13814653947E+02 -0.49465701763E+02  0.19435762578E+03  0.26561503824E+03  0.17360518865E+03 0.  0.
         24    2    3    3    0    0  0.66233054595E+02 -0.74672140380E+01  0.85519494404E+02  0.13763304522E+03  0.84774373520E+02 0.  0.
         -6    2    1    2    0  501 -0.13814653947E+02  0.49465701763E+02 -0.27004970976E+02  0.18148802522E+03  0.17196201478E+03 0.  0.
        -24    2    5    5    0    0  0.31110481669E+02  0.57156657025E+02 -0.64369251148E+02  0.12236444248E+03  0.81209056016E+02 0.  0.
          5    1    3    3  502    0 -0.52418400648E+02 -0.41998487725E+02  0.10883813138E+03  0.12798199303E+03  0.47000000000E+01 0. -1.
        -11    1    4    4    0    0  0.65505413751E+02  0.13162463949E+02  0.93991529462E+02  0.11531963102E+03  0.00000000000E+00 0.  1.
         12    1    4    4    0    0  0.72764084387E+00 -0.20629677987E+02 -0.84720350586E+01  0.22313414196E+02  0.00000000000E+00 0. -1.
         -5    1    5    5    0  501 -0.44925135616E+02 -0.76909552621E+01  0.37364280172E+02  0.59123582738E+02  0.47000000000E+01 0.  1.
         11    1    6    6    0    0 -0.16647559548E+02  0.53599234758E+02 -0.32835004444E+02  0.65024277946E+02  0.00000000000E+00 0. -1.
        -12    1    6    6    0    0  0.47758041217E+02  0.35574222675E+01 -0.31534246704E+02  0.57340164538E+02  0.00000000000E+00 0.  1.
</event>
<event>
12    1  0.1348628E-002  0.1869886E+03  0.7818608E-02  0.1161206E+00
         -2   -1    0    0    0  501 -0.00000000000E+00  0.00000000000E+00  0.77345658845E+02  0.77345658845E+02  0.00000000000E+00 0.  1.
          2   -1    0    0  502    0  0.00000000000E+00 -0.00000000000E+00 -0.61501032890E+03  0.61501032890E+03  0.00000000000E+00 0. -1.
          6    2    1    2  502    0  0.41341729172E+02  0.60609142798E+02 -0.90275737896E+02  0.20732890953E+03  0.17161865025E+03 0.  0.
         24    2    3    3    0    0  0.55712805430E+02  0.29680913361E+02  0.84332588437E+01  0.10278877730E+03  0.80681717739E+02 0.  0.
         -6    2    1    2    0  501 -0.41341729172E+02 -0.60609142798E+02 -0.44738893216E+03  0.48502707821E+03  0.17237112062E+03 0.  0.
        -24    2    5    5    0    0 -0.65666559358E+02 -0.36154349965E+02 -0.43425714438E+03  0.44782132454E+03  0.79658252755E+02 0.  0.
          5    1    3    3  502    0 -0.14371076258E+02  0.30928229437E+02 -0.98708996740E+02  0.10454013223E+03  0.47000000000E+01 0. -1.
        -11    1    4    4    0    0  0.13405104825E+02  0.39927760899E+02 -0.24025459395E+02  0.48488613353E+02  0.00000000000E+00 0.  1.
         12    1    4    4    0    0  0.42307700605E+02 -0.10246847538E+02  0.32458718239E+02  0.54300163947E+02  0.00000000000E+00 0. -1.
         -5    1    5    5    0  501  0.24324830186E+02 -0.24454792832E+02 -0.13131787779E+02  0.37205753673E+02  0.47000000000E+01 0.  1.
         11    1    6    6    0    0  0.62852301267E+01 -0.14298678975E+02 -0.22359999480E+03  0.22414485052E+03  0.00000000000E+00 0. -1.
        -12    1    6    6    0    0 -0.71951789485E+02 -0.21855670990E+02 -0.21065714958E+03  0.22367647403E+03  0.00000000000E+00 0.  1.
</event>
<event>
12    1  0.1348628E-002  0.2308355E+03  0.7818608E-02  0.1126053E+00
         -2   -1    0    0    0  501 -0.00000000000E+00  0.00000000000E+00  0.27196861194E+02  0.27196861194E+02  0.00000000000E+00 0.  1.
          2   -1    0    0  502    0  0.00000000000E+00 -0.00000000000E+00 -0.22545921709E+04  0.22545921709E+04  0.00000000000E+00 0. -1.
          6    2    1    2  502    0  0.15358239398E+03 -0.88659706118E+01 -0.70074252148E+03  0.73778266821E+03  0.17209598172E+03 0.  0.
         24    2    3    3    0    0  0.11913012308E+03  0.55617253038E+02 -0.54681105371E+03  0.56730676999E+03  0.74494145817E+02 0.  0.
         -6    2    1    2    0  501 -0.15358239398E+03  0.88659706118E+01 -0.15266527882E+04  0.15440063639E+04  0.17210682365E+03 0.  0.
        -24    2    5    5    0    0 -0.75615035244E+02  0.54083701697E+02 -0.57943939522E+03  0.59250289352E+03  0.81651612043E+02 0.  0.
          5    1    3    3  502    0  0.34452270899E+02 -0.64483223650E+02 -0.15393146777E+03  0.17047589822E+03  0.47000000000E+01 0. -1.
        -13    1    4    4    0    0  0.55371234389E+02  0.30214763013E+01 -0.11518806996E+03  0.12784128589E+03  0.00000000000E+00 0.  1.
         14    1    4    4    0    0  0.63758888689E+02  0.52595776737E+02 -0.43162298375E+03  0.43946548410E+03  0.00000000000E+00 0. -1.
         -5    1    5    5    0  501 -0.77967358732E+02 -0.45217731085E+02 -0.94721339302E+03  0.95150347038E+03  0.47000000000E+01 0.  1.
         11    1    6    6    0    0  0.51715590463E+01  0.37455669900E+02 -0.25273818909E+03  0.25555090384E+03  0.00000000000E+00 0. -1.
        -12    1    6    6    0    0 -0.80786594290E+02  0.16628031797E+02 -0.32670120613E+03  0.33695198967E+03  0.00000000000E+00 0.  1.
</event>
<event>
12    1  0.1348628E-002  0.2125966E+03  0.7818608E-02  0.1139526E+00
          2   -1    0    0  502    0  0.00000000000E+00  0.00000000000E+00  0.84368803707E+03  0.84368803707E+03  0.00000000000E+00 0.  1.
         -2   -1    0    0    0  501 -0.00000000000E+00 -0.00000000000E+00 -0.53641638525E+02  0.53641638525E+02  0.00000000000E+00 0. -1.
          6    2    1    2  502    0  0.10890560222E+03  0.59847173600E+02  0.40968127356E+03  0.46118240576E+03  0.17148863255E+03 0.  0.
         24    2    3    3    0    0  0.40377101889E+02  0.91056848205E+02  0.31880735495E+03  0.34307077115E+03  0.78343886075E+02 0.  0.
         -6    2    1    2    0  501 -0.10890560222E+03 -0.59847173600E+02  0.38036512498E+03  0.43614726983E+03  0.17350705546E+03 0.  0.
        -24    2    5    5    0    0 -0.13747058233E+01 -0.82494943107E+02  0.21500955022E+03  0.23755126975E+03  0.58259708363E+02 0.  0.
          5    1    3    3  502    0  0.68528500333E+02 -0.31209674605E+02  0.90873918608E+02  0.11811163461E+03  0.47000000000E+01 0. -1.
        -13    1    4    4    0    0  0.47663524506E+02  0.36524522121E+02  0.23696594762E+03  0.24445595230E+03  0.00000000000E+00 0.  1.
         14    1    4    4    0    0 -0.72864226172E+01  0.54532326084E+02  0.81841407331E+02  0.98614818849E+02  0.00000000000E+00 0. -1.
         -5    1    5    5    0  501 -0.10753089640E+03  0.22647769507E+02  0.16535557475E+03  0.19859600008E+03  0.47000000000E+01 0.  1.
         11    1    6    6    0    0  0.82249794308E+01 -0.75718155565E+01  0.17576713366E+01  0.11316893831E+02  0.00000000000E+00 0. -1.
        -12    1    6    6    0    0 -0.95996852540E+01 -0.74923127551E+02  0.21325187889E+03  0.22623437592E+03  0.00000000000E+00 0.  1.
</event>
<event>
12    1  0.1348628E-002  0.2055773E+03  0.7818608E-02  0.1145117E+00
         -2   -1    0    0    0  501 -0.00000000000E+00  0.00000000000E+00  0.39041283877E+02  0.39041283877E+02  0.00000000000E+00 0. -1.
          2   -1    0    0  502    0  0.00000000000E+00 -0.00000000000E+00 -0.14945740591E+04  0.14945740591E+04  0.00000000000E+00 0.  1.
          6    2    1    2  502    0 -0.40644656467E+02 -0.10697283611E+03 -0.11261150557E+04  0.11444306011E+04  0.16879308729E+03 0.  0.
         24    2    3    3    0    0 -0.90807944318E+02 -0.59335927686E+02 -0.79121617380E+03  0.80242916604E+03  0.78119765497E+02 0.  0.
         -6    2    1    2    0  501  0.40644656467E+02  0.10697283611E+03 -0.32941771953E+03  0.38918474187E+03  0.17278180923E+03 0.  0.
        -24    2    5    5    0    0  0.51912214731E+02  0.42397242266E+02 -0.78189790934E+02  0.12950315358E+03  0.78517636183E+02 0.  0.
          5    1    3    3  502    0  0.50163287851E+02 -0.47636908427E+02 -0.33489888189E+03  0.34200143506E+03  0.47000000000E+01 0. -1.
        -13    1    4    4    0    0 -0.63617759549E+02 -0.57431754860E+02 -0.73471509214E+03  0.73969716264E+03  0.00000000000E+00 0.  1.
         14    1    4    4    0    0 -0.27190184768E+02 -0.19041728256E+01 -0.56501081657E+02  0.62732003398E+02  0.00000000000E+00 0. -1.
         -5    1    5    5    0  501 -0.11267558264E+02  0.64575593847E+02 -0.25122792859E+03  0.25968158829E+03  0.47000000000E+01 0.  1.
         11    1    6    6    0    0  0.64659307990E+01 -0.16876458656E+01  0.15239893187E+02  0.16640635626E+02  0.00000000000E+00 0. -1.
        -12    1    6    6    0    0  0.45446283932E+02  0.44084888132E+02 -0.93429684121E+02  0.11286251796E+03  0.00000000000E+00 0.  1.
</event>
<event>
12    1  0.1348628E-002  0.2030328E+03  0.7818608E-02  0.1147205E+00
         -1   -1    0    0    0  501 -0.00000000000E+00  0.00000000000E+00  0.13474213793E+03  0.13474213793E+03  0.00000000000E+00 0.  1.
          1   -1    0    0  502    0  0.00000000000E+00 -0.00000000000E+00 -0.35665743393E+03  0.35665743393E+03  0.00000000000E+00 0. -1.
          6    2    1    2  502    0 -0.10690072831E+03  0.15894418688E+02 -0.20352612552E+03  0.28734742351E+03  0.17165447786E+03 0.  0.
         24    2    3    3    0    0 -0.66919671812E+02 -0.52397200296E+02 -0.15562682744E+03  0.19472635216E+03  0.80466972921E+02 0.  0.
         -6    2    1    2    0  501  0.10690072831E+03 -0.15894418688E+02 -0.18389170478E+02  0.20405214834E+03  0.17210089887E+03 0.  0.
        -24    2    5    5    0    0  0.73259805895E+02 -0.70931482238E+02  0.19104271760E+02  0.12929495313E+03  0.77161761078E+02 0.  0.
          5    1    3    3  502    0 -0.39981056500E+02  0.68291618984E+02 -0.47899298083E+02  0.92621071356E+02  0.47000000000E+01 0. -1.
        -11    1    4    4    0    0 -0.78894798419E+02 -0.19647649396E+02 -0.11931068459E+03  0.14437956504E+03  0.00000000000E+00 0.  1.
         12    1    4    4    0    0  0.11975126606E+02 -0.32749550900E+02 -0.36316142855E+02  0.50346787119E+02  0.00000000000E+00 0. -1.
         -5    1    5    5    0  501  0.33640922417E+02  0.55037063550E+02 -0.37493442237E+02  0.74757195213E+02  0.47000000000E+01 0.  1.
         11    1    6    6    0    0  0.74980774604E+02 -0.24922006661E+02 -0.10844749902E+01  0.79021510123E+02  0.00000000000E+00 0. -1.
        -12    1    6    6    0    0 -0.17209687085E+01 -0.46009475578E+02  0.20188746750E+02  0.50273443005E+02  0.00000000000E+00 0.  1.
</event>
<event>
12    1  0.1348628E-002  0.2891661E+03  0.7818608E-02  0.1090785E+00
          2   -1    0    0  502    0  0.00000000000E+00  0.00000000000E+00  0.11612228090E+04  0.11612228090E+04  0.00000000000E+00 0. -1.
         -2   -1    0    0    0  501 -0.00000000000E+00 -0.00000000000E+00 -0.72091499101E+02  0.72091499101E+02  0.00000000000E+00 0.  1.
          6    2    1    2  502    0 -0.22634909240E+03 -0.52786759354E+02  0.52713126194E+03  0.60207279618E+03  0.17493979249E+03 0.  0.
         24    2    3    3    0    0 -0.23432645352E+02 -0.19387700511E+02  0.14445554475E+03  0.16761523077E+03  0.79388219399E+02 0.  0.
         -6    2    1    2    0  501  0.22634909240E+03  0.52786759354E+02  0.56200004793E+03  0.63124151188E+03  0.16911959927E+03 0.  0.
        -24    2    5    5    0    0  0.18080309463E+03 -0.81552436906E+01  0.47931148471E+03  0.51877883302E+03  0.81459874757E+02 0.  0.
          5    1    3    3  502    0 -0.20291644705E+03 -0.33399058843E+02  0.38267571719E+03  0.43445756541E+03  0.47000000000E+01 0. -1.
        -11    1    4    4    0    0 -0.48883528904E+02 -0.18951240632E+02  0.61358805981E+02  0.80707199128E+02  0.00000000000E+00 0.  1.
         12    1    4    4    0    0  0.25450883552E+02 -0.43645987973E+00  0.83096738767E+02  0.86908031646E+02  0.00000000000E+00 0. -1.
         -5    1    5    5    0  501  0.45545997776E+02  0.60942003045E+02  0.82688563218E+02  0.11246267886E+03  0.47000000000E+01 0.  1.
         11    1    6    6    0    0  0.84332298514E+02  0.19259886287E+02  0.31144569417E+03  0.32323567286E+03  0.00000000000E+00 0. -1.
        -12    1    6    6    0    0  0.96470796112E+02 -0.27415129977E+02  0.16786579054E+03  0.19554316017E+03  0.00000000000E+00 0.  1.
</event>
<event>
12    1  0.1348628E-002  0.2136672E+03  0.7818608E-02  0.1138694E+00
         -2   -1    0    0    0  501 -0.00000000000E+00  0.00000000000E+00  0.11885598782E+03  0.11885598782E+03  0.00000000000E+00 0.  1.
          2   -1    0    0  502    0  0.00000000000E+00 -0.00000000000E+00 -0.41504846292E+03  0.41504846292E+03  0.00000000000E+00 0. -1.
          6    2    1    2  502    0 -0.12706901313E+03  0.41724850153E+01 -0.75464956910E+02  0.22697367875E+03  0.17221540987E+03 0.  0.
         24    2    3    3    0    0 -0.12496732417E+02 -0.51075058467E+01  0.14703536699E+02  0.80804691011E+02  0.78300377783E+02 0.  0.
         -6    2    1    2    0  501  0.12706901313E+03 -0.41724850153E+01 -0.22072751820E+03  0.30693077199E+03  0.17123643822E+03 0.  0.
        -24    2    5    5    0    0  0.10261404030E+03  0.59206414658E+02 -0.17315135194E+03  0.22386145024E+03  0.78086602067E+02 0.  0.
          5    1    3    3  502    0 -0.11457228071E+03  0.92799908620E+01 -0.90168493609E+02  0.14616898774E+03  0.47000000000E+01 0. -1.
        -11    1    4    4    0    0  0.30248988954E+02  0.98010319818E+01 -0.35448757987E+01  0.31994182363E+02  0.00000000000E+00 0.  1.
         12    1    4    4    0    0 -0.42745721372E+02 -0.14908537828E+02  0.18248412498E+02  0.48810508648E+02  0.00000000000E+00 0. -1.
         -5    1    5    5    0  501  0.24454972831E+02 -0.63378899673E+02 -0.47576166252E+02  0.83069321745E+02  0.47000000000E+01 0.  1.
         11    1    6    6    0    0  0.52085339300E+02 -0.13054181728E+02 -0.63791318880E+02  0.83382411785E+02  0.00000000000E+00 0. -1.
        -12    1    6    6    0    0  0.50528700995E+02  0.72260596386E+02 -0.10936003306E+03  0.14047903846E+03  0.00000000000E+00 0.  1.
</event>
<event>
12    1  0.1348628E-002  0.2844807E+03  0.7818608E-02  0.1093267E+00
          1   -1    0    0  502    0  0.00000000000E+00  0.00000000000E+00  0.18829247427E+04  0.18829247427E+04  0.00000000000E+00 0.  1.
         -1   -1    0    0    0  501 -0.00000000000E+00 -0.00000000000E+00 -0.43781183817E+02  0.43781183817E+02  0.00000000000E+00 0. -1.
          6    2    1    2  502    0  0.12155844781E+03  0.19220723377E+03  0.79059833479E+03  0.84036090532E+03  0.17158277091E+03 0.  0.
         24    2    3    3    0    0  0.19204173804E+02  0.51672019454E+02  0.42148997270E+03  0.43232951335E+03  0.78842965074E+02 0.  0.
         -6    2    1    2    0  501 -0.12155844781E+03 -0.19220723377E+03  0.10485452241E+04  0.10863450212E+04  0.17023025926E+03 0.  0.
        -24    2    5    5    0    0 -0.87264857345E+02 -0.10651955779E+03  0.38603049337E+03  0.41741581225E+03  0.79087590575E+02 0.  0.
          5    1    3    3  502    0  0.10235427400E+03  0.14053521431E+03  0.36910836209E+03  0.40803139197E+03  0.47000000000E+01 0. -1.
        -11    1    4    4    0    0  0.45990330563E+02  0.18382159059E+02  0.16390204671E+03  0.17122177196E+03  0.00000000000E+00 0.  1.
         12    1    4    4    0    0 -0.26786156759E+02  0.33289860395E+02  0.25758792599E+03  0.26110774139E+03  0.00000000000E+00 0. -1.
         -5    1    5    5    0  501 -0.34293590461E+02 -0.85687675971E+02  0.66251473077E+03  0.66892920899E+03  0.47000000000E+01 0.  1.
         11    1    6    6    0    0 -0.79438204779E+02 -0.11957915447E+03  0.35044344068E+03  0.37870860523E+03  0.00000000000E+00 0. -1.
        -12    1    6    6    0    0 -0.78266525652E+01  0.13059596675E+02  0.35587052689E+02  0.38707207014E+02  0.00000000000E+00 0.  1.
</event>
<event>
12    1  0.1348628E-002  0.3092272E+03  0.7818608E-02  0.1080717E+00
          1   -1    0    0  502    0  0.00000000000E+00  0.00000000000E+00  0.49475557654E+03  0.49475557654E+03  0.00000000000E+00 0.  1.
         -1   -1    0    0    0  501 -0.00000000000E+00 -0.00000000000E+00 -0.22597853556E+03  0.22597853556E+03  0.00000000000E+00 0. -1.
          6    2    1    2  502    0  0.42795748133E+01  0.25691729310E+03 -0.26551406572E+01  0.30939307508E+03  0.17231429100E+03 0.  0.
         24    2    3    3    0    0 -0.33702892026E+02  0.58428518985E+02  0.20565313411E+02  0.10591889804E+03  0.79032297728E+02 0.  0.
         -6    2    1    2    0  501 -0.42795748133E+01 -0.25691729310E+03  0.27143218164E+03  0.41134103701E+03  0.17175916059E+03 0.  0.
        -24    2    5    5    0    0 -0.79722534122E+01 -0.18121340817E+03  0.27032126048E+03  0.33539343524E+03  0.80705120079E+02 0.  0.
          5    1    3    3  502    0  0.37982466840E+02  0.19848877412E+03 -0.23220454068E+02  0.20347417705E+03  0.47000000000E+01 0. -1.
        -11    1    4    4    0    0 -0.56379203666E+02  0.40901008647E+02 -0.16254256200E+01  0.69671723983E+02  0.00000000000E+00 0.  1.
         12    1    4    4    0    0  0.22676311640E+02  0.17527510338E+02  0.22190739031E+02  0.36247174054E+02  0.00000000000E+00 0. -1.
         -5    1    5    5    0  501  0.36926785989E+01 -0.75703884933E+02  0.11109211530E+01  0.75947601773E+02  0.47000000000E+01 0.  1.
         11    1    6    6    0    0  0.28331263365E+01 -0.16523981221E+03  0.26944327704E+03  0.31608843966E+03  0.00000000000E+00 0. -1.
        -12    1    6    6    0    0 -0.10805379749E+02 -0.15973595960E+02  0.87798344323E+00  0.19304995579E+02  0.00000000000E+00 0.  1.
</event>
<event>
12    1  0.1348628E-002  0.1963141E+03  0.7818608E-02  0.1152887E+00
         -2   -1    0    0    0  501 -0.00000000000E+00  0.00000000000E+00  0.43776813093E+02  0.43776813093E+02  0.00000000000E+00 0. -1.
          2   -1    0    0  502    0  0.00000000000E+00 -0.00000000000E+00 -0.17149224153E+04  0.17149224153E+04  0.00000000000E+00 0.  1.
          6    2    1    2  502    0 -0.91240975242E+02  0.26920436702E+02 -0.14486313407E+04  0.14618495891E+04  0.17152794056E+03 0.  0.
         24    2    3    3    0    0 -0.12253067731E+03  0.31881727535E+02 -0.13333007427E+04  0.13421545737E+04  0.87508959127E+02 0.  0.
         -6    2    1    2    0  501  0.91240975242E+02 -0.26920436702E+02 -0.22251426155E+03  0.29684963935E+03  0.17192290805E+03 0.  0.
        -24    2    5    5    0    0  0.69194441279E+02 -0.61386482304E+02 -0.75108286314E+02  0.14379876710E+03  0.80502545509E+02 0.  0.
          5    1    3    3  502    0  0.31289702067E+02 -0.49612908329E+01 -0.11533059802E+03  0.11969501536E+03  0.47000000000E+01 0. -1.
        -11    1    4    4    0    0 -0.25725237350E+02 -0.10049490134E+01 -0.71457799451E+03  0.71504161277E+03  0.00000000000E+00 0.  1.
         12    1    4    4    0    0 -0.96805439958E+02  0.32886676548E+02 -0.61872274815E+03  0.62711296094E+03  0.00000000000E+00 0. -1.
         -5    1    5    5    0  501  0.22046533963E+02  0.34466045601E+02 -0.14740597524E+03  0.15305087225E+03  0.47000000000E+01 0.  1.
         11    1    6    6    0    0  0.73433977718E+02 -0.66228013634E+02 -0.86063019625E+02  0.13109363913E+03  0.00000000000E+00 0. -1.
        -12    1    6    6    0    0 -0.42395364390E+01  0.48415313308E+01  0.10954733311E+02  0.12705127971E+02  0.00000000000E+00 0.  1.
</event>
<event>
12    1  0.1348628E-002  0.1772805E+03  0.7818608E-02  0.1170461E+00
          1   -1    0    0  502    0  0.00000000000E+00  0.00000000000E+00  0.97790011868E+03  0.97790011868E+03  0.00000000000E+00 0.  1.
         -1   -1    0    0    0  501 -0.00000000000E+00 -0.00000000000E+00 -0.37999877031E+02  0.37999877031E+02  0.00000000000E+00 0. -1.
          6    2    1    2  502    0 -0.29196549656E+01 -0.52696576605E+02  0.66588075743E+03  0.68867629840E+03  0.16760789746E+03 0.  0.
         24    2    3    3    0    0  0.32012798871E+02  0.27563102108E+01  0.20787115639E+03  0.22597749396E+03  0.82601413906E+02 0.  0.
         -6    2    1    2    0  501  0.29196549656E+01  0.52696576605E+02  0.27401948422E+03  0.32722369731E+03  0.17088948704E+03 0.  0.
        -24    2    5    5    0    0  0.89086477765E+01 -0.33451491745E+02  0.93697423395E+02  0.12723496429E+03  0.78810929965E+02 0.  0.
          5    1    3    3  502    0 -0.34932453837E+02 -0.55452886816E+02  0.45800960103E+03  0.46269880443E+03  0.47000000000E+01 0. -1.
        -11    1    4    4    0    0 -0.22145189135E+02  0.15281668285E+02  0.33540150332E+02  0.42998610114E+02  0.00000000000E+00 0.  1.
         12    1    4    4    0    0  0.54157988007E+02 -0.12525358075E+02  0.17433100606E+03  0.18297888385E+03  0.00000000000E+00 0. -1.
         -5    1    5    5    0  501 -0.59889928109E+01  0.86148068350E+02  0.18032206082E+03  0.19998873302E+03  0.47000000000E+01 0.  1.
         13    1    6    6    0    0  0.39228632990E+02 -0.26518596005E+01  0.26772251025E+02  0.47567545980E+02  0.00000000000E+00 0. -1.
        -14    1    6    6    0    0 -0.30319985213E+02 -0.30799632144E+02  0.66925172370E+02  0.79667418311E+02  0.00000000000E+00 0.  1.
</event>
<event>
12    1  0.1348628E-002  0.2445123E+03  0.7818608E-02  0.1116823E+00
          1   -1    0    0  502    0  0.00000000000E+00  0.00000000000E+00  0.11112651025E+04  0.11112651025E+04  0.00000000000E+00 0. -1.
         -1   -1    0    0    0  501 -0.00000000000E+00 -0.00000000000E+00 -0.53975894022E+02  0.53975894022E+02  0.00000000000E+00 0.  1.
          6    2    1    2  502    0  0.41601928586E+02 -0.16869448544E+03  0.56255261665E+03  0.61351834096E+03  0.17248408135E+03 0.  0.
         24    2    3    3    0    0 -0.21958118685E+02 -0.15179286057E+03  0.34001223402E+03  0.38141522501E+03  0.79661930013E+02 0.  0.
         -6    2    1    2    0  501 -0.41601928586E+02  0.16869448544E+03  0.49473659187E+03  0.55172265560E+03  0.17159558120E+03 0.  0.
        -24    2    5    5    0    0 -0.33774784525E+02  0.56248177935E+02  0.36471529677E+03  0.37958008842E+03  0.82214367596E+02 0.  0.
          5    1    3    3  502    0  0.63560047271E+02 -0.16901624870E+02  0.22254038263E+03  0.23210311595E+03  0.47000000000E+01 0. -1.
        -11    1    4    4    0    0  0.43548616299E+01 -0.73371929984E+02  0.80353713485E+02  0.10889960606E+03  0.00000000000E+00 0.  1.
         12    1    4    4    0    0 -0.26312980315E+02 -0.78420930582E+02  0.25965852053E+03  0.27251561895E+03  0.00000000000E+00 0. -1.
         -5    1    5    5    0  501 -0.78271440607E+01  0.11244630750E+03  0.13002129510E+03  0.17214256718E+03  0.47000000000E+01 0.  1.
         13    1    6    6    0    0 -0.55984310557E+02  0.15725096911E+02  0.17934748974E+03  0.18853923671E+03  0.00000000000E+00 0. -1.
        -14    1    6    6    0    0  0.22209526032E+02  0.40523081024E+02  0.18536780702E+03  0.19104085171E+03  0.00000000000E+00 0.  1.
</event>
<event>
12    1  0.1348628E-002  0.2871874E+03  0.7818608E-02  0.1091827E+00
          2   -1    0    0  502    0  0.00000000000E+00  0.00000000000E+00  0.11239086367E+04  0.11239086367E+04  0.00000000000E+00 0.  1.
         -2   -1    0    0    0  501 -0.00000000000E+00 -0.00000000000E+00 -0.82279620742E+02  0.82279620742E+02  0.00000000000E+00 0. -1.
          6    2    1    2  502    0 -0.15234585214E+03 -0.16908748704E+03  0.31898906114E+03  0.42775138233E+03  0.17151497609E+03 0.  0.
         24    2    3    3    0    0 -0.44025638388E+02 -0.12049102697E+02  0.12968784648E+03  0.15895524632E+03  0.79777158989E+02 0.  0.
         -6    2    1    2    0  501  0.15234585214E+03  0.16908748704E+03  0.72263995481E+03  0.77843687510E+03  0.17876136971E+03 0.  0.
        -24    2    5    5    0    0  0.76914346200E+02  0.25767743292E+02  0.42356102096E+03  0.43828873134E+03  0.78187468915E+02 0.  0.
          5    1    3    3  502    0 -0.10832021375E+03 -0.15703838434E+03  0.18930121465E+03  0.26879613600E+03  0.47000000000E+01 0. -1.
        -13    1    4    4    0    0 -0.26737158388E+01  0.23645396870E+02  0.72371963258E+01  0.24872284981E+02  0.00000000000E+00 0.  1.
         14    1    4    4    0    0 -0.41351922549E+02 -0.35694499567E+02  0.12245065016E+03  0.13408296134E+03  0.00000000000E+00 0. -1.
         -5    1    5    5    0  501  0.75431505935E+02  0.14331974374E+03  0.29907893385E+03  0.34014814376E+03  0.47000000000E+01 0.  1.
         11    1    6    6    0    0  0.19174666865E+02 -0.55823759805E+01  0.27647804272E+03  0.27719837459E+03  0.00000000000E+00 0. -1.
        -12    1    6    6    0    0  0.57739679336E+02  0.31350119272E+02  0.14708297824E+03  0.16109035675E+03  0.00000000000E+00 0.  1.
</event>
<event>
12    1  0.1348628E-002  0.2727824E+03  0.7818608E-02  0.1099698E+00
         -1   -1    0    0    0  501 -0.00000000000E+00  0.00000000000E+00  0.28328847070E+03  0.28328847070E+03  0.00000000000E+00 0.  1.
          1   -1    0    0  502    0  0.00000000000E+00 -0.00000000000E+00 -0.42259891513E+03  0.42259891513E+03  0.00000000000E+00 0. -1.
          6    2    1    2  502    0 -0.22692883960E+02  0.20744386420E+03  0.14711281306E+03  0.31182820110E+03  0.17901598660E+03 0.  0.
         24    2    3    3    0    0  0.55774605973E+02  0.11078239026E+03  0.87247006212E+02  0.17360160326E+03  0.84509951479E+02 0.  0.
         -6    2    1    2    0  501  0.22692883960E+02 -0.20744386420E+03 -0.28642325750E+03  0.39405918473E+03  0.17232653556E+03 0.  0.
        -24    2    5    5    0    0  0.34609746797E+02 -0.35600886292E+02 -0.13866665736E+03  0.16706552058E+03  0.78849151090E+02 0.  0.
          5    1    3    3  502    0 -0.78467489933E+02  0.96661473944E+02  0.59865806849E+02  0.13822659784E+03  0.47000000000E+01 0. -1.
        -11    1    4    4    0    0  0.30760755324E+02  0.11819267073E+03  0.81678505386E+02  0.14692552442E+03  0.00000000000E+00 0.  1.
         12    1    4    4    0    0  0.25013850649E+02 -0.74102804756E+01  0.55685008263E+01  0.26676078844E+02  0.00000000000E+00 0. -1.
         -5    1    5    5    0  501 -0.11916862837E+02 -0.17184297791E+03 -0.14775660014E+03  0.22699366414E+03  0.47000000000E+01 0.  1.
         11    1    6    6    0    0 -0.41443327471E+01 -0.31904804086E+02 -0.11934294050E+03  0.12360351720E+03  0.00000000000E+00 0. -1.
        -12    1    6    6    0    0  0.38754079544E+02 -0.36960822058E+01 -0.19323716860E+02  0.43462003385E+02  0.00000000000E+00 0.  1.
</event>
<event>
12    1  0.1348628E-002  0.1998664E+03  0.7818608E-02  0.1149852E+00
         -2   -1    0    0    0  501 -0.00000000000E+00  0.00000000000E+00  0.42123137516E+02  0.42123137516E+02  0.00000000000E+00 0.  1.
          2   -1    0    0  502    0  0.00000000000E+00 -0.00000000000E+00 -0.15809404454E+04  0.15809404454E+04  0.00000000000E+00 0. -1.
          6    2    1    2  502    0 -0.41954118707E+02  0.92293011974E+02 -0.25698758935E+03  0.32580750544E+03  0.17271294505E+03 0.  0.
         24    2    3    3    0    0 -0.79178902846E+02  0.90887206307E+02 -0.13347045969E+03  0.19670974340E+03  0.79690505176E+02 0.  0.
         -6    2    1    2    0  501  0.41954118707E+02 -0.92293011974E+02 -0.12818297185E+04  0.12972560775E+04  0.17177821480E+03 0.  0.
        -24    2    5    5    0    0  0.51927938985E+01 -0.12598941320E+03 -0.91679854159E+03  0.92880432676E+03  0.79105083308E+02 0.  0.
          5    1    3    3  502    0  0.37224784138E+02  0.14058056677E+01 -0.12351712966E+03  0.12909776204E+03  0.47000000000E+01 0. -1.
        -13    1    4    4    0    0 -0.29019009824E+02  0.29931009350E+02 -0.10469130597E+03  0.11268645792E+03  0.00000000000E+00 0.  1.
         14    1    4    4    0    0 -0.50159893021E+02  0.60956196957E+02 -0.28779153713E+02  0.84023285486E+02  0.00000000000E+00 0. -1.
         -5    1    5    5    0  501  0.36761324809E+02  0.33696401227E+02 -0.36503117693E+03  0.36845175069E+03  0.47000000000E+01 0.  1.
         11    1    6    6    0    0 -0.14657924662E+02 -0.74238151239E+02 -0.73122149405E+03  0.73512654096E+03  0.00000000000E+00 0. -1.
        -12    1    6    6    0    0  0.19850718560E+02 -0.51751261963E+02 -0.18557704753E+03  0.19367778580E+03  0.00000000000E+00 0.  1.
</event>
<event>
12    1  0.1348628E-002  0.2202756E+03  0.7818608E-02  0.1133678E+00
         -4   -1    0    0    0  501 -0.00000000000E+00  0.00000000000E+00  0.33691692293E+02  0.33691692293E+02  0.00000000000E+00 0. -1.
          4   -1    0    0  502    0  0.00000000000E+00 -0.00000000000E+00 -0.14935528944E+04  0.14935528944E+04  0.00000000000E+00 0.  1.
          6    2    1    2  502    0  0.38067161387E+02  0.13317907192E+03 -0.87273726302E+03  0.89998668011E+03  0.17064559804E+03 0.  0.
         24    2    3    3    0    0  0.70172094246E+02  0.28922761416E+02 -0.39601878390E+03  0.41092359284E+03  0.79162320650E+02 0.  0.
         -6    2    1    2    0  501 -0.38067161387E+02 -0.13317907192E+03 -0.58712393909E+03  0.62725790659E+03  0.17190749709E+03 0.  0.
        -24    2    5    5    0    0 -0.35510146154E+02 -0.79581243782E+02 -0.17248568023E+03  0.20913562637E+03  0.79951582163E+02 0.  0.
          5    1    3    3  502    0 -0.32104932859E+02  0.10425631050E+03 -0.47671847912E+03  0.48906308727E+03  0.47000000000E+01 0. -1.
        -11    1    4    4    0    0  0.80039608698E+02  0.44204507331E+02 -0.32589925374E+03  0.33848294051E+03  0.00000000000E+00 0.  1.
         12    1    4    4    0    0 -0.98675144526E+01 -0.15281745915E+02 -0.70119530165E+02  0.72440652332E+02  0.00000000000E+00 0. -1.
         -5    1    5    5    0  501 -0.25570152327E+01 -0.53597828133E+02 -0.41463825886E+03  0.41812228022E+03  0.47000000000E+01 0.  1.
         11    1    6    6    0    0 -0.15093720735E+02  0.15095460077E+02 -0.33860407555E+02  0.40027746881E+02  0.00000000000E+00 0. -1.
        -12    1    6    6    0    0 -0.20416425419E+02 -0.94676703859E+02 -0.13862527268E+03  0.16910787949E+03  0.00000000000E+00 0.  1.
</event>
<event>
12    1  0.1348628E-002  0.1751755E+03  0.7818608E-02  0.1172556E+00
          1   -1    0    0  502    0  0.00000000000E+00  0.00000000000E+00  0.15139872787E+04  0.15139872787E+04  0.00000000000E+00 0. -1.
         -1   -1    0    0    0  501 -0.00000000000E+00 -0.00000000000E+00 -0.20292436858E+02  0.20292436858E+02  0.00000000000E+00 0.  1.
          6    2    1    2  502    0 -0.32826112190E+02  0.97819303312E+01  0.71691100631E+03  0.73778138800E+03  0.17084128808E+03 0.  0.
         24    2    3    3    0    0 -0.47736200449E+02  0.66978657162E+02  0.42328105641E+03  0.43822435876E+03  0.78159136034E+02 0.  0.
         -6    2    1    2    0  501  0.32826112190E+02 -0.97819303312E+01  0.77678383555E+03  0.79649832758E+03  0.17275189970E+03 0.  0.
        -24    2    5    5    0    0  0.67828633855E+02  0.33754027732E+02  0.62498310261E+03  0.63467710310E+03  0.80443077374E+02 0.  0.
          5    1    3    3  502    0  0.14910088259E+02 -0.57196726830E+02  0.29362994990E+03  0.29955702925E+03  0.47000000000E+01 0. -1.
        -11    1    4    4    0    0 -0.69528088896E+02  0.47242762257E+02  0.31238721412E+03  0.32349931263E+03  0.00000000000E+00 0.  1.
         12    1    4    4    0    0  0.21791888447E+02  0.19735894904E+02  0.11089384229E+03  0.11472504612E+03  0.00000000000E+00 0. -1.
         -5    1    5    5    0  501 -0.35002521664E+02 -0.43535958063E+02  0.15180073295E+03  0.16182122448E+03  0.47000000000E+01 0.  1.
         11    1    6    6    0    0 -0.11428915195E+02 -0.97172678493E+01  0.39427013658E+02  0.42184532746E+02  0.00000000000E+00 0. -1.
        -12    1    6    6    0    0  0.79257549049E+02  0.43471295581E+02  0.58555608895E+03  0.59249257035E+03  0.00000000000E+00 0.  1.
</event>
<event>
12    1  0.1348628E-002  0.1891398E+03  0.7818608E-02  0.1159239E+00
         -3   -1    0    0    0  501 -0.00000000000E+00  0.00000000000E+00  0.10448320822E+03  0.10448320822E+03  0.00000000000E+00 0. -1.
          3   -1    0    0  502    0  0.00000000000E+00 -0.00000000000E+00 -0.57524730806E+03  0.57524730806E+03  0.00000000000E+00 0.  1.
          6    2    1    2  502    0 -0.69431365243E+02  0.28555196822E+02 -0.18548815806E+02  0.18923933419E+03  0.17271755352E+03 0.  0.
         24    2    3    3    0    0 -0.98626499509E+02  0.21523695876E+02  0.27689086440E+02  0.13390551565E+03  0.83507758468E+02 0.  0.
         -6    2    1    2    0  501  0.69431365243E+02 -0.28555196822E+02 -0.45221528403E+03  0.49049118208E+03  0.17449017977E+03 0.  0.
        -24    2    5    5    0    0  0.10810174890E+02 -0.74882404201E+02 -0.21353574032E+03  0.24034588692E+03  0.80277011812E+02 0.  0.
          5    1    3    3  502    0  0.29195134266E+02  0.70315009459E+01 -0.46237902247E+02  0.55333818543E+02  0.47000000000E+01 0. -1.
        -11    1    4    4    0    0 -0.54997820307E+02  0.39726474687E+02 -0.15811291564E+02  0.69663117720E+02  0.00000000000E+00 0.  1.
         12    1    4    4    0    0 -0.43628679201E+02 -0.18202778812E+02  0.43500378004E+02  0.64242397930E+02  0.00000000000E+00 0. -1.
         -5    1    5    5    0  501  0.58621190353E+02  0.46327207379E+02 -0.23867954372E+03  0.25014529516E+03  0.47000000000E+01 0.  1.
         11    1    6    6    0    0 -0.12459716984E+02  0.49304263340E+01 -0.26426847647E+01  0.13657870768E+02  0.00000000000E+00 0. -1.
        -12    1    6    6    0    0  0.23269891874E+02 -0.79812830535E+02 -0.21089305555E+03  0.22668801615E+03  0.00000000000E+00 0.  1.
</event>
<event>
12    1  0.1348628E-002  0.2632142E+03  0.7818608E-02  0.1105227E+00
          1   -1    0    0  502    0  0.00000000000E+00  0.00000000000E+00  0.97329460990E+03  0.97329460990E+03  0.00000000000E+00 0.  1.
         -1   -1    0    0    0  501 -0.00000000000E+00 -0.00000000000E+00 -0.72790141720E+02  0.72790141720E+02  0.00000000000E+00 0. -1.
          6    2    1    2  502    0  0.77515418559E+02 -0.18258022228E+03  0.52960021069E+03  0.59184268339E+03  0.17451991585E+03 0.  0.
         24    2    3    3    0    0  0.88229990983E+02 -0.19511104340E+03  0.52612119732E+03  0.57434933967E+03  0.84975285538E+02 0.  0.
         -6    2    1    2    0  501 -0.77515418559E+02  0.18258022228E+03  0.37090425748E+03  0.45424206823E+03  0.17152757984E+03 0.  0.
        -24    2    5    5    0    0 -0.78609978168E+02  0.13463388199E+03  0.36765089999E+03  0.40594378728E+03  0.72920253122E+02 0.  0.
          5    1    3    3  502    0 -0.10714572425E+02  0.12530821118E+02  0.34790133770E+01  0.17493343712E+02  0.47000000000E+01 0. -1.
        -13    1    4    4    0    0  0.82243726844E+02 -0.15627492281E+03  0.49046495422E+03  0.52128855102E+03  0.00000000000E+00 0.  1.
         14    1    4    4    0    0  0.59862641389E+01 -0.38836120592E+02  0.35656243093E+02  0.53060788653E+02  0.00000000000E+00 0. -1.
         -5    1    5    5    0  501  0.10945596097E+01  0.47946340291E+02  0.32533574903E+01  0.48298280953E+02  0.47000000000E+01 0.  1.
         11    1    6    6    0    0 -0.50305582001E+02  0.10841158061E+03  0.19242070894E+03  0.22651589705E+03  0.00000000000E+00 0. -1.
        -12    1    6    6    0    0 -0.28304396167E+02  0.26222301384E+02  0.17523019106E+03  0.17942789022E+03  0.00000000000E+00 0.  1.
</event>
<event>
12    1  0.1348628E-002  0.1964952E+03  0.7818608E-02  0.1152730E+00
         -2   -1    0    0    0  501 -0.00000000000E+00  0.00000000000E+00  0.11269824823E+03  0.11269824823E+03  0.00000000000E+00 0.  1.
          2   -1    0    0  502    0  0.00000000000E+00 -0.00000000000E+00 -0.41622865803E+03  0.41622865803E+03  0.00000000000E+00 0. -1.
          6    2    1    2  502    0  0.89461063739E+02  0.28148004524E+02 -0.41011018051E+02  0.20145783748E+03  0.17351589148E+03 0.  0.
         24    2    3    3    0    0  0.46181360607E+02  0.84210794883E+02 -0.36752665471E+02  0.13034952058E+03  0.80100331170E+02 0.  0.
         -6    2    1    2    0  501 -0.89461063739E+02 -0.28148004524E+02 -0.26251939175E+03  0.32746906878E+03  0.17182539940E+03 0.  0.
        -24    2    5    5    0    0 -0.26918931335E+02  0.15483257628E+02 -0.44572416167E+02  0.96518469022E+02  0.79779411181E+02 0.  0.
          5    1    3    3  502    0  0.43279703132E+02 -0.56062790359E+02 -0.42583525794E+01  0.71108316903E+02  0.47000000000E+01 0. -1.
        -11    1    4    4    0    0 -0.18458353705E+02  0.35719541352E+02  0.29523708576E+01  0.40315170216E+02  0.00000000000E+00 0.  1.
         12    1    4    4    0    0  0.64639714312E+02  0.48491253532E+02 -0.39705036329E+02  0.90034350363E+02  0.00000000000E+00 0. -1.
         -5    1    5    5    0  501 -0.62542132404E+02 -0.43631262152E+02 -0.21794697558E+03  0.23095059975E+03  0.47000000000E+01 0.  1.
         11    1    6    6    0    0 -0.20362873816E+02  0.36719903665E+02 -0.57199648787E+02  0.70956308927E+02  0.00000000000E+00 0. -1.
        -12    1    6    6    0    0 -0.65560575190E+01 -0.21236646036E+02  0.12627232620E+02  0.25562160095E+02  0.00000000000E+00 0.  1.
</event>
<event>
12    1  0.1348628E-002  0.1723762E+03  0.7818608E-02  0.1175392E+00
          2   -1    0    0  502    0  0.00000000000E+00  0.00000000000E+00  0.26093900274E+03  0.26093900274E+03  0.00000000000E+00 0.  1.
         -2   -1    0    0    0  501 -0.00000000000E+00 -0.00000000000E+00 -0.11923844660E+03  0.11923844660E+03  0.00000000000E+00 0. -1.
          6    2    1    2  502    0  0.24525596752E+02 -0.20891143959E+02  0.31054554914E+02  0.17642727086E+03  0.17065828937E+03 0.  0.
         24    2    3    3    0    0  0.53285843928E+02 -0.62065234186E+02 -0.41280799679E+01  0.11492633330E+03  0.80619765466E+02 0.  0.
         -6    2    1    2    0  501 -0.24525596752E+02  0.20891143959E+02  0.11064600122E+03  0.20375017848E+03  0.16802872627E+03 0.  0.
        -24    2    5    5    0    0 -0.27234916702E+01  0.21109050016E+02 -0.84776956910E+01  0.82556430974E+02  0.79313829636E+02 0.  0.
          5    1    3    3  502    0 -0.28760247177E+02  0.41174090227E+02  0.35182634882E+02  0.61500937561E+02  0.47000000000E+01 0. -1.
        -13    1    4    4    0    0  0.66756320293E+02 -0.31723040081E+02 -0.22142092710E+02  0.77155880143E+02  0.00000000000E+00 0.  1.
         14    1    4    4    0    0 -0.13470476364E+02 -0.30342194105E+02  0.18014012743E+02  0.37770453157E+02  0.00000000000E+00 0. -1.
         -5    1    5    5    0  501 -0.21802105081E+02 -0.21790605651E+00  0.11912369691E+03  0.12119374751E+03  0.47000000000E+01 0.  1.
         11    1    6    6    0    0  0.29546288316E+02  0.31237547328E+02 -0.19180539522E+02  0.47081425347E+02  0.00000000000E+00 0. -1.
        -12    1    6    6    0    0 -0.32269779986E+02 -0.10128497313E+02  0.10702843831E+02  0.35475005627E+02  0.00000000000E+00 0.  1.
</event>
<event>
12    1  0.1348628E-002  0.1825857E+03  0.7818608E-02  0.1165324E+00
          1   -1    0    0  502    0  0.00000000000E+00  0.00000000000E+00  0.80035538875E+03  0.80035538875E+03  0.00000000000E+00 0. -1.
         -1   -1    0    0    0  501 -0.00000000000E+00 -0.00000000000E+00 -0.52689030391E+02  0.52689030391E+02  0.00000000000E+00 0.  1.
          6    2    1    2  502    0 -0.47385478777E+02 -0.44542841764E+02  0.18118363542E+03  0.25833692269E+03  0.17228176784E+03 0.  0.
         24    2    3    3    0    0 -0.43481673155E+02  0.41702727326E+01  0.18762471649E+03  0.20882142262E+03  0.80593456486E+02 0.  0.
         -6    2    1    2    0  501  0.47385478777E+02  0.44542841764E+02  0.56648272293E+03  0.59470749645E+03  0.16895230865E+03 0.  0.
        -24    2    5    5    0    0  0.77900346360E+02  0.60907927803E+02  0.52670330987E+03  0.54175974023E+03  0.79429212974E+02 0.  0.
          5    1    3    3  502    0 -0.39038056222E+01 -0.48713114496E+02 -0.64410810728E+01  0.49515500075E+02  0.47000000000E+01 0. -1.
        -11    1    4    4    0    0 -0.63288213564E+01 -0.13658396685E+02 -0.16214276569E+01  0.15140502218E+02  0.00000000000E+00 0.  1.
         12    1    4    4    0    0 -0.37152851799E+02  0.17828669417E+02  0.18924614415E+03  0.19368092040E+03  0.00000000000E+00 0. -1.
         -5    1    5    5    0  501 -0.30514867583E+02 -0.16365086039E+02  0.39779413061E+02  0.52947756214E+02  0.47000000000E+01 0.  1.
         11    1    6    6    0    0  0.20162328222E+02  0.65526598977E+02  0.26520299221E+03  0.27392130573E+03  0.00000000000E+00 0. -1.
        -12    1    6    6    0    0  0.57738018138E+02 -0.46186711739E+01  0.26150031766E+03  0.26783843450E+03  0.00000000000E+00 0.  1.
</event>
<event>
12    1  0.1348628E-002  0.2585379E+03  0.7818608E-02  0.1108025E+00
          1   -1    0    0  502    0  0.00000000000E+00  0.00000000000E+00  0.36424904772E+03  0.36424904772E+03  0.00000000000E+00 0.  1.
         -1   -1    0    0    0  501 -0.00000000000E+00 -0.00000000000E+00 -0.23361360542E+03  0.23361360542E+03  0.00000000000E+00 0. -1.
          6    2    1    2  502    0  0.12382309791E+03 -0.14846877119E+03 -0.72961742445E+02  0.26942133923E+03  0.17288524107E+03 0.  0.
         24    2    3    3    0    0  0.12356473144E+03 -0.17592021694E+03 -0.79588600792E+02  0.24079174129E+03  0.73689563133E+02 0.  0.
         -6    2    1    2    0  501 -0.12382309791E+03  0.14846877119E+03  0.20359718474E+03  0.32844131390E+03  0.17043106362E+03 0.  0.
        -24    2    5    5    0    0 -0.15143878383E+03  0.15129031836E+03  0.18987358906E+03  0.29712016584E+03  0.80037162909E+02 0.  0.
          5    1    3    3  502    0  0.25836646689E+00  0.27451445745E+02  0.66268583476E+01  0.28629597942E+02  0.47000000000E+01 0. -1.
        -13    1    4    4    0    0  0.30438515726E+02 -0.89350296885E+02 -0.76486947203E+01  0.94702066101E+02  0.00000000000E+00 0.  1.
         14    1    4    4    0    0  0.93126215717E+02 -0.86569920052E+02 -0.71939906072E+02  0.14608967519E+03  0.00000000000E+00 0. -1.
         -5    1    5    5    0  501  0.27615685922E+02 -0.28215471720E+01  0.13723595679E+02  0.31321148059E+02  0.47000000000E+01 0.  1.
         11    1    6    6    0    0 -0.56166576517E+02  0.22221511364E+02  0.20385906851E+02  0.63750020259E+02  0.00000000000E+00 0. -1.
        -12    1    6    6    0    0 -0.95272207315E+02  0.12906880700E+03  0.16948768221E+03  0.23337014558E+03  0.00000000000E+00 0.  1.
</event>
<event>
12    1  0.1348628E-002  0.2089406E+03  0.7818608E-02  0.1142408E+00
         -2   -1    0    0    0  501 -0.00000000000E+00  0.00000000000E+00  0.47871678715E+02  0.47871678715E+02  0.00000000000E+00 0. -1.
          2   -1    0    0  502    0  0.00000000000E+00 -0.00000000000E+00 -0.16892517259E+04  0.16892517259E+04  0.00000000000E+00 0.  1.
          6    2    1    2  502    0  0.79845803757E+02 -0.86363557974E+02 -0.23159074437E+03  0.31194080064E+03  0.17273903352E+03 0.  0.
         24    2    3    3    0    0  0.53243238881E+02  0.52676814024E+01 -0.17496822702E+03  0.20089045188E+03  0.82948792860E+02 0.  0.
         -6    2    1    2    0  501 -0.79845803757E+02  0.86363557974E+02 -0.14097893029E+04  0.14251826040E+04  0.17264286786E+03 0.  0.
        -24    2    5    5    0    0  0.19214286472E+02  0.16875647076E+02 -0.41979700652E+03  0.42781190661E+03  0.78355117810E+02 0.  0.
          5    1    3    3  502    0  0.26602564876E+02 -0.91631239377E+02 -0.56622517345E+02  0.11105034875E+03  0.47000000000E+01 0. -1.
        -11    1    4    4    0    0 -0.17237230932E+02  0.18830799144E+02 -0.61997881325E+02  0.67048179807E+02  0.00000000000E+00 0.  1.
         12    1    4    4    0    0  0.70480469813E+02 -0.13563117742E+02 -0.11297034570E+03  0.13384227208E+03  0.00000000000E+00 0. -1.
         -5    1    5    5    0  501 -0.99060090229E+02  0.69487910898E+02 -0.98999229633E+03  0.99737069740E+03  0.47000000000E+01 0.  1.
         13    1    6    6    0    0  0.31443571183E+02  0.43013386389E+02 -0.28884597659E+03  0.29371899457E+03  0.00000000000E+00 0. -1.
        -14    1    6    6    0    0 -0.12229284711E+02 -0.26137739312E+02 -0.13095102993E+03  0.13409291205E+03  0.00000000000E+00 0.  1.
</event>
<event>
12    1  0.1348628E-002  0.2459683E+03  0.7818608E-02  0.1115880E+00
         -2   -1    0    0    0  501 -0.00000000000E+00  0.00000000000E+00  0.14201384189E+03  0.14201384189E+03  0.00000000000E+00 0.  1.
          2   -1    0    0  502    0  0.00000000000E+00 -0.00000000000E+00 -0.48660791614E+03  0.48660791614E+03  0.00000000000E+00 0. -1.
          6    2    1    2  502    0 -0.16534586494E+03  0.62061298637E+02 -0.28306875489E+03  0.37485681808E+03  0.17087672229E+03 0.  0.
         24    2    3    3    0    0 -0.26579054019E+02 -0.15631166860E+02 -0.68902378421E+02  0.10805787914E+03  0.77318742889E+02 0.  0.
         -6    2    1    2    0  501  0.16534586494E+03 -0.62061298637E+02 -0.61525319364E+02  0.25376493995E+03  0.17152381755E+03 0.  0.
        -24    2    5    5    0    0  0.14450379011E+03 -0.10007504549E+03 -0.76830445923E+02  0.20755050572E+03  0.79233420447E+02 0.  0.
          5    1    3    3  502    0 -0.13876681092E+03  0.77692465497E+02 -0.21416637647E+03  0.26679893894E+03  0.47000000000E+01 0. -1.
        -13    1    4    4    0    0 -0.57020653747E+01 -0.16053123691E+02  0.14320604503E+02  0.22255247541E+02  0.00000000000E+00 0.  1.
         14    1    4    4    0    0 -0.20876988645E+02  0.42195683104E+00 -0.83222982923E+02  0.85802631598E+02  0.00000000000E+00 0. -1.
         -5    1    5    5    0  501  0.20842074828E+02  0.38013746854E+02  0.15305126559E+02  0.46214434239E+02  0.47000000000E+01 0.  1.
         11    1    6    6    0    0  0.63392810122E+02 -0.73241147089E+01 -0.50922890702E+02  0.81642095936E+02  0.00000000000E+00 0. -1.
        -12    1    6    6    0    0  0.81110979988E+02 -0.92750930782E+02 -0.25907555221E+02  0.12590840978E+03  0.00000000000E+00 0.  1.
</event>
<event>
12    1  0.1348628E-002  0.5874141E+03  0.7818608E-02  0.9931867E-01
         -2   -1    0    0    0  501 -0.00000000000E+00  0.00000000000E+00  0.43080218708E+03  0.43080218708E+03  0.00000000000E+00 0.  1.
          2   -1    0    0  502    0  0.00000000000E+00 -0.00000000000E+00 -0.81209606336E+03  0.81209606336E+03  0.00000000000E+00 0. -1.
          6    2    1    2  502    0 -0.55555141961E+03 -0.82253158728E+02 -0.26342389653E+03  0.64378953090E+03  0.17224937993E+03 0.  0.
         24    2    3    3    0    0 -0.46138301382E+03 -0.42736585677E+02 -0.15421171876E+03  0.49419461799E+03  0.75804782555E+02 0.  0.
         -6    2    1    2    0  501  0.55555141961E+03  0.82253158728E+02 -0.11786997975E+03  0.59910871954E+03  0.17214808669E+03 0.  0.
        -24    2    5    5    0    0  0.12286368929E+03  0.40083109436E+02 -0.23413432037E+02  0.15420298297E+03  0.80797458806E+02 0.  0.
          5    1    3    3  502    0 -0.94168405793E+02 -0.39516573051E+02 -0.10921217776E+03  0.14959491291E+03  0.47000000000E+01 0. -1.
        -13    1    4    4    0    0 -0.22225061681E+03 -0.58208872787E+02 -0.81486261378E+02  0.24376960503E+03  0.00000000000E+00 0.  1.
         14    1    4    4    0    0 -0.23913239701E+03  0.15472287110E+02 -0.72725457387E+02  0.25042501297E+03  0.00000000000E+00 0. -1.
         -5    1    5    5    0  501  0.43268773032E+03  0.42170049292E+02 -0.94456547716E+02  0.44490573657E+03  0.47000000000E+01 0.  1.
         11    1    6    6    0    0  0.75498015855E+02 -0.95257708424E+01 -0.36465282522E+02  0.84382507297E+02  0.00000000000E+00 0. -1.
        -12    1    6    6    0    0  0.47365673435E+02  0.49608880278E+02  0.13051850485E+02  0.69820475675E+02  0.00000000000E+00 0.  1.
</event>
<event>
12    1  0.1348628E-002  0.1903626E+03  0.7818608E-02  0.1158135E+00
         -1   -1    0    0    0  501 -0.00000000000E+00  0.00000000000E+00  0.11509825229E+04  0.11509825229E+04  0.00000000000E+00 0.  1.
          1   -1    0    0  502    0  0.00000000000E+00 -0.00000000000E+00 -0.32854750293E+02  0.32854750293E+02  0.00000000000E+00 0. -1.
          6    2    1    2  502    0 -0.29855814182E+02  0.71634242058E+02  0.67632986595E+03  0.70226894914E+03  0.17244348371E+03 0.  0.
         24    2    3    3    0    0  0.12337405898E+02  0.10882899987E+03  0.49901902350E+03  0.51619116250E+03  0.73738508479E+02 0.  0.
         -6    2    1    2    0  501  0.29855814182E+02 -0.71634242058E+02  0.44179790666E+03  0.48156832406E+03  0.17521365851E+03 0.  0.
        -24    2    5    5    0    0  0.58377103805E+02 -0.77547945933E+02  0.19370928983E+03  0.23173140193E+03  0.82186273233E+02 0.  0.
          5    1    3    3  502    0 -0.42193220081E+02 -0.37194757814E+02  0.17731084245E+03  0.18607778664E+03  0.47000000000E+01 0. -1.
        -11    1    4    4    0    0 -0.25512945917E+02  0.22759592955E+02  0.19466367080E+03  0.19764324985E+03  0.00000000000E+00 0.  1.
         12    1    4    4    0    0  0.37850351815E+02  0.86069406917E+02  0.30435535270E+03  0.31854791265E+03  0.00000000000E+00 0. -1.
         -5    1    5    5    0  501 -0.28521289623E+02  0.59137038757E+01  0.24808861683E+03  0.24983692213E+03  0.47000000000E+01 0.  1.
         13    1    6    6    0    0 -0.60615061204E+01 -0.60026455916E+02  0.87961409705E+02  0.10666361546E+03  0.00000000000E+00 0. -1.
        -14    1    6    6    0    0  0.64438609926E+02 -0.17521490018E+02  0.10574788012E+03  0.12506778647E+03  0.00000000000E+00 0.  1.
</event>
<event>
12    1  0.1348628E-002  0.2507936E+03  0.7818608E-02  0.1112804E+00
          2   -1    0    0  502    0  0.00000000000E+00  0.00000000000E+00  0.40899840943E+04  0.40899840943E+04  0.00000000000E+00 0.  1.
         -2   -1    0    0    0  501 -0.00000000000E+00 -0.00000000000E+00 -0.27530381800E+02  0.27530381800E+02  0.00000000000E+00 0. -1.
          6    2    1    2  502    0 -0.17219557897E+03  0.53300623845E+02  0.67396277971E+03  0.71992377992E+03  0.17768552713E+03 0.  0.
         24    2    3    3    0    0 -0.10182842758E+03  0.72118846049E+02  0.59543002987E+03  0.61270836928E+03  0.72831783562E+02 0.  0.
         -6    2    1    2    0  501  0.17219557897E+03 -0.53300623845E+02  0.33884909328E+04  0.33975906961E+04  0.17105397742E+03 0.  0.
        -24    2    5    5    0    0  0.17565358292E+03 -0.88394835970E+02  0.27822524449E+04  0.27903092493E+04  0.78925353059E+02 0.  0.
          5    1    3    3  502    0 -0.70367151399E+02 -0.18818222204E+02  0.78532749840E+02  0.10721541065E+03  0.47000000000E+01 0. -1.
        -13    1    4    4    0    0  0.91245266737E+01 -0.27431718547E+01  0.62785142726E+02  0.63503985119E+02  0.00000000000E+00 0.  1.
         14    1    4    4    0    0 -0.11095295425E+03  0.74862017904E+02  0.53264488714E+03  0.54920438416E+03  0.00000000000E+00 0. -1.
         -5    1    5    5    0  501 -0.34580039432E+01  0.35094212125E+02  0.60623848790E+03  0.60728144688E+03  0.47000000000E+01 0.  1.
         13    1    6    6    0    0  0.79206051200E+02  0.26161913745E+01  0.10177500082E+04  0.10208308000E+04  0.00000000000E+00 0. -1.
        -14    1    6    6    0    0  0.96447531718E+02 -0.91011027345E+02  0.17645024366E+04  0.17694784492E+04  0.00000000000E+00 0.  1.
</event>
<event>
12    1  0.1348628E-002  0.2118747E+03  0.7818608E-02  0.1140090E+00
         -2   -1    0    0    0  501 -0.00000000000E+00  0.00000000000E+00  0.20345004329E+03  0.20345004329E+03  0.00000000000E+00 0. -1.
          2   -1    0    0  502    0  0.00000000000E+00 -0.00000000000E+00 -0.22070077596E+03  0.22070077596E+03  0.00000000000E+00 0.  1.
          6    2    1    2  502    0  0.11845380650E+03 -0.16903982485E+02 -0.82265503907E+01  0.21528629133E+03  0.17878328279E+03 0.  0.
         24    2    3    3    0    0  0.53162830270E+02 -0.45570805840E+02 -0.65540324005E+02  0.12368030362E+03  0.78091603687E+02 0.  0.
         -6    2    1    2    0  501 -0.11845380650E+03  0.16903982485E+02 -0.90241822771E+01  0.20886452792E+03  0.17095586056E+03 0.  0.
        -24    2    5    5    0    0  0.32042814834E+01 -0.61136845112E+00  0.18829718634E+02  0.82747884744E+02  0.80510949159E+02 0.  0.
          5    1    3    3  502    0  0.65290976227E+02  0.28666823355E+02  0.57313773614E+02  0.91605987707E+02  0.47000000000E+01 0. -1.
        -11    1    4    4    0    0 -0.16545346896E+02 -0.19441458891E+02 -0.16558997438E+01  0.25582432091E+02  0.00000000000E+00 0.  1.
         12    1    4    4    0    0  0.69708177167E+02 -0.26129346948E+02 -0.63884424261E+02  0.98097871531E+02  0.00000000000E+00 0. -1.
         -5    1    5    5    0  501 -0.12165808798E+03  0.17515350936E+02 -0.27853900911E+02  0.12611664317E+03  0.47000000000E+01 0.  1.
         11    1    6    6    0    0 -0.98458417218E+01 -0.34822065826E+02 -0.83611723858E+01  0.37140625618E+02  0.00000000000E+00 0. -1.
        -12    1    6    6    0    0  0.13050123205E+02  0.34210697375E+02  0.27190891020E+02  0.45607259126E+02  0.00000000000E+00 0.  1.
</event>
<event>
12    1  0.1348628E-002  0.2073604E+03  0.7818608E-02  0.1143673E+00
          2   -1    0    0  502    0  0.00000000000E+00  0.00000000000E+00  0.55407341929E+03  0.55407341929E+03  0.00000000000E+00 0. -1.
         -2   -1    0    0    0  501 -0.00000000000E+00 -0.00000000000E+00 -0.82883486175E+02  0.82883486175E+02  0.00000000000E+00 0.  1.
          6    2    1    2  502    0 -0.78282293587E+02  0.87727917300E+02  0.15831139430E+03  0.26313194574E+03  0.17421715857E+03 0.  0.
         24    2    3    3    0    0 -0.71532611025E+02  0.56520386511E+02  0.22754477590E+02  0.12378620357E+03  0.80584051851E+02 0.  0.
         -6    2    1    2    0  501  0.78282293587E+02 -0.87727917300E+02  0.31287853882E+03  0.37382495973E+03  0.16741509938E+03 0.  0.
        -24    2    5    5    0    0 -0.75956715563E+01 -0.77427974936E+02  0.22169206939E+03  0.24805462969E+03  0.79567205265E+02 0.  0.
          5    1    3    3  502    0 -0.67496825624E+01  0.31207530789E+02  0.13555691671E+03  0.13934574217E+03  0.47000000000E+01 0. -1.
        -11    1    4    4    0    0 -0.32699424889E+02  0.37461321523E+01 -0.26140716702E+02  0.42031214161E+02  0.00000000000E+00 0.  1.
         12    1    4    4    0    0 -0.38833186136E+02  0.52774254359E+02  0.48895194291E+02  0.81754989410E+02  0.00000000000E+00 0. -1.
         -5    1    5    5    0  501  0.85877965144E+02 -0.10299942364E+02  0.91186469426E+02  0.12577033003E+03  0.47000000000E+01 0.  1.
         11    1    6    6    0    0 -0.17206115942E+02  0.12062893101E+02  0.48978009118E+02  0.53295489424E+02  0.00000000000E+00 0. -1.
        -12    1    6    6    0    0  0.96104443862E+01 -0.89490868038E+02  0.17271406027E+03  0.19475914027E+03  0.00000000000E+00 0.  1.
</event>
<event>
12    1  0.1348628E-002  0.2187164E+03  0.7818608E-02  0.1134844E+00
          2   -1    0    0  502    0  0.00000000000E+00  0.00000000000E+00  0.19666907956E+04  0.19666907956E+04  0.00000000000E+00 0.  1.
         -2   -1    0    0    0  501 -0.00000000000E+00 -0.00000000000E+00 -0.27216161221E+02  0.27216161221E+02  0.00000000000E+00 0. -1.
          6    2    1    2  502    0 -0.90688100553E+02 -0.95992186524E+02  0.12893421567E+04  0.13075368131E+04  0.17265714328E+03 0.  0.
         24    2    3    3    0    0 -0.71584926170E+02 -0.25295630087E+01  0.90861945161E+03  0.91501667166E+03  0.80841828494E+02 0.  0.
         -6    2    1    2    0  501  0.90688100553E+02  0.95992186524E+02  0.65013247774E+03  0.68637014378E+03  0.17604801675E+03 0.  0.
        -24    2    5    5    0    0  0.12847294371E+02 -0.16613174868E+02  0.27207439995E+03  0.28426423894E+03  0.79628059633E+02 0.  0.
          5    1    3    3  502    0 -0.19103174382E+02 -0.93462623515E+02  0.38072270504E+03  0.39252014139E+03  0.47000000000E+01 0. -1.
        -11    1    4    4    0    0 -0.86429854581E+02  0.10829073424E+02  0.78127914668E+03  0.78611989775E+03  0.00000000000E+00 0.  1.
         12    1    4    4    0    0  0.14844928411E+02 -0.13358636432E+02  0.12734030493E+03  0.12889677392E+03  0.00000000000E+00 0. -1.
         -5    1    5    5    0  501  0.77840806182E+02  0.11260536139E+03  0.37805807779E+03  0.40210590483E+03  0.47000000000E+01 0.  1.
         11    1    6    6    0    0 -0.27896651202E+02 -0.35960005001E+01  0.44060320459E+02  0.52272996919E+02  0.00000000000E+00 0. -1.
        -12    1    6    6    0    0  0.40743945572E+02 -0.13017174368E+02  0.22801407949E+03  0.23199124203E+03  0.00000000000E+00 0.  1.
</event>
<event>
12    1  0.1348628E-002  0.4647291E+03  0.7818608E-02  0.1023419E+00
         -1   -1    0    0    0  501 -0.00000000000E+00  0.00000000000E+00  0.38311518291E+03  0.38311518291E+03  0.00000000000E+00 0. -1.
          1   -1    0    0  502    0  0.00000000000E+00 -0.00000000000E+00 -0.66202358560E+03  0.66202358560E+03  0.00000000000E+00 0.  1.
          6    2    1    2  502    0 -0.25688749934E+03  0.34720367672E+03 -0.34080951975E+03  0.57628876563E+03  0.17151102645E+03 0.  0.
         24    2    3    3    0    0 -0.23687467950E+03  0.30702865696E+03 -0.23314978521E+03  0.45955293732E+03  0.80335981169E+02 0.  0.
         -6    2    1    2    0  501  0.25688749934E+03 -0.34720367672E+03  0.61901117057E+02  0.46885000288E+03  0.17160127173E+03 0.  0.
        -24    2    5    5    0    0  0.32657584000E+02 -0.98480950798E+02  0.23171350162E+02  0.13170888381E+03  0.77751547528E+02 0.  0.
          5    1    3    3  502    0 -0.20012819839E+02  0.40175019762E+02 -0.10765973454E+03  0.11673582831E+03  0.47000000000E+01 0. -1.
        -11    1    4    4    0    0 -0.13625011872E+03  0.11464331692E+03 -0.12000029541E+03  0.21472600184E+03  0.00000000000E+00 0.  1.
         12    1    4    4    0    0 -0.10062456078E+03  0.19238534005E+03 -0.11314948980E+03  0.24482693548E+03  0.00000000000E+00 0. -1.
         -5    1    5    5    0  501  0.22422991534E+03 -0.24872272592E+03  0.38729766895E+02  0.33714111907E+03  0.47000000000E+01 0.  1.
         13    1    6    6    0    0  0.39152140264E+02 -0.10186941634E+03  0.37679990558E+02  0.11545583468E+03  0.00000000000E+00 0. -1.
        -14    1    6    6    0    0 -0.64945562643E+01  0.33884655451E+01 -0.14508640396E+02  0.16253049128E+02  0.00000000000E+00 0.  1.
</event>
<event>
12    1  0.1348628E-002  0.3099894E+03  0.7818608E-02  0.1080351E+00
         -1   -1    0    0    0  501 -0.00000000000E+00  0.00000000000E+00  0.16700811642E+03  0.16700811642E+03  0.00000000000E+00 0. -1.
          1   -1    0    0  502    0  0.00000000000E+00 -0.00000000000E+00 -0.58949730072E+03  0.58949730072E+03  0.00000000000E+00 0.  1.
          6    2    1    2  502    0 -0.46703077060E+02  0.25386595338E+03 -0.26964235954E+03  0.41070230563E+03  0.17129005254E+03 0.  0.
         24    2    3    3    0    0 -0.50779262775E+02  0.26845294679E+03 -0.27335392712E+03  0.39441545816E+03  0.78712552966E+02 0.  0.
         -6    2    1    2    0  501  0.46703077060E+02 -0.25386595338E+03 -0.15284682476E+03  0.34580311151E+03  0.17201319832E+03 0.  0.
        -24    2    5    5    0    0  0.50289656412E+02 -0.21436916985E+03 -0.55518683813E+02  0.24059989634E+03  0.79516006831E+02 0.  0.
          5    1    3    3  502    0  0.40761857155E+01 -0.14586993410E+02  0.37115675790E+01  0.16286847474E+02  0.47000000000E+01 0. -1.
        -13    1    4    4    0    0 -0.44071994983E+02  0.65480655803E+02 -0.10006072522E+03  0.12744491264E+03  0.00000000000E+00 0.  1.
         14    1    4    4    0    0 -0.67072677917E+01  0.20297229099E+03 -0.17329320190E+03  0.26697054552E+03  0.00000000000E+00 0. -1.
         -5    1    5    5    0  501 -0.35865793518E+01 -0.39496783529E+02 -0.97328140948E+02  0.10520321516E+03  0.47000000000E+01 0.  1.
         11    1    6    6    0    0  0.35903259456E+02 -0.21522612999E+03 -0.58449389909E+02  0.22589303276E+03  0.00000000000E+00 0. -1.
        -12    1    6    6    0    0  0.14386396956E+02  0.85696013982E+00  0.29307060963E+01  0.14706863577E+02  0.00000000000E+00 0.  1.
</event>
<event>
12    1  0.1348628E-002  0.2263312E+03  0.7818608E-02  0.1129249E+00
          1   -1    0    0  502    0  0.00000000000E+00  0.00000000000E+00  0.50995959324E+03  0.50995959324E+03  0.00000000000E+00 0. -1.
         -1   -1    0    0    0  501 -0.00000000000E+00 -0.00000000000E+00 -0.15446305344E+03  0.15446305344E+03  0.00000000000E+00 0.  1.
          6    2    1    2  502    0 -0.11082399796E+03  0.92196310744E+02  0.37598319167E+03  0.44074339938E+03  0.17919058414E+03 0.  0.
         24    2    3    3    0    0 -0.23340764170E+02  0.89492897714E+02  0.30785208744E+03  0.32972735550E+03  0.73440119903E+02 0.  0.
         -6    2    1    2    0  501  0.11082399796E+03 -0.92196310744E+02 -0.20486651870E+02  0.22367924730E+03  0.16979571411E+03 0.  0.
        -24    2    5    5    0    0  0.39042416327E+02  0.20070023643E+02 -0.97882010677E+01  0.89915006387E+02  0.77857455466E+02 0.  0.
          5    1    3    3  502    0 -0.87483233786E+02  0.27034130302E+01  0.68131104230E+02  0.11101604388E+03  0.47000000000E+01 0. -1.
        -13    1    4    4    0    0  0.15162402621E+02  0.54401249031E+02  0.94341955828E+02  0.10995362195E+03  0.00000000000E+00 0.  1.
         14    1    4    4    0    0 -0.38503166791E+02  0.35091648683E+02  0.21351013161E+03  0.21977373355E+03  0.00000000000E+00 0. -1.
         -5    1    5    5    0  501  0.71781581628E+02 -0.11226633439E+03 -0.10698450802E+02  0.13376424091E+03  0.47000000000E+01 0.  1.
         13    1    6    6    0    0 -0.17054260497E+01  0.24267892307E+02 -0.34394970951E+02  0.42129005468E+02  0.00000000000E+00 0. -1.
        -14    1    6    6    0    0  0.40747842377E+02 -0.41978686639E+01  0.24606769883E+02  0.47786000919E+02  0.00000000000E+00 0.  1.
</event>
<event>
12    1  0.1348628E-002  0.1777519E+03  0.7818608E-02  0.1169997E+00
          2   -1    0    0  502    0  0.00000000000E+00  0.00000000000E+00  0.71085657375E+03  0.71085657375E+03  0.00000000000E+00 0. -1.
         -2   -1    0    0    0  501 -0.00000000000E+00 -0.00000000000E+00 -0.44963143963E+02  0.44963143963E+02  0.00000000000E+00 0.  1.
          6    2    1    2  502    0 -0.44893828304E+02  0.47700731616E+01  0.29153119020E+03  0.34117883490E+03  0.17138947780E+03 0.  0.
         24    2    3    3    0    0  0.89869907370E+01  0.39885786442E+02  0.79859116328E+02  0.11990205609E+03  0.79544846668E+02 0.  0.
         -6    2    1    2    0  501  0.44893828304E+02 -0.47700731616E+01  0.37436223958E+03  0.41464088281E+03  0.17245801187E+03 0.  0.
        -24    2    5    5    0    0 -0.18244335071E+02 -0.49633147427E+02  0.18671144625E+03  0.21157923369E+03  0.84310751882E+02 0.  0.
          5    1    3    3  502    0 -0.53880819041E+02 -0.35115713280E+02  0.21167207388E+03  0.22127677881E+03  0.47000000000E+01 0. -1.
        -11    1    4    4    0    0 -0.30989400861E+02  0.31161411547E+02  0.22300311533E+02  0.49281643943E+02  0.00000000000E+00 0.  1.
         12    1    4    4    0    0  0.39976391598E+02  0.87243748951E+01  0.57558804794E+02  0.70620412147E+02  0.00000000000E+00 0. -1.
         -5    1    5    5    0  501  0.63138163375E+02  0.44863074266E+02  0.18765079333E+03  0.20306164913E+03  0.47000000000E+01 0.  1.
         11    1    6    6    0    0 -0.28786214144E+02  0.14589703476E+02  0.83978368462E+02  0.89965948791E+02  0.00000000000E+00 0. -1.
        -12    1    6    6    0    0  0.10541879074E+02 -0.64222850903E+02  0.10273307778E+03  0.12161328490E+03  0.00000000000E+00 0.  1.
</event>
<event>
12    1  0.1348628E-002  0.2027750E+03  0.7818608E-02  0.1147419E+00
          1   -1    0    0  502    0  0.00000000000E+00  0.00000000000E+00  0.30238930096E+04  0.30238930096E+04  0.00000000000E+00 0.  1.
         -1   -1    0    0    0  501 -0.00000000000E+00 -0.00000000000E+00 -0.13736102978E+02  0.13736102978E+02  0.00000000000E+00 0. -1.
          6    2    1    2  502    0  0.92532098787E+02  0.50412451802E+02  0.16609103721E+04  0.16732981937E+04  0.17378140329E+03 0.  0.
         24    2    3    3    0    0  0.75053513157E+02 -0.12379789919E+02  0.58090997991E+03  0.59132254526E+03  0.80122772930E+02 0.  0.
         -6    2    1    2    0  501 -0.92532098787E+02 -0.50412451802E+02  0.13492465345E+04  0.13643309189E+04  0.17271085899E+03 0.  0.
        -24    2    5    5    0    0  0.35333475327E+01 -0.82745306314E+01  0.86702949437E+03  0.87081340334E+03  0.80590861296E+02 0.  0.
          5    1    3    3  502    0  0.17478585630E+02  0.62792241721E+02  0.10800003922E+04  0.10819756484E+04  0.47000000000E+01 0. -1.
        -11    1    4    4    0    0 -0.40182284758E+01 -0.28427811915E+02  0.19165664429E+03  0.19379513913E+03  0.00000000000E+00 0.  1.
         12    1    4    4    0    0  0.79071741633E+02  0.16048021996E+02  0.38925333562E+03  0.39752740613E+03  0.00000000000E+00 0. -1.
         -5    1    5    5    0  501 -0.96065446320E+02 -0.42137921170E+02  0.48221704012E+03  0.49351751556E+03  0.47000000000E+01 0.  1.
         11    1    6    6    0    0 -0.21519419216E+02  0.28659605020E+02  0.44043289129E+03  0.44188866255E+03  0.00000000000E+00 0. -1.
        -12    1    6    6    0    0  0.25052766749E+02 -0.36934135651E+02  0.42659660308E+03  0.42892474079E+03  0.00000000000E+00 0.  1.
</event>
<event>
12    1  0.1348628E-002  0.1919693E+03  0.7818608E-02  0.1156697E+00
         -2   -1    0    0    0  501 -0.00000000000E+00  0.00000000000E+00  0.52197330795E+02  0.52197330795E+02  0.00000000000E+00 0. -1.
          2   -1    0    0  502    0  0.00000000000E+00 -0.00000000000E+00 -0.96861076532E+03  0.96861076532E+03  0.00000000000E+00 0.  1.
          6    2    1    2  502    0  0.56415945347E+02  0.65154980285E+02 -0.72562898644E+03  0.75084086847E+03  0.17261707174E+03 0.  0.
         24    2    3    3    0    0 -0.33429840732E+02  0.53526711259E+02 -0.37774766927E+03  0.39132594144E+03  0.80374297757E+02 0.  0.
         -6    2    1    2    0  501 -0.56415945347E+02 -0.65154980285E+02 -0.19078444808E+03  0.26996722764E+03  0.17045723225E+03 0.  0.
        -24    2    5    5    0    0 -0.35720210165E+02  0.28215994638E+02 -0.10743235524E+03  0.14301797088E+03  0.82706428244E+02 0.  0.
          5    1    3    3  502    0  0.89845786079E+02  0.11628269027E+02 -0.34788131718E+03  0.35951492703E+03  0.47000000000E+01 0. -1.
        -13    1    4    4    0    0  0.14769021344E+02  0.25019442165E+02 -0.25204949673E+03  0.25371843701E+03  0.00000000000E+00 0.  1.
         14    1    4    4    0    0 -0.48198862076E+02  0.28507269094E+02 -0.12569817254E+03  0.13760750443E+03  0.00000000000E+00 0. -1.
         -5    1    5    5    0  501 -0.20695735182E+02 -0.93370974923E+02 -0.83352092838E+02  0.12694925677E+03  0.47000000000E+01 0.  1.
         13    1    6    6    0    0  0.19953284174E+02  0.20856548499E+02 -0.99759381945E+01  0.30539294482E+02  0.00000000000E+00 0. -1.
        -14    1    6    6    0    0 -0.55673494339E+02  0.73594461393E+01 -0.97456417048E+02  0.11247867639E+03  0.00000000000E+00 0.  1.
</event>
<event>
12    1  0.1348628E-002  0.1780380E+03  0.7818608E-02  0.1169715E+00
          2   -1    0    0  502    0  0.00000000000E+00  0.00000000000E+00  0.76507310662E+03  0.76507310662E+03  0.00000000000E+00 0.  1.
         -2   -1    0    0    0  501 -0.00000000000E+00 -0.00000000000E+00 -0.76359748673E+02  0.76359748673E+02  0.00000000000E+00 0. -1.
          6    2    1    2  502    0  0.27747378390E+01  0.42384139608E+02  0.60058623691E+02  0.18811754084E+03  0.17313883572E+03 0.  0.
         24    2    3    3    0    0 -0.41489022365E+02  0.18159164204E+01 -0.15581885031E+02  0.91429187049E+02  0.79949137419E+02 0.  0.
         -6    2    1    2    0  501 -0.27747378390E+01 -0.42384139608E+02  0.62865473426E+03  0.65331531445E+03  0.17265575788E+03 0.  0.
        -24    2    5    5    0    0  0.23726329882E+02  0.24056708560E+02  0.17935949136E+03  0.19833729500E+03  0.77628548158E+02 0.  0.
          5    1    3    3  502    0  0.44263760204E+02  0.40568223187E+02  0.75640508722E+02  0.96688353795E+02  0.47000000000E+01 0. -1.
        -11    1    4    4    0    0  0.11936467930E+02  0.35036839236E+01  0.22560904679E+02  0.25763336112E+02  0.00000000000E+00 0.  1.
         12    1    4    4    0    0 -0.53425490295E+02 -0.16877675032E+01 -0.38142789710E+02  0.65665850937E+02  0.00000000000E+00 0. -1.
         -5    1    5    5    0  501 -0.26501067721E+02 -0.66440848167E+02  0.44929524290E+03  0.45497801945E+03  0.47000000000E+01 0.  1.
         13    1    6    6    0    0  0.28015440824E+02  0.34107181997E+02  0.18184982477E+03  0.18712969715E+03  0.00000000000E+00 0. -1.
        -14    1    6    6    0    0 -0.42891109415E+01 -0.10050473437E+02 -0.24903334064E+01  0.11207597845E+02  0.00000000000E+00 0.  1.
</event>
<event>
12    1  0.1348628E-002  0.2103265E+03  0.7818608E-02  0.1141308E+00
          2   -1    0    0  502    0  0.00000000000E+00  0.00000000000E+00  0.78150269438E+03  0.78150269438E+03  0.00000000000E+00 0.  1.
         -2   -1    0    0    0  501 -0.00000000000E+00 -0.00000000000E+00 -0.64686498779E+02  0.64686498779E+02  0.00000000000E+00 0. -1.
          6    2    1    2  502    0 -0.19831754135E+02 -0.10454683644E+03  0.19583684166E+03  0.28063028817E+03  0.17052258093E+03 0.  0.
         24    2    3    3    0    0  0.85587826108E+01 -0.27070352271E+02  0.17660023652E+03  0.19577296585E+03  0.79582371704E+02 0.  0.
         -6    2    1    2    0  501  0.19831754135E+02  0.10454683644E+03  0.52097935394E+03  0.56555890498E+03  0.19265006695E+03 0.  0.
        -24    2    5    5    0    0  0.34916091341E+02  0.10205924596E+03  0.18013892359E+03  0.22434340959E+03  0.79023480774E+02 0.  0.
          5    1    3    3  502    0 -0.28390536746E+02 -0.77476484164E+02  0.19236605141E+02  0.84857322327E+02  0.47000000000E+01 0. -1.
        -11    1    4    4    0    0  0.37974501032E+01 -0.53975922689E+02  0.14004396816E+03  0.15013371998E+03  0.00000000000E+00 0.  1.
         12    1    4    4    0    0  0.47613325075E+01  0.26905570418E+02  0.36556268355E+02  0.45639245862E+02  0.00000000000E+00 0. -1.
         -5    1    5    5    0  501 -0.15084337206E+02  0.24875904726E+01  0.34084043035E+03  0.34121549539E+03  0.47000000000E+01 0.  1.
         13    1    6    6    0    0  0.80595258747E+01  0.48143498900E+02  0.19115732134E+02  0.52422930657E+02  0.00000000000E+00 0. -1.
        -14    1    6    6    0    0  0.26856565466E+02  0.53915747063E+02  0.16102319146E+03  0.17192047893E+03  0.00000000000E+00 0.  1.
</event>
<event>
12    1  0.1348628E-002  0.2199602E+03  0.7818608E-02  0.1133913E+00
         -1   -1    0    0    0  501 -0.00000000000E+00  0.00000000000E+00  0.51754502822E+02  0.51754502822E+02  0.00000000000E+00 0.  1.
          1   -1    0    0  502    0  0.00000000000E+00 -0.00000000000E+00 -0.14119922459E+04  0.14119922459E+04  0.00000000000E+00 0. -1.
          6    2    1    2  502    0  0.11265365400E+03  0.78679782274E+02 -0.25353925230E+03  0.33529259383E+03  0.17104858117E+03 0.  0.
         24    2    3    3    0    0  0.11700455942E+03  0.23341935592E+02 -0.10979905939E+03  0.18113507467E+03  0.80741370757E+02 0.  0.
         -6    2    1    2    0  501 -0.11265365400E+03 -0.78679782274E+02 -0.11066984908E+04  0.11284541549E+04  0.17246992870E+03 0.  0.
        -24    2    5    5    0    0 -0.11132765063E+03 -0.88962340152E+01 -0.56899532542E+03  0.58621962452E+03  0.86167157604E+02 0.  0.
          5    1    3    3  502    0 -0.43509054211E+01  0.55337846682E+02 -0.14374019292E+03  0.15415751916E+03  0.47000000000E+01 0. -1.
        -13    1    4    4    0    0  0.86799990560E+02 -0.21770600077E+02 -0.73795774753E+02  0.11599143831E+03  0.00000000000E+00 0.  1.
         14    1    4    4    0    0  0.30204568864E+02  0.45112535669E+02 -0.36003284634E+02  0.65143636368E+02  0.00000000000E+00 0. -1.
         -5    1    5    5    0  501 -0.13260033762E+01 -0.69783548259E+02 -0.53770316534E+03  0.54223453035E+03  0.47000000000E+01 0.  1.
         13    1    6    6    0    0 -0.39858505645E+02  0.31637213884E+02 -0.31993180613E+03  0.32395366081E+03  0.00000000000E+00 0. -1.
        -14    1    6    6    0    0 -0.71469144983E+02 -0.40533447900E+02 -0.24906351929E+03  0.26226596372E+03  0.00000000000E+00 0.  1.
</event>
<event>
12    1  0.1348628E-002  0.2180555E+03  0.7818608E-02  0.1135341E+00
         -2   -1    0    0    0  501 -0.00000000000E+00  0.00000000000E+00  0.16849842457E+02  0.16849842457E+02  0.00000000000E+00 0.  1.
          2   -1    0    0  502    0  0.00000000000E+00 -0.00000000000E+00 -0.33156954135E+04  0.33156954135E+04  0.00000000000E+00 0. -1.
          6    2    1    2  502    0 -0.95729392367E+02 -0.93340847605E+02 -0.22923733840E+04  0.23027195846E+04  0.17223566210E+03 0.  0.
         24    2    3    3    0    0 -0.43869955929E+02 -0.22219827636E+02 -0.66737150643E+03  0.67532879174E+03  0.90917300791E+02 0.  0.
         -6    2    1    2    0  501  0.95729392367E+02  0.93340847605E+02 -0.10064721870E+04  0.10298256713E+04  0.17227309619E+03 0.  0.
        -24    2    5    5    0    0  0.29552995435E+02  0.95580887283E+02 -0.86677529732E+03  0.87515943622E+03  0.67790391706E+02 0.  0.
          5    1    3    3  502    0 -0.51859436438E+02 -0.71121019968E+02 -0.16250018775E+04  0.16273907929E+04  0.47000000000E+01 0. -1.
        -13    1    4    4    0    0 -0.14085759810E+02 -0.55746188275E+02 -0.42111402808E+03  0.42502125922E+03  0.00000000000E+00 0.  1.
         14    1    4    4    0    0 -0.29784196119E+02  0.33526360639E+02 -0.24625747834E+03  0.25030753252E+03  0.00000000000E+00 0. -1.
         -5    1    5    5    0  501  0.66176396931E+02 -0.22400396779E+01 -0.13969688972E+03  0.15466623512E+03  0.47000000000E+01 0.  1.
         13    1    6    6    0    0  0.84422266338E+01  0.48417604978E+02 -0.18462209659E+03  0.19105196731E+03  0.00000000000E+00 0. -1.
        -14    1    6    6    0    0  0.21110768802E+02  0.47163282305E+02 -0.68215320073E+03  0.68410746891E+03  0.00000000000E+00 0.  1.
</event>
<event>
12    1  0.1348628E-002  0.1739490E+03  0.7818608E-02  0.1173791E+00
         -2   -1    0    0    0  501 -0.00000000000E+00  0.00000000000E+00  0.53487028978E+02  0.53487028978E+02  0.00000000000E+00 0. -1.
          2   -1    0    0  502    0  0.00000000000E+00 -0.00000000000E+00 -0.60401615709E+03  0.60401615709E+03  0.00000000000E+00 0.  1.
          6    2    1    2  502    0  0.57843358588E+02 -0.26708705933E+01 -0.36781089964E+03  0.41014367639E+03  0.17198834179E+03 0.  0.
         24    2    3    3    0    0  0.38396683175E+01  0.16482247721E+02 -0.33158483329E+03  0.34219032190E+03  0.82820934495E+02 0.  0.
         -6    2    1    2    0  501 -0.57843358588E+02  0.26708705933E+01 -0.18271822848E+03  0.24735950968E+03  0.15635788540E+03 0.  0.
        -24    2    5    5    0    0 -0.36173117905E+02  0.15959158995E+02 -0.19932800277E+03  0.21663244438E+03  0.75065132067E+02 0.  0.
          5    1    3    3  502    0  0.54003690271E+02 -0.19153118314E+02 -0.36226066349E+02  0.67953354495E+02  0.47000000000E+01 0. -1.
        -11    1    4    4    0    0  0.27309573681E+02 -0.12179398433E+02 -0.50608195192E+02  0.58782139986E+02  0.00000000000E+00 0.  1.
         12    1    4    4    0    0 -0.23469905363E+02  0.28661646154E+02 -0.28097663810E+03  0.28340818191E+03  0.00000000000E+00 0. -1.
         -5    1    5    5    0  501 -0.21670240683E+02 -0.13288288401E+02  0.16609774296E+02  0.30727065302E+02  0.47000000000E+01 0.  1.
         13    1    6    6    0    0  0.12429764979E+02  0.12440285638E+02 -0.82247052619E+01  0.19414055239E+02  0.00000000000E+00 0. -1.
        -14    1    6    6    0    0 -0.48602882884E+02  0.35188733563E+01 -0.19110329751E+03  0.19721838914E+03  0.00000000000E+00 0.  1.
</event>
<event>
12    1  0.1348628E-002  0.1969136E+03  0.7818608E-02  0.1152369E+00
         -1   -1    0    0    0  501 -0.00000000000E+00  0.00000000000E+00  0.51427469903E+03  0.51427469903E+03  0.00000000000E+00 0.  1.
          1   -1    0    0  502    0  0.00000000000E+00 -0.00000000000E+00 -0.10056904944E+03  0.10056904944E+03  0.00000000000E+00 0. -1.
          6    2    1    2  502    0  0.87788458424E+02  0.24743891116E+02  0.52344547941E+02  0.20287866098E+03  0.17349560744E+03 0.  0.
         24    2    3    3    0    0  0.28305850333E+02 -0.39397579348E+02 -0.12120892371E+02  0.94111975392E+02  0.79729276045E+02 0.  0.
         -6    2    1    2    0  501 -0.87788458424E+02 -0.24743891116E+02  0.36136110165E+03  0.41196508749E+03  0.17554006363E+03 0.  0.
        -24    2    5    5    0    0  0.14342399107E+02 -0.24851452746E+02  0.10242101691E+03  0.13357187436E+03  0.80796545714E+02 0.  0.
          5    1    3    3  502    0  0.59482608091E+02  0.64141470464E+02  0.64465440312E+02  0.10876668559E+03  0.47000000000E+01 0. -1.
        -13    1    4    4    0    0 -0.23568936611E+02 -0.33717196019E+02 -0.48500562118E+01  0.41423026514E+02  0.00000000000E+00 0.  1.
         14    1    4    4    0    0  0.51874786945E+02 -0.56803833294E+01 -0.72708361587E+01  0.52688948877E+02  0.00000000000E+00 0. -1.
         -5    1    5    5    0  501 -0.10213085753E+03  0.10756163007E+00  0.25894008474E+03  0.27839321313E+03  0.47000000000E+01 0.  1.
         13    1    6    6    0    0 -0.28458115190E+02  0.90942187814E+01  0.25819622346E+02  0.39486985622E+02  0.00000000000E+00 0. -1.
        -14    1    6    6    0    0  0.42800514297E+02 -0.33945671528E+02  0.76601394567E+02  0.94084888740E+02  0.00000000000E+00 0.  1.
</event>
<event>
12    1  0.1348628E-002  0.2764356E+03  0.7818608E-02  0.1097652E+00
         -1   -1    0    0    0  501 -0.00000000000E+00  0.00000000000E+00  0.20620853454E+03  0.20620853454E+03  0.00000000000E+00 0.  1.
          1   -1    0    0  502    0  0.00000000000E+00 -0.00000000000E+00 -0.45211266976E+03  0.45211266976E+03  0.00000000000E+00 0. -1.
          6    2    1    2  502    0 -0.21506885221E+03  0.20338136815E+02 -0.26289413823E+03  0.38180393110E+03  0.17318389903E+03 0.  0.
         24    2    3    3    0    0 -0.17921311991E+03  0.16127029471E+02 -0.27965641095E+03  0.34172362732E+03  0.78675954730E+02 0.  0.
         -6    2    1    2    0  501  0.21506885221E+03 -0.20338136815E+02  0.16990003009E+02  0.27651727319E+03  0.17176987853E+03 0.  0.
        -24    2    5    5    0    0  0.16886372799E+03 -0.62232983838E+02  0.54431820045E+02  0.20361959577E+03  0.78167856804E+02 0.  0.
          5    1    3    3  502    0 -0.35855732308E+02  0.42111073435E+01  0.16762272723E+02  0.40080303782E+02  0.47000000000E+01 0. -1.
        -13    1    4    4    0    0 -0.17043371857E+02  0.28923233674E+02 -0.52842779847E+02  0.62605026574E+02  0.00000000000E+00 0.  1.
         14    1    4    4    0    0 -0.16216974805E+03 -0.12796204202E+02 -0.22681363111E+03  0.27911860074E+03  0.00000000000E+00 0. -1.
         -5    1    5    5    0  501  0.46205124222E+02  0.41894847023E+02 -0.37441817036E+02  0.72897677428E+02  0.47000000000E+01 0.  1.
         13    1    6    6    0    0  0.17635331594E+02  0.57732840993E+01 -0.14993372656E+02  0.23856591402E+02  0.00000000000E+00 0. -1.
        -14    1    6    6    0    0  0.15122839640E+03 -0.68006267937E+02  0.69425192701E+02  0.17976300436E+03  0.00000000000E+00 0.  1.
</event>
<event>
12    1  0.1348628E-002  0.1759340E+03  0.7818608E-02  0.1171797E+00
          2   -1    0    0  502    0  0.00000000000E+00  0.00000000000E+00  0.12456119185E+04  0.12456119185E+04  0.00000000000E+00 0. -1.
         -2   -1    0    0    0  501 -0.00000000000E+00 -0.00000000000E+00 -0.33905133392E+02  0.33905133392E+02  0.00000000000E+00 0.  1.
          6    2    1    2  502    0 -0.74204026250E+01  0.12947416187E+02  0.92905930998E+03  0.94504330042E+03  0.17243242225E+03 0.  0.
         24    2    3    3    0    0 -0.69982928929E+02  0.11002598708E+01  0.67103812300E+03  0.67923989987E+03  0.78586628295E+02 0.  0.
         -6    2    1    2    0  501  0.74204026250E+01 -0.12947416187E+02  0.28264747514E+03  0.33447375148E+03  0.17821446986E+03 0.  0.
        -24    2    5    5    0    0 -0.21996769130E+02 -0.60008182253E+02  0.98864510793E+02  0.14243637575E+03  0.80181605446E+02 0.  0.
          5    1    3    3  502    0  0.62562526304E+02  0.11847156316E+02  0.25802118698E+03  0.26580340054E+03  0.47000000000E+01 0. -1.
        -13    1    4    4    0    0 -0.25300294879E+02  0.15607281662E+02  0.52479737762E+03  0.52563863986E+03  0.00000000000E+00 0.  1.
         14    1    4    4    0    0 -0.44682634050E+02 -0.14507021791E+02  0.14624074538E+03  0.15360126001E+03  0.00000000000E+00 0. -1.
         -5    1    5    5    0  501  0.29417171755E+02  0.47060766066E+02  0.18378296435E+03  0.19203737574E+03  0.47000000000E+01 0.  1.
         13    1    6    6    0    0  0.10019898430E+02 -0.29591286342E+02 -0.30252750543E+01  0.31387814213E+02  0.00000000000E+00 0. -1.
        -14    1    6    6    0    0 -0.32016667560E+02 -0.30416895910E+02  0.10188978585E+03  0.11104856153E+03  0.00000000000E+00 0.  1.
</event>
<event>
12    1  0.1348628E-002  0.1770805E+03  0.7818608E-02  0.1170659E+00
          1   -1    0    0  502    0  0.00000000000E+00  0.00000000000E+00  0.51034729553E+03  0.51034729553E+03  0.00000000000E+00 0. -1.
         -1   -1    0    0    0  501 -0.00000000000E+00 -0.00000000000E+00 -0.69956705680E+02  0.69956705680E+02  0.00000000000E+00 0.  1.
          6    2    1    2  502    0  0.65951851911E+01 -0.49447245748E+02  0.31894704887E+03  0.36375136146E+03  0.16762847730E+03 0.  0.
         24    2    3    3    0    0 -0.43508414176E+02  0.52814049009E+01  0.64954201705E+02  0.99100549481E+02  0.60671206074E+02 0.  0.
         -6    2    1    2    0  501 -0.65951851911E+01  0.49447245748E+02  0.12144354098E+03  0.21655263975E+03  0.17221493999E+03 0.  0.
        -24    2    5    5    0    0 -0.41293387116E+02  0.38729191487E+02  0.14352226491E+03  0.17379282270E+03  0.80001316273E+02 0.  0.
          5    1    3    3  502    0  0.50103599367E+02 -0.54728650649E+02  0.25399284716E+03  0.26465081198E+03  0.47000000000E+01 0. -1.
        -11    1    4    4    0    0 -0.14833812554E+02  0.21147302993E+02  0.60809095015E+02  0.66068119811E+02  0.00000000000E+00 0.  1.
         12    1    4    4    0    0 -0.28674601622E+02 -0.15865898092E+02  0.41451066893E+01  0.33032429670E+02  0.00000000000E+00 0. -1.
         -5    1    5    5    0  501  0.34698201925E+02  0.10718054261E+02 -0.22078723925E+02  0.42759817049E+02  0.47000000000E+01 0.  1.
         11    1    6    6    0    0 -0.38683356142E+01 -0.16662141241E+02  0.79190029007E+02  0.81016366650E+02  0.00000000000E+00 0. -1.
        -12    1    6    6    0    0 -0.37425051501E+02  0.55391332728E+02  0.64332235902E+02  0.92776456052E+02  0.00000000000E+00 0.  1.
</event>
<event>
12    1  0.1348628E-002  0.2296463E+03  0.7818608E-02  0.1126889E+00
         -4   -1    0    0    0  501 -0.00000000000E+00  0.00000000000E+00  0.19073233608E+04  0.19073233608E+04  0.00000000000E+00 0.  1.
          4   -1    0    0  502    0  0.00000000000E+00 -0.00000000000E+00 -0.27858925849E+02  0.27858925849E+02  0.00000000000E+00 0. -1.
          6    2    1    2  502    0  0.14756219871E+03  0.30759556528E+02  0.85565129478E+03  0.88591464710E+03  0.17316140126E+03 0.  0.
         24    2    3    3    0    0  0.13137298228E+03  0.23860452454E+02  0.39213961170E+03  0.42204520565E+03  0.80749606067E+02 0.  0.
         -6    2    1    2    0  501 -0.14756219871E+03 -0.30759556528E+02  0.10238131401E+04  0.10492676395E+04  0.17334497570E+03 0.  0.
        -24    2    5    5    0    0 -0.13579247808E+03  0.27608184415E+02  0.58490533796E+03  0.60631451748E+03  0.79380292148E+02 0.  0.
          5    1    3    3  502    0  0.16189216430E+02  0.68991040738E+01  0.46351168307E+03  0.46386944145E+03  0.47000000000E+01 0. -1.
        -13    1    4    4    0    0  0.11285864090E+02  0.16668340693E+01  0.15396942109E+03  0.15439148842E+03  0.00000000000E+00 0.  1.
         14    1    4    4    0    0  0.12008711819E+03  0.22193618385E+02  0.23817019061E+03  0.26765371723E+03  0.00000000000E+00 0. -1.
         -5    1    5    5    0  501 -0.11769720631E+02 -0.58367740942E+02  0.43890780217E+03  0.44295312202E+03  0.47000000000E+01 0.  1.
         13    1    6    6    0    0 -0.11076701370E+02 -0.50252464237E+01  0.66479750669E+01  0.13861529041E+02  0.00000000000E+00 0. -1.
        -14    1    6    6    0    0 -0.12471577671E+03  0.32633430838E+02  0.57825736290E+03  0.59245298844E+03  0.00000000000E+00 0.  1.
</event>
<event>
12    1  0.1348628E-002  0.2233045E+03  0.7818608E-02  0.1131443E+00
          2   -1    0    0  502    0  0.00000000000E+00  0.00000000000E+00  0.91521239130E+03  0.91521239130E+03  0.00000000000E+00 0. -1.
         -2   -1    0    0    0  501 -0.00000000000E+00 -0.00000000000E+00 -0.60902506769E+02  0.60902506769E+02  0.00000000000E+00 0.  1.
          6    2    1    2  502    0 -0.13527139456E+03 -0.44845401070E+02  0.26820805712E+03  0.34880773313E+03  0.17152787705E+03 0.  0.
         24    2    3    3    0    0  0.92580306662E+01 -0.14912424252E+02  0.68194837166E+02  0.10018730755E+03  0.71266185880E+02 0.  0.
         -6    2    1    2    0  501  0.13527139456E+03  0.44845401070E+02  0.58610182741E+03  0.62730716494E+03  0.17230631708E+03 0.  0.
        -24    2    5    5    0    0  0.14313304221E+03  0.30923038613E+02  0.58406164805E+03  0.61051758448E+03  0.10079885987E+03 0.  0.
          5    1    3    3  502    0 -0.14452942523E+03 -0.29932976817E+02  0.20001321995E+03  0.24862042558E+03  0.47000000000E+01 0. -1.
        -13    1    4    4    0    0 -0.50387415786E+01  0.95041491104E+01 -0.11423301176E+02  0.15691066782E+02  0.00000000000E+00 0.  1.
         14    1    4    4    0    0  0.14296772245E+02 -0.24416573363E+02  0.79618138343E+02  0.84496240772E+02  0.00000000000E+00 0. -1.
         -5    1    5    5    0  501 -0.78616476423E+01  0.13922362457E+02  0.20401793611E+01  0.16789580455E+02  0.47000000000E+01 0.  1.
         13    1    6    6    0    0  0.79052968083E+02 -0.20252875817E+02  0.17203463649E+03  0.19040868387E+03  0.00000000000E+00 0. -1.
        -14    1    6    6    0    0  0.64080074123E+02  0.51175914430E+02  0.41202701156E+03  0.42010890062E+03  0.00000000000E+00 0.  1.
</event>
<event>
12    1  0.1348628E-002  0.2288749E+03  0.7818608E-02  0.1127434E+00
         -2   -1    0    0    0  501 -0.00000000000E+00  0.00000000000E+00  0.83168668672E+02  0.83168668672E+02  0.00000000000E+00 0.  1.
          2   -1    0    0  502    0  0.00000000000E+00 -0.00000000000E+00 -0.72553360847E+03  0.72553360847E+03  0.00000000000E+00 0. -1.
          6    2    1    2  502    0  0.95679303999E+02  0.11653577553E+03 -0.46770416302E+03  0.52058717051E+03  0.17183917423E+03 0.  0.
         24    2    3    3    0    0  0.47515378837E+02  0.12433941188E+03 -0.22581944149E+03  0.27378569374E+03  0.79032811962E+02 0.  0.
         -6    2    1    2    0  501 -0.95679303999E+02 -0.11653577553E+03 -0.17466077678E+03  0.28811510664E+03  0.17253640640E+03 0.  0.
        -24    2    5    5    0    0  0.11654499048E+02 -0.19365966786E+02 -0.67722085724E+02  0.10805819715E+03  0.81113655199E+02 0.  0.
          5    1    3    3  502    0  0.48163925162E+02 -0.78036363555E+01 -0.24188472153E+03  0.24680147677E+03  0.47000000000E+01 0. -1.
        -11    1    4    4    0    0  0.28144166459E+00  0.58502028122E+02 -0.15675922302E+03  0.16732011387E+03  0.00000000000E+00 0.  1.
         12    1    4    4    0    0  0.47233937172E+02  0.65837383760E+02 -0.69060218472E+02  0.10646557987E+03  0.00000000000E+00 0. -1.
         -5    1    5    5    0  501 -0.10733380305E+03 -0.97169808740E+02 -0.10693869106E+03  0.18005690948E+03  0.47000000000E+01 0.  1.
         11    1    6    6    0    0  0.19900211585E+02  0.48279000883E+01 -0.77899580348E+02  0.80546084069E+02  0.00000000000E+00 0. -1.
        -12    1    6    6    0    0 -0.82457125374E+01 -0.24193866874E+02  0.10177494624E+02  0.27512113085E+02  0.00000000000E+00 0.  1.
</event>
<event>
12    1  0.1348628E-002  0.2240618E+03  0.7818608E-02  0.1130891E+00
         -1   -1    0    0    0  501 -0.00000000000E+00  0.00000000000E+00  0.47354795744E+03  0.47354795744E+03  0.00000000000E+00 0. -1.
          1   -1    0    0  502    0  0.00000000000E+00 -0.00000000000E+00 -0.10602374137E+03  0.10602374137E+03  0.00000000000E+00 0.  1.
          6    2    1    2  502    0 -0.85597762615E+02 -0.11539257140E+03  0.18140586573E+03  0.28839068386E+03  0.17210077256E+03 0.  0.
         24    2    3    3    0    0 -0.64151711831E+02 -0.14248851367E+03  0.18365292308E+03  0.25344411824E+03  0.78019909365E+02 0.  0.
         -6    2    1    2    0  501  0.85597762615E+02  0.11539257140E+03  0.18611835034E+03  0.29118101495E+03  0.17176705340E+03 0.  0.
        -24    2    5    5    0    0  0.16887121876E+02  0.12980383838E+03  0.13084081404E+03  0.20170178391E+03  0.80187777579E+02 0.  0.
          5    1    3    3  502    0 -0.21446050784E+02  0.27095942270E+02 -0.22470573432E+01  0.34946565618E+02  0.47000000000E+01 0. -1.
        -13    1    4    4    0    0 -0.61937031971E+02 -0.60165691395E+02  0.61051077377E+02  0.10575131394E+03  0.00000000000E+00 0.  1.
         14    1    4    4    0    0 -0.22146798597E+01 -0.82322822278E+02  0.12260184570E+03  0.14769280430E+03  0.00000000000E+00 0. -1.
         -5    1    5    5    0  501  0.68710640739E+02 -0.14411266978E+02  0.55277536307E+02  0.89479231036E+02  0.47000000000E+01 0.  1.
         11    1    6    6    0    0 -0.24365975138E+02  0.24589264815E+02  0.57051032658E+02  0.66731948989E+02  0.00000000000E+00 0. -1.
        -12    1    6    6    0    0  0.41253097014E+02  0.10521457357E+03  0.73789781377E+02  0.13496983492E+03  0.00000000000E+00 0.  1.
</event>
<event>
12    1  0.1348628E-002  0.2311957E+03  0.7818608E-02  0.1125801E+00
         -1   -1    0    0    0  501 -0.00000000000E+00  0.00000000000E+00  0.27847471960E+02  0.27847471960E+02  0.00000000000E+00 0. -1.
          1   -1    0    0  502    0  0.00000000000E+00 -0.00000000000E+00 -0.32378316172E+04  0.32378316172E+04  0.00000000000E+00 0.  1.
          6    2    1    2  502    0  0.11277066391E+03  0.10172394392E+03 -0.26530990485E+04  0.26632854875E+04  0.17632368921E+03 0.  0.
         24    2    3    3    0    0  0.10016067195E+03  0.13776177104E+03 -0.23772353870E+04  0.23847525692E+04  0.82378789751E+02 0.  0.
         -6    2    1    2    0  501 -0.11277066391E+03 -0.10172394392E+03 -0.55688509670E+03  0.60239360162E+03  0.17231383270E+03 0.  0.
        -24    2    5    5    0    0 -0.29430413426E+01 -0.21171805874E+02 -0.11697991530E+03  0.14186193903E+03  0.77353747847E+02 0.  0.
          5    1    3    3  502    0  0.12609991961E+02 -0.36037827114E+02 -0.27586366150E+03  0.27853291837E+03  0.47000000000E+01 0. -1.
        -11    1    4    4    0    0  0.12930341471E+02  0.53657908442E+02 -0.12068268676E+04  0.12080883466E+04  0.00000000000E+00 0.  1.
         12    1    4    4    0    0  0.87230330480E+02  0.84103862595E+02 -0.11704085194E+04  0.11766642225E+04  0.00000000000E+00 0. -1.
         -5    1    5    5    0  501 -0.10982762257E+03 -0.80552138050E+02 -0.43990518140E+03  0.46053166259E+03  0.47000000000E+01 0.  1.
         13    1    6    6    0    0 -0.33217380913E+02 -0.30423960433E+02 -0.88391025040E+02  0.99206779359E+02  0.00000000000E+00 0. -1.
        -14    1    6    6    0    0  0.30274339570E+02  0.92521545589E+01 -0.28588890258E+02  0.42655159671E+02  0.00000000000E+00 0.  1.
</event>
<event>
12    1  0.1348628E-002  0.1737937E+03  0.7818608E-02  0.1173948E+00
         -3   -1    0    0    0  501 -0.00000000000E+00  0.00000000000E+00  0.11547789619E+03  0.11547789619E+03  0.00000000000E+00 0.  1.
          3   -1    0    0  502    0  0.00000000000E+00 -0.00000000000E+00 -0.26745403323E+03  0.26745403323E+03  0.00000000000E+00 0. -1.
          6    2    1    2  502    0  0.40428102891E+01  0.68020741681E+01 -0.47264323356E+02  0.17941162058E+03  0.17289303285E+03 0.  0.
         24    2    3    3    0    0  0.18230539726E+01  0.61256869818E+02  0.92520190638E+01  0.10075770111E+03  0.79440461038E+02 0.  0.
         -6    2    1    2    0  501 -0.40428102891E+01 -0.68020741681E+01 -0.10471181368E+03  0.20352030884E+03  0.17433685686E+03 0.  0.
        -24    2    5    5    0    0  0.63048109390E+02  0.45615868132E+01 -0.38435547713E+02  0.10841532619E+03  0.79250990235E+02 0.  0.
          5    1    3    3  502    0  0.22197563166E+01 -0.54454795650E+02 -0.56516342419E+02  0.78653919469E+02  0.47000000000E+01 0. -1.
        -11    1    4    4    0    0 -0.11205169135E+02 -0.17176503940E+02 -0.13158545334E+01  0.20550415473E+02  0.00000000000E+00 0.  1.
         12    1    4    4    0    0  0.13028223108E+02  0.78433373758E+02  0.10567873597E+02  0.80207285634E+02  0.00000000000E+00 0. -1.
         -5    1    5    5    0  501 -0.67090919679E+02 -0.11363660981E+02 -0.66276265969E+02  0.95104982651E+02  0.47000000000E+01 0.  1.
         13    1    6    6    0    0  0.17493103040E+01  0.31251710708E+02 -0.25375143023E+02  0.40294260040E+02  0.00000000000E+00 0. -1.
        -14    1    6    6    0    0  0.61298799086E+02 -0.26690123895E+02 -0.13060404690E+02  0.68121066151E+02  0.00000000000E+00 0.  1.
</event>
<event>
12    1  0.1348628E-002  0.2252076E+03  0.7818608E-02  0.1130059E+00
         -2   -1    0    0    0  501 -0.00000000000E+00  0.00000000000E+00  0.20469448234E+03  0.20469448234E+03  0.00000000000E+00 0.  1.
          2   -1    0    0  502    0  0.00000000000E+00 -0.00000000000E+00 -0.48936218208E+03  0.48936218208E+03  0.00000000000E+00 0. -1.
          6    2    1    2  502    0 -0.11632645810E+03 -0.87353007386E+02  0.10163134942E+03  0.24668845414E+03  0.17135889083E+03 0.  0.
         24    2    3    3    0    0 -0.96117022522E+02 -0.95310911229E+02  0.13463895971E+03  0.20689722575E+03  0.79725533778E+02 0.  0.
         -6    2    1    2    0  501  0.11632645810E+03  0.87353007386E+02 -0.38629904916E+03  0.44736821027E+03  0.17247888979E+03 0.  0.
        -24    2    5    5    0    0  0.73823347545E+02  0.52272557966E+02 -0.37089558587E+03  0.38995297693E+03  0.79482587013E+02 0.  0.
          5    1    3    3  502    0 -0.20209435573E+02  0.79579038430E+01 -0.33007610283E+02  0.39791228385E+02  0.47000000000E+01 0. -1.
        -11    1    4    4    0    0 -0.50055436848E+02 -0.37402074745E+01  0.68448381769E+02  0.84880603655E+02  0.00000000000E+00 0.  1.
         12    1    4    4    0    0 -0.46061585674E+02 -0.91570703755E+02  0.66190577938E+02  0.12201662210E+03  0.00000000000E+00 0. -1.
         -5    1    5    5    0  501  0.42503110551E+02  0.35080449420E+02 -0.15403463290E+02  0.57415233339E+02  0.47000000000E+01 0.  1.
         13    1    6    6    0    0  0.31515713804E+02 -0.86203477438E+01 -0.44297761698E+02  0.55044003336E+02  0.00000000000E+00 0. -1.
        -14    1    6    6    0    0  0.42307633740E+02  0.60892905710E+02 -0.32659782418E+03  0.33490897360E+03  0.00000000000E+00 0.  1.
</event>
<event>
12    1  0.1348628E-002  0.2531569E+03  0.7818608E-02  0.1111326E+00
          2   -1    0    0  502    0  0.00000000000E+00  0.00000000000E+00  0.86312355481E+03  0.86312355481E+03  0.00000000000E+00 0.  1.
         -2   -1    0    0    0  501 -0.00000000000E+00 -0.00000000000E+00 -0.17006122190E+03  0.17006122190E+03  0.00000000000E+00 0. -1.
          6    2    1    2  502    0 -0.10942512588E+03  0.14805901576E+03 -0.41500303885E+02  0.25606702440E+03  0.17306852817E+03 0.  0.
         24    2    3    3    0    0 -0.55037182913E+02  0.31989604437E+02  0.35710725044E+02  0.10635466829E+03  0.77353948112E+02 0.  0.
         -6    2    1    2    0  501  0.10942512588E+03 -0.14805901576E+03  0.73456263680E+03  0.77711775231E+03  0.17445458796E+03 0.  0.
        -24    2    5    5    0    0  0.10221016906E+03 -0.33058863321E+02  0.45572885469E+03  0.47537703794E+03  0.82187177249E+02 0.  0.
          5    1    3    3  502    0 -0.54387942965E+02  0.11606941133E+03 -0.77211028929E+02  0.14971235612E+03  0.47000000000E+01 0. -1.
        -11    1    4    4    0    0 -0.69132473572E+02  0.16528108797E+02  0.78501798112E+01  0.71512954111E+02  0.00000000000E+00 0.  1.
         12    1    4    4    0    0  0.14095290659E+02  0.15461495640E+02  0.27860545233E+02  0.34841714178E+02  0.00000000000E+00 0. -1.
         -5    1    5    5    0  501  0.72149568140E+01 -0.11500015244E+03  0.27883378211E+03  0.30174071437E+03  0.47000000000E+01 0.  1.
         11    1    6    6    0    0  0.54836005855E+02 -0.57729809317E+02  0.22920170806E+03  0.24263788122E+03  0.00000000000E+00 0. -1.
        -12    1    6    6    0    0  0.47374163209E+02  0.24670945996E+02  0.22652714662E+03  0.23273915672E+03  0.00000000000E+00 0.  1.
</event>
<event>
12    1  0.1348628E-002  0.2456962E+03  0.7818608E-02  0.1116055E+00
         -1   -1    0    0    0  501 -0.00000000000E+00  0.00000000000E+00  0.63406672159E+03  0.63406672159E+03  0.00000000000E+00 0.  1.
          1   -1    0    0  502    0  0.00000000000E+00 -0.00000000000E+00 -0.11871288400E+03  0.11871288400E+03  0.00000000000E+00 0. -1.
          6    2    1    2  502    0 -0.11608396987E+03  0.12643940091E+03  0.88030420227E+02  0.25854084262E+03  0.17213832303E+03 0.  0.
         24    2    3    3    0    0 -0.13711068557E+03  0.83909176275E+02  0.10659500876E+03  0.20737760652E+03  0.76176675125E+02 0.  0.
         -6    2    1    2    0  501  0.11608396987E+03 -0.12643940091E+03  0.42732341737E+03  0.49423876298E+03  0.17945540292E+03 0.  0.
        -24    2    5    5    0    0  0.14604703119E+03 -0.12434178437E+03  0.32880663224E+03  0.39113768640E+03  0.89912589006E+02 0.  0.
          5    1    3    3  502    0  0.21026715704E+02  0.42530224632E+02 -0.18564588532E+02  0.51163236096E+02  0.47000000000E+01 0. -1.
        -11    1    4    4    0    0 -0.98423860587E+02  0.59926382815E+02  0.11302321997E+03  0.16140841348E+03  0.00000000000E+00 0.  1.
         12    1    4    4    0    0 -0.38686824984E+02  0.23982793460E+02 -0.64282112093E+01  0.45969193041E+02  0.00000000000E+00 0. -1.
         -5    1    5    5    0  501 -0.29963061320E+02 -0.20976165345E+01  0.98516785127E+02  0.10310107657E+03  0.47000000000E+01 0.  1.
         13    1    6    6    0    0  0.12802527794E+03 -0.87769277353E+02  0.18413737746E+03  0.24083291224E+03  0.00000000000E+00 0. -1.
        -14    1    6    6    0    0  0.18021753251E+02 -0.36572507020E+02  0.14466925478E+03  0.15030477417E+03  0.00000000000E+00 0.  1.
</event>
<event>
12    1  0.1348628E-002  0.1882025E+03  0.7818608E-02  0.1160093E+00
          1   -1    0    0  502    0  0.00000000000E+00  0.00000000000E+00  0.13231835151E+03  0.13231835151E+03  0.00000000000E+00 0.  1.
         -1   -1    0    0    0  501 -0.00000000000E+00 -0.00000000000E+00 -0.29809066266E+03  0.29809066266E+03  0.00000000000E+00 0. -1.
          6    2    1    2  502    0  0.61277035628E+02 -0.43387784873E+02 -0.15104176532E+03  0.24023243892E+03  0.17105740226E+03 0.  0.
         24    2    3    3    0    0  0.97377698648E+02  0.39205287555E+01 -0.88585994156E+02  0.15383713951E+03  0.79502203693E+02 0.  0.
         -6    2    1    2    0  501 -0.61277035628E+02  0.43387784873E+02 -0.14730545831E+02  0.19017657525E+03  0.17410561685E+03 0.  0.
        -24    2    5    5    0    0  0.11621091145E+02 -0.17428478175E+02 -0.19250061240E+02  0.95017388838E+02  0.90658357104E+02 0.  0.
          5    1    3    3  502    0 -0.36100663019E+02 -0.47308313629E+02 -0.62455771166E+02  0.86395299414E+02  0.47000000000E+01 0. -1.
        -11    1    4    4    0    0  0.36035942435E+02 -0.23784180573E+02 -0.75790434901E+00  0.43183918438E+02  0.00000000000E+00 0.  1.
         12    1    4    4    0    0  0.61341756213E+02  0.27704709328E+02 -0.87828089807E+02  0.11065322107E+03  0.00000000000E+00 0. -1.
         -5    1    5    5    0  501 -0.72898126773E+02  0.60816263049E+02  0.45195154096E+01  0.95159186408E+02  0.47000000000E+01 0.  1.
         11    1    6    6    0    0  0.10508938206E+02 -0.51128109869E+02 -0.29268079859E+02  0.59842642819E+02  0.00000000000E+00 0. -1.
        -12    1    6    6    0    0  0.11121529390E+01  0.33699631694E+02  0.10018018618E+02  0.35174746019E+02  0.00000000000E+00 0.  1.
</event>
<event>
12    1  0.1348628E-002  0.2735861E+03  0.7818608E-02  0.1099245E+00
          2   -1    0    0  502    0  0.00000000000E+00  0.00000000000E+00  0.23000303620E+03  0.23000303620E+03  0.00000000000E+00 0.  1.
         -2   -1    0    0    0  501 -0.00000000000E+00 -0.00000000000E+00 -0.63742890152E+03  0.63742890152E+03  0.00000000000E+00 0. -1.
          6    2    1    2  502    0  0.14838812390E+03  0.15301840249E+03  0.99923541797E+02  0.29076689893E+03  0.17066636603E+03 0.  0.
         24    2    3    3    0    0  0.13345556262E+03  0.60469166385E+02  0.10622189364E+03  0.19669191966E+03  0.77056559042E+02 0.  0.
         -6    2    1    2    0  501 -0.14838812390E+03 -0.15301840249E+03 -0.50734940712E+03  0.57666503879E+03  0.17235277555E+03 0.  0.
        -24    2    5    5    0    0 -0.15008185908E+03 -0.63598231585E+02 -0.29940622001E+03  0.35025546574E+03  0.80408377745E+02 0.  0.
          5    1    3    3  502    0  0.14932561277E+02  0.92549236103E+02 -0.62983518456E+01  0.94074979274E+02  0.47000000000E+01 0. -1.
        -13    1    4    4    0    0  0.41221471873E+02  0.58338954174E+02  0.61056950769E+02  0.93971243232E+02  0.00000000000E+00 0.  1.
         14    1    4    4    0    0  0.92234090751E+02  0.21302122116E+01  0.45164942874E+02  0.10272067643E+03  0.00000000000E+00 0. -1.
         -5    1    5    5    0  501  0.16937351817E+01 -0.89420170903E+02 -0.20794318710E+03  0.22640957305E+03  0.47000000000E+01 0.  1.
         11    1    6    6    0    0 -0.11765570268E+03 -0.20766720747E+02 -0.25082186506E+03  0.27782319747E+03  0.00000000000E+00 0. -1.
        -12    1    6    6    0    0 -0.32426156403E+02 -0.42831510838E+02 -0.48584354957E+02  0.72432268267E+02  0.00000000000E+00 0.  1.
</event>
<event>
12    1  0.1348628E-002  0.1946831E+03  0.7818608E-02  0.1154304E+00
          3   -1    0    0  502    0  0.00000000000E+00  0.00000000000E+00  0.80204898733E+03  0.80204898733E+03  0.00000000000E+00 0.  1.
         -3   -1    0    0    0  501 -0.00000000000E+00 -0.00000000000E+00 -0.57022673715E+02  0.57022673715E+02  0.00000000000E+00 0. -1.
          6    2    1    2  502    0 -0.90038431420E+02  0.26021980888E+02  0.54924313212E+03  0.58250927311E+03  0.16989694659E+03 0.  0.
         24    2    3    3    0    0 -0.12737722974E+03  0.12798887954E+02  0.46126818267E+03  0.48591363254E+03  0.83396353369E+02 0.  0.
         -6    2    1    2    0  501  0.90038431420E+02 -0.26021980888E+02  0.19578318149E+03  0.27656238793E+03  0.17138155572E+03 0.  0.
        -24    2    5    5    0    0  0.27664488070E+02 -0.62519421736E+02  0.16948992968E+03  0.19951696569E+03  0.80038624051E+02 0.  0.
          5    1    3    3  502    0  0.37338798322E+02  0.13223092934E+02  0.87974949446E+02  0.96595640569E+02  0.47000000000E+01 0. -1.
        -13    1    4    4    0    0 -0.90457442751E+02  0.47250370954E+02  0.29567170551E+03  0.31278891275E+03  0.00000000000E+00 0.  1.
         14    1    4    4    0    0 -0.36919786991E+02 -0.34451482999E+02  0.16559647717E+03  0.17312471979E+03  0.00000000000E+00 0. -1.
         -5    1    5    5    0  501  0.62373943349E+02  0.36497440847E+02  0.26293251808E+02  0.77045422239E+02  0.47000000000E+01 0.  1.
         13    1    6    6    0    0  0.18878578241E+01  0.14820949983E+02  0.46964970332E+01  0.15661470235E+02  0.00000000000E+00 0. -1.
        -14    1    6    6    0    0  0.25776630246E+02 -0.77340371719E+02  0.16479343265E+03  0.18385549546E+03  0.00000000000E+00 0.  1.
</event>
<event>
12    1  0.1348628E-002  0.2844525E+03  0.7818608E-02  0.1093282E+00
         -2   -1    0    0    0  501 -0.00000000000E+00  0.00000000000E+00  0.19814001022E+04  0.19814001022E+04  0.00000000000E+00 0.  1.
          2   -1    0    0  502    0  0.00000000000E+00 -0.00000000000E+00 -0.43585691098E+02  0.43585691098E+02  0.00000000000E+00 0. -1.
          6    2    1    2  502    0  0.22438401530E+03 -0.29684331871E+02  0.12251818184E+04  0.12579109225E+04  0.17332067036E+03 0.  0.
         24    2    3    3    0    0  0.74333526456E+01  0.18714155918E+02  0.31743111253E+03  0.32332896367E+03  0.58082985325E+02 0.  0.
         -6    2    1    2    0  501 -0.22438401530E+03  0.29684331871E+02  0.71263259266E+03  0.76707487082E+03  0.17125799088E+03 0.  0.
        -24    2    5    5    0    0 -0.12536944527E+03 -0.40219287459E+02  0.48441657322E+03  0.50862750170E+03  0.81898902239E+02 0.  0.
          5    1    3    3  502    0  0.21695066265E+03 -0.48398487789E+02  0.90775070591E+03  0.93458195880E+03  0.47000000000E+01 0. -1.
        -11    1    4    4    0    0  0.18306355310E+02  0.29703796302E+01  0.30053672168E+02  0.35315280130E+02  0.00000000000E+00 0.  1.
         12    1    4    4    0    0 -0.10873002664E+02  0.15743776288E+02  0.28737744036E+03  0.28801368354E+03  0.00000000000E+00 0. -1.
         -5    1    5    5    0  501 -0.99014570030E+02  0.69903619330E+02  0.22821601944E+03  0.25844736912E+03  0.47000000000E+01 0.  1.
         11    1    6    6    0    0 -0.33897461322E+02  0.23733105415E+02  0.17084849358E+03  0.17578824174E+03  0.00000000000E+00 0. -1.
        -12    1    6    6    0    0 -0.91471983946E+02 -0.63952392874E+02  0.31356807964E+03  0.33283925996E+03  0.00000000000E+00 0.  1.
</event>
<event>
12    1  0.1348628E-002  0.2296865E+03  0.7818608E-02  0.1126861E+00
         -4   -1    0    0    0  501 -0.00000000000E+00  0.00000000000E+00  0.17521395432E+03  0.17521395432E+03  0.00000000000E+00 0.  1.
          4   -1    0    0  502    0  0.00000000000E+00 -0.00000000000E+00 -0.93573430977E+03  0.93573430977E+03  0.00000000000E+00 0. -1.
          6    2    1    2  502    0 -0.56419851767E+02  0.14094465736E+03 -0.83770774049E+03  0.86862020328E+03  0.17233166559E+03 0.  0.
         24    2    3    3    0    0 -0.56875950409E+02  0.29392426816E+02 -0.26079310658E+03  0.28100068949E+03  0.82762035789E+02 0.  0.
         -6    2    1    2    0  501  0.56419851767E+02 -0.14094465736E+03  0.77187385036E+02  0.24232806081E+03  0.17238445561E+03 0.  0.
        -24    2    5    5    0    0  0.15836233038E+02 -0.12830296417E+03 -0.27734629855E+01  0.15164912316E+03  0.79229587713E+02 0.  0.
          5    1    3    3  502    0  0.45609864269E+00  0.11155223054E+03 -0.57691463391E+03  0.58761951379E+03  0.47000000000E+01 0. -1.
        -13    1    4    4    0    0  0.14817372950E+02  0.27703379386E+02 -0.58994985287E+02  0.66838911269E+02  0.00000000000E+00 0.  1.
         14    1    4    4    0    0 -0.71693323360E+02  0.16890474291E+01 -0.20179812129E+03  0.21416177822E+03  0.00000000000E+00 0. -1.
         -5    1    5    5    0  501  0.40583618729E+02 -0.12641693191E+02  0.79960848022E+02  0.90678937644E+02  0.47000000000E+01 0.  1.
         13    1    6    6    0    0  0.31221619466E+02 -0.13174202344E+03 -0.61335397220E+01  0.13552996190E+03  0.00000000000E+00 0. -1.
        -14    1    6    6    0    0 -0.15385386428E+02  0.34390592764E+01  0.33600767365E+01  0.16119161266E+02  0.00000000000E+00 0.  1.
</event>
<event>
12    1  0.1348628E-002  0.1828467E+03  0.7818608E-02  0.1165076E+00
          1   -1    0    0  502    0  0.00000000000E+00  0.00000000000E+00  0.30806314316E+03  0.30806314316E+03  0.00000000000E+00 0. -1.
         -1   -1    0    0    0  501 -0.00000000000E+00 -0.00000000000E+00 -0.12370594786E+03  0.12370594786E+03  0.00000000000E+00 0.  1.
          6    2    1    2  502    0 -0.60344971004E+02 -0.24452754283E+02  0.16824809102E+03  0.24923662383E+03  0.17196517615E+03 0.  0.
         24    2    3    3    0    0  0.70437369854E+01 -0.55061600775E+02  0.59545950046E+02  0.11764488815E+03  0.84930591835E+02 0.  0.
         -6    2    1    2    0  501  0.60344971004E+02  0.24452754283E+02  0.16109104277E+02  0.18253246719E+03  0.16976202644E+03 0.  0.
        -24    2    5    5    0    0  0.97565296576E+02  0.41530612196E+02 -0.33213108359E+01  0.13696233554E+03  0.86624889072E+02 0.  0.
          5    1    3    3  502    0 -0.67388707990E+02  0.30608846492E+02  0.10870214097E+03  0.13159173568E+03  0.47000000000E+01 0. -1.
        -11    1    4    4    0    0  0.16576404720E+02 -0.44801640056E+02 -0.81981624980E+01  0.48468278425E+02  0.00000000000E+00 0.  1.
         12    1    4    4    0    0 -0.95326677348E+01 -0.10259960718E+02  0.67744112544E+02  0.69176609721E+02  0.00000000000E+00 0. -1.
         -5    1    5    5    0  501 -0.37220325572E+02 -0.17077857913E+02  0.19430415113E+02  0.45570131644E+02  0.47000000000E+01 0.  1.
         13    1    6    6    0    0  0.95294171378E+02  0.11373717611E+02 -0.25686468056E+02  0.99348554052E+02  0.00000000000E+00 0. -1.
        -14    1    6    6    0    0  0.22711251979E+01  0.30156894585E+02  0.22365157220E+02  0.37613781493E+02  0.00000000000E+00 0.  1.
</event>
<event>
12    1  0.1348628E-002  0.1726229E+03  0.7818608E-02  0.1175140E+00
          2   -1    0    0  502    0  0.00000000000E+00  0.00000000000E+00  0.17125589824E+03  0.17125589824E+03  0.00000000000E+00 0.  1.
         -2   -1    0    0    0  501 -0.00000000000E+00 -0.00000000000E+00 -0.18320912426E+03  0.18320912426E+03  0.00000000000E+00 0. -1.
          6    2    1    2  502    0  0.17344392265E+02  0.64260266380E+01  0.33756975964E+02  0.17589336433E+03  0.17162989374E+03 0.  0.
         24    2    3    3    0    0 -0.38841310704E+02 -0.30039041124E+02  0.51097054992E+02  0.10654422788E+03  0.79559864612E+02 0.  0.
         -6    2    1    2    0  501 -0.17344392265E+02 -0.64260266380E+01 -0.45710201985E+02  0.17857165817E+03  0.17162835656E+03 0.  0.
        -24    2    5    5    0    0 -0.35687681901E+02 -0.18922307032E+02 -0.91531446631E+02  0.12744133684E+03  0.78940637642E+02 0.  0.
          5    1    3    3  502    0  0.56185702969E+02  0.36465067762E+02 -0.17340079027E+02  0.69349136445E+02  0.47000000000E+01 0. -1.
        -11    1    4    4    0    0  0.20436169504E+02 -0.19337534091E+02  0.92448462176E+00  0.28150167327E+02  0.00000000000E+00 0.  1.
         12    1    4    4    0    0 -0.59277480209E+02 -0.10701507033E+02  0.50172570370E+02  0.78394060554E+02  0.00000000000E+00 0. -1.
         -5    1    5    5    0  501  0.18343289636E+02  0.12496280394E+02  0.45821244646E+02  0.51130321330E+02  0.47000000000E+01 0.  1.
         11    1    6    6    0    0  0.14797165204E+02 -0.92660969436E+01 -0.69254808014E+02  0.71421600960E+02  0.00000000000E+00 0. -1.
        -12    1    6    6    0    0 -0.50484847105E+02 -0.96562100883E+01 -0.22276638617E+02  0.56019735884E+02  0.00000000000E+00 0.  1.
</event>
<event>
12    1  0.1348628E-002  0.1758290E+03  0.7818608E-02  0.1171902E+00
          3   -1    0    0  502    0  0.00000000000E+00  0.00000000000E+00  0.13741484372E+04  0.13741484372E+04  0.00000000000E+00 0.  1.
         -3   -1    0    0    0  501 -0.00000000000E+00 -0.00000000000E+00 -0.34654958600E+02  0.34654958600E+02  0.00000000000E+00 0. -1.
          6    2    1    2  502    0 -0.39540833080E+02  0.99307799666E+01  0.24998916367E+03  0.30503547023E+03  0.16997046295E+03 0.  0.
         24    2    3    3    0    0 -0.52881829413E+02  0.56466254639E+02  0.22374070067E+03  0.24976699462E+03  0.79616108115E+02 0.  0.
         -6    2    1    2    0  501  0.39540833080E+02 -0.99307799666E+01  0.10895043150E+04  0.11037679256E+04  0.17211009091E+03 0.  0.
        -24    2    5    5    0    0 -0.37431691984E+02 -0.50021784040E+01  0.75715719700E+03  0.76255573715E+03  0.82329083214E+02 0.  0.
          5    1    3    3  502    0  0.13340996333E+02 -0.46535474672E+02  0.26248462998E+02  0.55268475606E+02  0.47000000000E+01 0. -1.
        -11    1    4    4    0    0 -0.51377721988E+02  0.24203490369E+02  0.20435034263E+03  0.21209559589E+03  0.00000000000E+00 0.  1.
         12    1    4    4    0    0 -0.15041074253E+01  0.32262764270E+02  0.19390358038E+02  0.37671398731E+02  0.00000000000E+00 0. -1.
         -5    1    5    5    0  501  0.76972525064E+02 -0.49286015626E+01  0.33234711798E+03  0.34121218847E+03  0.47000000000E+01 0.  1.
         11    1    6    6    0    0 -0.27718264027E+02 -0.15610690064E+02  0.93895417831E+02  0.99138011350E+02  0.00000000000E+00 0. -1.
        -12    1    6    6    0    0 -0.97134279566E+01  0.10608511660E+02  0.66326177917E+03  0.66341772580E+03  0.00000000000E+00 0.  1.
</event>
<event>
12    1  0.1348628E-002  0.2045878E+03  0.7818608E-02  0.1145925E+00
         -2   -1    0    0    0  501 -0.00000000000E+00  0.00000000000E+00  0.92071818808E+02  0.92071818808E+02  0.00000000000E+00 0.  1.
          2   -1    0    0  502    0  0.00000000000E+00 -0.00000000000E+00 -0.51693339975E+03  0.51693339975E+03  0.00000000000E+00 0. -1.
          6    2    1    2  502    0  0.99224382433E+02 -0.47947528661E+02 -0.31892084998E+03  0.37935370086E+03  0.17336169770E+03 0.  0.
         24    2    3    3    0    0  0.37630110173E+02  0.28326644420E+02 -0.22430301199E+03  0.24302237973E+03  0.80806013926E+02 0.  0.
         -6    2    1    2    0  501 -0.99224382433E+02  0.47947528661E+02 -0.10594073097E+03  0.22965151770E+03  0.17138243064E+03 0.  0.
        -24    2    5    5    0    0 -0.74446626873E+02  0.83064358734E+02 -0.27079693255E+02  0.13971664019E+03  0.79658281514E+02 0.  0.
          5    1    3    3  502    0  0.61594272260E+02 -0.76274173081E+02 -0.94617837989E+02  0.13633132113E+03  0.47000000000E+01 0. -1.
        -11    1    4    4    0    0 -0.22236080658E+02  0.24978017818E+02 -0.74268250384E+02  0.81450093138E+02  0.00000000000E+00 0.  1.
         12    1    4    4    0    0  0.59866190830E+02  0.33486266018E+01 -0.15003476160E+03  0.16157228659E+03  0.00000000000E+00 0. -1.
         -5    1    5    5    0  501 -0.24777755560E+02 -0.35116830073E+02 -0.78861037711E+02  0.89934877516E+02  0.47000000000E+01 0.  1.
         13    1    6    6    0    0 -0.77210337690E+02  0.29418568417E+02 -0.93645450250E+01  0.83153972349E+02  0.00000000000E+00 0. -1.
        -14    1    6    6    0    0  0.27637108163E+01  0.53645790317E+02 -0.17715148230E+02  0.56562667838E+02  0.00000000000E+00 0.  1.
</event>
<event>
12    1  0.1348628E-002  0.1879331E+03  0.7818608E-02  0.1160339E+00
          2   -1    0    0  502    0  0.00000000000E+00  0.00000000000E+00  0.19831338197E+03  0.19831338197E+03  0.00000000000E+00 0. -1.
         -2   -1    0    0    0  501 -0.00000000000E+00 -0.00000000000E+00 -0.25646137678E+03  0.25646137678E+03  0.00000000000E+00 0.  1.
          6    2    1    2  502    0  0.74431939847E+02  0.17010318313E+02  0.96561773529E+02  0.21176523385E+03  0.17231039888E+03 0.  0.
         24    2    3    3    0    0 -0.26223105258E+02 -0.74040175763E+01  0.34561749320E+02  0.90961298053E+02  0.79605103492E+02 0.  0.
         -6    2    1    2    0  501 -0.74431939847E+02 -0.17010318313E+02 -0.15470976834E+03  0.24300952489E+03  0.17114044575E+03 0.  0.
        -24    2    5    5    0    0 -0.84206802315E+02 -0.71387661085E+02 -0.76157796400E+02  0.14685888455E+03  0.59837599447E+02 0.  0.
          5    1    3    3  502    0  0.10065504510E+03  0.24414335890E+02  0.62000024210E+02  0.12080393580E+03  0.47000000000E+01 0. -1.
        -13    1    4    4    0    0  0.28457681966E+02  0.11626699476E+01  0.80856343169E+01  0.29606907076E+02  0.00000000000E+00 0.  1.
         14    1    4    4    0    0 -0.54680787224E+02 -0.85666875239E+01  0.26476115003E+02  0.61354390977E+02  0.00000000000E+00 0. -1.
         -5    1    5    5    0  501  0.97748624683E+01  0.54377342771E+02 -0.78551971938E+02  0.96150640344E+02  0.47000000000E+01 0.  1.
         13    1    6    6    0    0 -0.28606756290E+02  0.21812110428E+01 -0.24289421655E+01  0.28792428641E+02  0.00000000000E+00 0. -1.
        -14    1    6    6    0    0 -0.55600046025E+02 -0.73568872127E+02 -0.73728854235E+02  0.11806645591E+03  0.00000000000E+00 0.  1.
</event>
<event>
12    1  0.1348628E-002  0.2104169E+03  0.7818608E-02  0.1141236E+00
          2   -1    0    0  502    0  0.00000000000E+00  0.00000000000E+00  0.20610582963E+03  0.20610582963E+03  0.00000000000E+00 0.  1.
         -2   -1    0    0    0  501 -0.00000000000E+00 -0.00000000000E+00 -0.22068305560E+03  0.22068305560E+03  0.00000000000E+00 0. -1.
          6    2    1    2  502    0 -0.10834427650E+03 -0.53722265947E+02  0.27512705949E+02  0.21170437100E+03  0.17157280554E+03 0.  0.
         24    2    3    3    0    0 -0.26299971060E+01 -0.44955368395E+02 -0.23366052110E+02  0.93962681773E+02  0.79089260601E+02 0.  0.
         -6    2    1    2    0  501  0.10834427650E+03  0.53722265947E+02 -0.42089931923E+02  0.21508451423E+03  0.17281557159E+03 0.  0.
        -24    2    5    5    0    0  0.10988567587E+03  0.36819787584E+01 -0.76581550855E+02  0.15410773151E+03  0.76131729605E+02 0.  0.
          5    1    3    3  502    0 -0.10571427939E+03 -0.87668975516E+01  0.50878758059E+02  0.11774168922E+03  0.47000000000E+01 0. -1.
        -11    1    4    4    0    0 -0.24211710724E+02 -0.59790438999E+02 -0.20131247297E+02  0.67574926190E+02  0.00000000000E+00 0.  1.
         12    1    4    4    0    0  0.21581713618E+02  0.14835070604E+02 -0.32348048136E+01  0.26387755583E+02  0.00000000000E+00 0. -1.
         -5    1    5    5    0  501 -0.15413993690E+01  0.50040287188E+02  0.34491618932E+02  0.60976782717E+02  0.47000000000E+01 0.  1.
         13    1    6    6    0    0 -0.98964877792E+01 -0.71661487790E+00 -0.18321963965E+02  0.20836227364E+02  0.00000000000E+00 0. -1.
        -14    1    6    6    0    0  0.11978216364E+03  0.43985936363E+01 -0.58259586890E+02  0.13327150415E+03  0.00000000000E+00 0.  1.
</event>
<event>
12    1  0.1348628E-002  0.1748621E+03  0.7818608E-02  0.1172870E+00
          2   -1    0    0  502    0  0.00000000000E+00  0.00000000000E+00  0.29556735808E+03  0.29556735808E+03  0.00000000000E+00 0.  1.
         -2   -1    0    0    0  501 -0.00000000000E+00 -0.00000000000E+00 -0.11873906076E+03  0.11873906076E+03  0.00000000000E+00 0. -1.
          6    2    1    2  502    0 -0.17668095194E+02 -0.33360244297E+02  0.16336666525E+03  0.24037160530E+03  0.17223464760E+03 0.  0.
         24    2    3    3    0    0 -0.73377322931E+02 -0.25244845608E+02  0.14086737221E+03  0.17956300444E+03  0.79860642745E+02 0.  0.
         -6    2    1    2    0  501  0.17668095194E+02  0.33360244297E+02  0.13461632065E+02  0.17393481354E+03  0.16925435397E+03 0.  0.
        -24    2    5    5    0    0 -0.17714510892E+02  0.69771782046E+02  0.43111318192E+02  0.11495241971E+03  0.78572053398E+02 0.  0.
          5    1    3    3  502    0  0.55709227737E+02 -0.81153986897E+01  0.22499293033E+02  0.60808600855E+02  0.47000000000E+01 0. -1.
        -11    1    4    4    0    0 -0.31266578916E+02 -0.25153546659E+02  0.13002825957E+03  0.13607956553E+03  0.00000000000E+00 0.  1.
         12    1    4    4    0    0 -0.42110744015E+02 -0.91298948398E-01  0.10839112641E+02  0.43483438915E+02  0.00000000000E+00 0. -1.
         -5    1    5    5    0  501  0.35382606086E+02 -0.36411537749E+02 -0.29649686127E+02  0.58982393831E+02  0.47000000000E+01 0.  1.
         13    1    6    6    0    0 -0.10802713064E+02  0.14925591535E+02 -0.22549689797E+02  0.29119759651E+02  0.00000000000E+00 0. -1.
        -14    1    6    6    0    0 -0.69117978279E+01  0.54846190511E+02  0.65661007989E+02  0.85832660060E+02  0.00000000000E+00 0.  1.
</event>
<event>
12    1  0.1348628E-002  0.1917222E+03  0.7818608E-02  0.1156917E+00
          1   -1    0    0  502    0  0.00000000000E+00  0.00000000000E+00  0.63448614910E+02  0.63448614910E+02  0.00000000000E+00 0. -1.
         -1   -1    0    0    0  501 -0.00000000000E+00 -0.00000000000E+00 -0.61370168227E+03  0.61370168227E+03  0.00000000000E+00 0.  1.
          6    2    1    2  502    0  0.77807595865E+02  0.48256780690E+02 -0.35194008079E+03  0.39965240159E+03  0.16576333363E+03 0.  0.
         24    2    3    3    0    0  0.29620049321E+02  0.86396411269E+02 -0.27845146644E+03  0.30373922470E+03  0.79878722184E+02 0.  0.
         -6    2    1    2    0  501 -0.77807595865E+02 -0.48256780690E+02 -0.19831298657E+03  0.27749789558E+03  0.17115578446E+03 0.  0.
        -24    2    5    5    0    0  0.80877906145E+00 -0.74503813408E+02 -0.87426040111E+02  0.13897913863E+03  0.78233088582E+02 0.  0.
          5    1    3    3  502    0  0.48187546544E+02 -0.38139630579E+02 -0.73488614348E+02  0.95913176891E+02  0.47000000000E+01 0. -1.
        -11    1    4    4    0    0  0.29054846347E+02 -0.25923144827E+00 -0.35978039239E+02  0.46245763100E+02  0.00000000000E+00 0.  1.
         12    1    4    4    0    0  0.56520297419E+00  0.86655642717E+02 -0.24247342720E+03  0.25749346160E+03  0.00000000000E+00 0. -1.
         -5    1    5    5    0  501 -0.78616374926E+02  0.26247032718E+02 -0.11088694646E+03  0.13851875695E+03  0.47000000000E+01 0.  1.
         11    1    6    6    0    0  0.37172634290E+02 -0.28499438513E+02 -0.24116908402E+02  0.52684419011E+02  0.00000000000E+00 0. -1.
        -12    1    6    6    0    0 -0.36363855228E+02 -0.46004374895E+02 -0.63309131708E+02  0.86294719620E+02  0.00000000000E+00 0.  1.
</event>
<event>
12    1  0.1348628E-002  0.2762180E+03  0.7818608E-02  0.1097773E+00
          3   -1    0    0  502    0  0.00000000000E+00  0.00000000000E+00  0.13451004460E+03  0.13451004460E+03  0.00000000000E+00 0. -1.
         -3   -1    0    0    0  501 -0.00000000000E+00 -0.00000000000E+00 -0.85098062148E+03  0.85098062148E+03  0.00000000000E+00 0.  1.
          6    2    1    2  502    0  0.88683495696E+01  0.21645763493E+03 -0.73372875336E+02  0.28543437096E+03  0.17075317259E+03 0.  0.
         24    2    3    3    0    0  0.72111125933E+02  0.12611753142E+03 -0.49139410738E+02  0.17242846904E+03  0.78811477796E+02 0.  0.
         -6    2    1    2    0  501 -0.88683495696E+01 -0.21645763493E+03 -0.64309770155E+03  0.70005629512E+03  0.17196397081E+03 0.  0.
        -24    2    5    5    0    0 -0.82035400319E+01 -0.32100998525E+02 -0.27217153187E+03  0.28581466912E+03  0.80714993338E+02 0.  0.
          5    1    3    3  502    0 -0.63242776364E+02  0.90340103506E+02 -0.24233464598E+02  0.11300590193E+03  0.47000000000E+01 0. -1.
        -13    1    4    4    0    0 -0.41686840993E+01 -0.76107584973E+01  0.40084217653E+01  0.95587141955E+01  0.00000000000E+00 0.  1.
         14    1    4    4    0    0  0.76279810032E+02  0.13372828992E+03 -0.53147832503E+02  0.16286975484E+03  0.00000000000E+00 0. -1.
         -5    1    5    5    0  501 -0.66480953770E+00 -0.18435663640E+03 -0.37092616968E+03  0.41424162600E+03  0.47000000000E+01 0.  1.
         13    1    6    6    0    0 -0.31326559151E+02 -0.47111336262E+02 -0.14407222872E+03  0.15478255199E+03  0.00000000000E+00 0. -1.
        -14    1    6    6    0    0  0.23123019120E+02  0.15010337737E+02 -0.12809930315E+03  0.13103211713E+03  0.00000000000E+00 0.  1.
</event>
<event>
12    1  0.1348628E-002  0.1742800E+03  0.7818608E-02  0.1173457E+00
         -2   -1    0    0    0  501 -0.00000000000E+00  0.00000000000E+00  0.17544871451E+03  0.17544871451E+03  0.00000000000E+00 0.  1.
          2   -1    0    0  502    0  0.00000000000E+00 -0.00000000000E+00 -0.17874954300E+03  0.17874954300E+03  0.00000000000E+00 0. -1.
          6    2    1    2  502    0 -0.14050318829E+02  0.21347953323E+02  0.29758163974E+02  0.17772214052E+03  0.17333915985E+03 0.  0.
         24    2    3    3    0    0 -0.66571980089E+02  0.16832247277E+02  0.54518063314E+02  0.11929219000E+03  0.80890384386E+02 0.  0.
         -6    2    1    2    0  501  0.14050318829E+02 -0.21347953323E+02 -0.33058992465E+02  0.17647611699E+03  0.17145779747E+03 0.  0.
        -24    2    5    5    0    0  0.60306793715E+02 -0.40130693344E+02  0.12102588579E+02  0.10899196186E+03  0.80531938899E+02 0.  0.
          5    1    3    3  502    0  0.52521661260E+02  0.45157060466E+01 -0.24759899341E+02  0.58429950522E+02  0.47000000000E+01 0. -1.
        -11    1    4    4    0    0  0.10013266689E+02  0.87481295500E+01  0.38367477932E+02  0.40606140463E+02  0.00000000000E+00 0.  1.
         12    1    4    4    0    0 -0.76585246778E+02  0.80841177268E+01  0.16150585382E+02  0.78686049537E+02  0.00000000000E+00 0. -1.
         -5    1    5    5    0  501 -0.46256474886E+02  0.18782740020E+02 -0.45161581044E+02  0.67484155132E+02  0.47000000000E+01 0.  1.
         11    1    6    6    0    0  0.60602175585E+02 -0.54991014825E+01 -0.17622897864E+02  0.63351640325E+02  0.00000000000E+00 0. -1.
        -12    1    6    6    0    0 -0.29538187002E+00 -0.34631591861E+02  0.29725486443E+02  0.45640321533E+02  0.00000000000E+00 0.  1.
</event>
<event>
12    1  0.1348628E-002  0.2665266E+03  0.7818608E-02  0.1103284E+00
         -2   -1    0    0    0  501 -0.00000000000E+00  0.00000000000E+00  0.11048017188E+03  0.11048017188E+03  0.00000000000E+00 0.  1.
          2   -1    0    0  502    0  0.00000000000E+00 -0.00000000000E+00 -0.64300362421E+03  0.64300362421E+03  0.00000000000E+00 0. -1.
          6    2    1    2  502    0  0.17838325404E+03  0.98088603335E+02 -0.26388312605E+03  0.37502980019E+03  0.17196245926E+03 0.  0.
         24    2    3    3    0    0  0.21593500349E+02  0.49270093199E+02 -0.12641630993E+03  0.16082081503E+03  0.83596828809E+02 0.  0.
         -6    2    1    2    0  501 -0.17838325404E+03 -0.98088603335E+02 -0.26864032628E+03  0.37845399589E+03  0.17209835174E+03 0.  0.
        -24    2    5    5    0    0 -0.11049647630E+03 -0.13356244257E+02 -0.74462120792E+02  0.15593331650E+03  0.79891997262E+02 0.  0.
          5    1    3    3  502    0  0.15678975369E+03  0.48818510136E+02 -0.13746681611E+03  0.21420898517E+03  0.47000000000E+01 0. -1.
        -13    1    4    4    0    0 -0.15373132394E+02  0.58604809583E+02 -0.68143918068E+02  0.91183608590E+02  0.00000000000E+00 0.  1.
         14    1    4    4    0    0  0.36966632742E+02 -0.93347163841E+01 -0.58272391867E+02  0.69637206436E+02  0.00000000000E+00 0. -1.
         -5    1    5    5    0  501 -0.67886777738E+02 -0.84732359078E+02 -0.19417820549E+03  0.22252067939E+03  0.47000000000E+01 0.  1.
         11    1    6    6    0    0 -0.87655702774E+02  0.67009636315E+01 -0.86413565695E+02  0.12327095959E+03  0.00000000000E+00 0. -1.
        -12    1    6    6    0    0 -0.22840773530E+02 -0.20057207888E+02  0.11951444904E+02  0.32662356911E+02  0.00000000000E+00 0.  1.
</event>
<event>
12    1  0.1348628E-002  0.1922344E+03  0.7818608E-02  0.1156461E+00
          2   -1    0    0  502    0  0.00000000000E+00  0.00000000000E+00  0.45450561367E+03  0.45450561367E+03  0.00000000000E+00 0. -1.
         -2   -1    0    0    0  501 -0.00000000000E+00 -0.00000000000E+00 -0.81852874796E+02  0.81852874796E+02  0.00000000000E+00 0.  1.
          6    2    1    2  502    0 -0.38785407934E+02  0.76601305550E+02  0.16489338592E+03  0.25364153152E+03  0.17254602258E+03 0.  0.
         24    2    3    3    0    0 -0.86220513753E+02  0.80582672273E+02  0.14074235116E+03  0.20005699060E+03  0.79289633719E+02 0.  0.
         -6    2    1    2    0  501  0.38785407934E+02 -0.76601305550E+02  0.20775935295E+03  0.28271695695E+03  0.17144346336E+03 0.  0.
        -24    2    5    5    0    0  0.23769542105E+02 -0.11521397877E+03  0.19162101078E+03  0.23800732882E+03  0.78036047862E+02 0.  0.
          5    1    3    3  502    0  0.47435105819E+02 -0.39813667232E+01  0.24151034764E+02  0.53584540916E+02  0.47000000000E+01 0. -1.
        -13    1    4    4    0    0  0.47545420834E+01  0.39749730140E+02  0.24634863576E+02  0.47005565841E+02  0.00000000000E+00 0.  1.
         14    1    4    4    0    0 -0.90975055836E+02  0.40832942133E+02  0.11610748758E+03  0.15305142476E+03  0.00000000000E+00 0. -1.
         -5    1    5    5    0  501  0.15015865829E+02  0.38612673215E+02  0.16138342172E+02  0.44709628129E+02  0.47000000000E+01 0.  1.
         13    1    6    6    0    0  0.34768745896E+01 -0.59672431986E+02  0.32032230027E+02  0.67815570163E+02  0.00000000000E+00 0. -1.
        -14    1    6    6    0    0  0.20292667516E+02 -0.55541546780E+02  0.15958878075E+03  0.17019175866E+03  0.00000000000E+00 0.  1.
</event>
<event>
12    1  0.1348628E-002  0.1857928E+03  0.7818608E-02  0.1162312E+00
         -2   -1    0    0    0  501 -0.00000000000E+00  0.00000000000E+00  0.14088821054E+03  0.14088821054E+03  0.00000000000E+00 0.  1.
          2   -1    0    0  502    0  0.00000000000E+00 -0.00000000000E+00 -0.28717636107E+03  0.28717636107E+03  0.00000000000E+00 0. -1.
          6    2    1    2  502    0 -0.72670962718E+02 -0.46297710609E+01  0.84941419777E+01  0.18708080049E+03  0.17211790105E+03 0.  0.
         24    2    3    3    0    0 -0.10645127378E+03  0.26640937212E+02  0.24167959669E+02  0.13822667914E+03  0.80504107525E+02 0.  0.
         -6    2    1    2    0  501  0.72670962718E+02  0.46297710609E+01 -0.15478229251E+03  0.24098377113E+03  0.16974426726E+03 0.  0.
        -24    2    5    5    0    0 -0.14777005128E+02  0.21723167276E+02 -0.11683321922E+03  0.14402216306E+03  0.80013289288E+02 0.  0.
          5    1    3    3  502    0  0.33780311059E+02 -0.31270708273E+02 -0.15673817691E+02  0.48854121343E+02  0.47000000000E+01 0. -1.
        -11    1    4    4    0    0 -0.74725122762E+02 -0.95637988700E+01 -0.14208716258E+02  0.76662884360E+02  0.00000000000E+00 0.  1.
         12    1    4    4    0    0 -0.31726151015E+02  0.36204736082E+02  0.38376675927E+02  0.61563794784E+02  0.00000000000E+00 0. -1.
         -5    1    5    5    0  501  0.87447967847E+02 -0.17093396215E+02 -0.37949073289E+02  0.96961608063E+02  0.47000000000E+01 0.  1.
         13    1    6    6    0    0  0.80954101458E+01 -0.12908529221E+02 -0.96700858798E+02  0.97893931805E+02  0.00000000000E+00 0. -1.
        -14    1    6    6    0    0 -0.22872415274E+02  0.34631696497E+02 -0.20132360422E+02  0.46128231257E+02  0.00000000000E+00 0.  1.
</event>
<event>
12    1  0.1348628E-002  0.1917862E+03  0.7818608E-02  0.1156860E+00
          2   -1    0    0  502    0  0.00000000000E+00  0.00000000000E+00  0.10852580191E+04  0.10852580191E+04  0.00000000000E+00 0. -1.
         -2   -1    0    0    0  501 -0.00000000000E+00 -0.00000000000E+00 -0.40712282714E+02  0.40712282714E+02  0.00000000000E+00 0.  1.
          6    2    1    2  502    0 -0.58917094502E+02  0.62700695325E+02  0.75450872608E+03  0.77870115039E+03  0.17230630477E+03 0.  0.
         24    2    3    3    0    0  0.20849610823E+02  0.14587448245E+02  0.51196797980E+03  0.51884404459E+03  0.80252291901E+02 0.  0.
         -6    2    1    2    0  501  0.58917094502E+02 -0.62700695325E+02  0.29003701035E+03  0.34726915147E+03  0.17050453065E+03 0.  0.
        -24    2    5    5    0    0  0.82521249688E+02  0.12475643731E+01  0.22671353043E+03  0.25411074246E+03  0.79761716923E+02 0.  0.
          5    1    3    3  502    0 -0.79766705325E+02  0.48113247080E+02  0.24254074629E+03  0.25985710579E+03  0.47000000000E+01 0. -1.
        -13    1    4    4    0    0 -0.83027654874E+01 -0.26954362447E+02  0.10492793310E+03  0.10865240317E+03  0.00000000000E+00 0.  1.
         14    1    4    4    0    0  0.29152376310E+02  0.41541810692E+02  0.40704004670E+03  0.41019164143E+03  0.00000000000E+00 0. -1.
         -5    1    5    5    0  501 -0.23604155186E+02 -0.63948259698E+02  0.63323479920E+02  0.93158409012E+02  0.47000000000E+01 0.  1.
         11    1    6    6    0    0  0.46222817670E+02 -0.37177713754E+02  0.14642404446E+03  0.15798332846E+03  0.00000000000E+00 0. -1.
        -12    1    6    6    0    0  0.36298432018E+02  0.38425278127E+02  0.80289485966E+02  0.96127414003E+02  0.00000000000E+00 0.  1.
</event>
<event>
12    1  0.1348628E-002  0.2079360E+03  0.7818608E-02  0.1143211E+00
          2   -1    0    0  502    0  0.00000000000E+00  0.00000000000E+00  0.25741006088E+04  0.25741006088E+04  0.00000000000E+00 0.  1.
         -2   -1    0    0    0  501 -0.00000000000E+00 -0.00000000000E+00 -0.17058803345E+02  0.17058803345E+02  0.00000000000E+00 0. -1.
          6    2    1    2  502    0 -0.55742290849E+02 -0.10106844869E+03  0.11177031857E+04  0.11368703616E+04  0.17289237555E+03 0.  0.
         24    2    3    3    0    0 -0.59995484774E+02 -0.87798673172E+02  0.11141395690E+04  0.11217387403E+04  0.75384064003E+02 0.  0.
         -6    2    1    2    0  501  0.55742290849E+02  0.10106844869E+03  0.14393386197E+04  0.14542890505E+04  0.17302874274E+03 0.  0.
        -24    2    5    5    0    0  0.69800366864E+01 -0.13633937979E+02  0.46936468271E+03  0.47632896774E+03  0.79696141451E+02 0.  0.
          5    1    3    3  502    0  0.42531939253E+01 -0.13269775521E+02  0.35636167535E+01  0.15131621371E+02  0.47000000000E+01 0. -1.
        -13    1    4    4    0    0 -0.18930341956E+02 -0.31618532558E+02  0.12945342817E+03  0.13459672920E+03  0.00000000000E+00 0.  1.
         14    1    4    4    0    0 -0.41065142818E+02 -0.56180140615E+02  0.98468614078E+03  0.98714201106E+03  0.00000000000E+00 0. -1.
         -5    1    5    5    0  501  0.48762254162E+02  0.11470238667E+03  0.96997393704E+03  0.97796008276E+03  0.47000000000E+01 0.  1.
         11    1    6    6    0    0 -0.12916482507E+02  0.21274729365E+02  0.59448793831E+02  0.64448496630E+02  0.00000000000E+00 0. -1.
        -12    1    6    6    0    0  0.19896519193E+02 -0.34908667345E+02  0.40991588887E+03  0.41188047111E+03  0.00000000000E+00 0.  1.
</event>
<event>
12    1  0.1348628E-002  0.2712087E+03  0.7818608E-02  0.1100590E+00
          2   -1    0    0  502    0  0.00000000000E+00  0.00000000000E+00  0.18758233335E+04  0.18758233335E+04  0.00000000000E+00 0.  1.
         -2   -1    0    0    0  501 -0.00000000000E+00 -0.00000000000E+00 -0.40668647611E+02  0.40668647611E+02  0.00000000000E+00 0. -1.
          6    2    1    2  502    0 -0.13307117206E+03 -0.16254660422E+03  0.10994733160E+04  0.11324675053E+04  0.17178982146E+03 0.  0.
         24    2    3    3    0    0 -0.14500774185E+03 -0.18008416733E+03  0.92889890862E+03  0.96051470292E+03  0.79232313976E+02 0.  0.
         -6    2    1    2    0  501  0.13307117206E+03  0.16254660422E+03  0.73568136989E+03  0.78402447573E+03  0.17128328923E+03 0.  0.
        -24    2    5    5    0    0  0.23801270086E+02  0.17137936502E+02  0.29838720054E+03  0.31038761835E+03  0.80282892661E+02 0.  0.
          5    1    3    3  502    0  0.11936569790E+02  0.17537563107E+02  0.17057440735E+03  0.17195280242E+03  0.47000000000E+01 0. -1.
        -11    1    4    4    0    0 -0.63561867813E+02 -0.65978330980E+02  0.52608601457E+03  0.53400350741E+03  0.00000000000E+00 0.  1.
         12    1    4    4    0    0 -0.81445874039E+02 -0.11410583635E+03  0.40281289405E+03  0.42651119551E+03  0.00000000000E+00 0. -1.
         -5    1    5    5    0  501  0.10926990198E+03  0.14540866772E+03  0.43729416935E+03  0.47363685738E+03  0.47000000000E+01 0.  1.
         11    1    6    6    0    0  0.29341953863E+02  0.22864513286E+02  0.52344418651E+02  0.64215842190E+02  0.00000000000E+00 0. -1.
        -12    1    6    6    0    0 -0.55406837763E+01 -0.57265767833E+01  0.24604278189E+03  0.24617177616E+03  0.00000000000E+00 0.  1.
</event>
<event>
12    1  0.1348628E-002  0.2279154E+03  0.7818608E-02  0.1128116E+00
          1   -1    0    0  502    0  0.00000000000E+00  0.00000000000E+00  0.34775307886E+03  0.34775307886E+03  0.00000000000E+00 0. -1.
         -1   -1    0    0    0  501 -0.00000000000E+00 -0.00000000000E+00 -0.15202566535E+03  0.15202566535E+03  0.00000000000E+00 0.  1.
          6    2    1    2  502    0 -0.71446357070E+02 -0.13126253044E+03  0.64969902306E+02  0.23723451511E+03  0.17240850651E+03 0.  0.
         24    2    3    3    0    0  0.19417108592E+02 -0.18682198785E+02  0.27037264212E+02  0.87596700701E+02  0.78842372237E+02 0.  0.
         -6    2    1    2    0  501  0.71446357070E+02  0.13126253044E+03  0.13075751120E+03  0.26254422910E+03  0.17174839639E+03 0.  0.
        -24    2    5    5    0    0  0.10938979322E+03  0.11601066171E+03  0.74496487251E+02  0.19283256105E+03  0.78803994186E+02 0.  0.
          5    1    3    3  502    0 -0.90863465663E+02 -0.11258033166E+03  0.37932638094E+02  0.14963781441E+03  0.47000000000E+01 0. -1.
        -13    1    4    4    0    0 -0.21226513640E+02  0.31117125188E+01 -0.14202967300E+02  0.25728814901E+02  0.00000000000E+00 0.  1.
         14    1    4    4    0    0  0.40643622232E+02 -0.21793911304E+02  0.41240231512E+02  0.61867885799E+02  0.00000000000E+00 0. -1.
         -5    1    5    5    0  501 -0.37943436147E+02  0.15251868736E+02  0.56261023946E+02  0.69711668047E+02  0.47000000000E+01 0.  1.
         11    1    6    6    0    0  0.35989234654E+01 -0.78375940809E+01  0.18814853761E+02  0.20697315119E+02  0.00000000000E+00 0. -1.
        -12    1    6    6    0    0  0.10579086975E+03  0.12384825579E+03  0.55681633490E+02  0.17213524593E+03  0.00000000000E+00 0.  1.
</event>
<event>
12    1  0.1348628E-002  0.1976127E+03  0.7818608E-02  0.1151769E+00
          3   -1    0    0  502    0  0.00000000000E+00  0.00000000000E+00  0.15021730621E+03  0.15021730621E+03  0.00000000000E+00 0. -1.
         -3   -1    0    0    0  501 -0.00000000000E+00 -0.00000000000E+00 -0.65757202564E+03  0.65757202564E+03  0.00000000000E+00 0.  1.
          6    2    1    2  502    0  0.15459410434E+02 -0.94321930325E+02 -0.56790056399E+03  0.60140037238E+03  0.17330821507E+03 0.  0.
         24    2    3    3    0    0  0.16578924735E+02 -0.10063544921E+03 -0.23328338605E+03  0.26668876577E+03  0.79368792321E+02 0.  0.
         -6    2    1    2    0  501 -0.15459410434E+02  0.94321930325E+02  0.60545844561E+02  0.20638895947E+03  0.17261223418E+03 0.  0.
        -24    2    5    5    0    0  0.18442283244E+02  0.12610869851E+03  0.38209337606E+02  0.15461316389E+03  0.78751224218E+02 0.  0.
          5    1    3    3  502    0 -0.11195143009E+01  0.63135188872E+01 -0.33461717794E+03  0.33471160662E+03  0.47000000000E+01 0. -1.
        -13    1    4    4    0    0  0.19361491318E+02  0.75664362605E+01 -0.32244600274E+02  0.38364469898E+02  0.00000000000E+00 0.  1.
         14    1    4    4    0    0 -0.27825665827E+01 -0.10820188547E+03 -0.20103878578E+03  0.22832429587E+03  0.00000000000E+00 0. -1.
         -5    1    5    5    0  501 -0.33901693678E+02 -0.31786768183E+02  0.22336506955E+02  0.51775795588E+02  0.47000000000E+01 0.  1.
         11    1    6    6    0    0 -0.23505547779E+02  0.45150187953E+02  0.37849044943E+02  0.63431856757E+02  0.00000000000E+00 0. -1.
        -12    1    6    6    0    0  0.41947831023E+02  0.80958510555E+02  0.36029266265E+00  0.91181307128E+02  0.00000000000E+00 0.  1.
</event>
<event>
12    1  0.1348628E-002  0.4151070E+03  0.7818608E-02  0.1038671E+00
         -2   -1    0    0    0  501 -0.00000000000E+00  0.00000000000E+00  0.69679020887E+03  0.69679020887E+03  0.00000000000E+00 0. -1.
          2   -1    0    0  502    0  0.00000000000E+00 -0.00000000000E+00 -0.14709947755E+04  0.14709947755E+04  0.00000000000E+00 0.  1.
          6    2    1    2  502    0  0.32580875419E+03 -0.19074320277E+03  0.60152645356E+03  0.73072685001E+03  0.17202715274E+03 0.  0.
         24    2    3    3    0    0  0.12710543300E+03 -0.26556508438E+02  0.16886457614E+03  0.22708146820E+03  0.78674702951E+02 0.  0.
         -6    2    1    2    0  501 -0.32580875419E+03  0.19074320277E+03 -0.13757310201E+04  0.14370581343E+04  0.17310669523E+03 0.  0.
        -24    2    5    5    0    0 -0.12067088861E+03  0.52000869103E+02 -0.71921643377E+03  0.73537125888E+03  0.78949705760E+02 0.  0.
          5    1    3    3  502    0  0.19870332118E+03 -0.16418669434E+03  0.43266187742E+03  0.50364538181E+03  0.47000000000E+01 0. -1.
        -13    1    4    4    0    0 -0.10508452640E+02 -0.66029385982E+01  0.98556815437E+01  0.15848054572E+02  0.00000000000E+00 0.  1.
         14    1    4    4    0    0  0.13761388564E+03 -0.19953569840E+02  0.15900889460E+03  0.21123341363E+03  0.00000000000E+00 0. -1.
         -5    1    5    5    0  501 -0.20513786558E+03  0.13874233367E+03 -0.65651458637E+03  0.70168687544E+03  0.47000000000E+01 0.  1.
         13    1    6    6    0    0 -0.27710296366E+02 -0.17050135448E+02 -0.92724530299E+02  0.98267014622E+02  0.00000000000E+00 0. -1.
        -14    1    6    6    0    0 -0.92960592242E+02  0.69051004551E+02 -0.62649190347E+03  0.63710424426E+03  0.00000000000E+00 0.  1.
</event>
<event>
12    1  0.1348628E-002  0.2146937E+03  0.7818608E-02  0.1137902E+00
          2   -1    0    0  502    0  0.00000000000E+00  0.00000000000E+00  0.93502320267E+03  0.93502320267E+03  0.00000000000E+00 0.  1.
         -2   -1    0    0    0  501 -0.00000000000E+00 -0.00000000000E+00 -0.85482954621E+02  0.85482954621E+02  0.00000000000E+00 0. -1.
          6    2    1    2  502    0 -0.12711358862E+03 -0.20977421652E+02  0.75724716282E+03  0.78721188553E+03  0.17228282126E+03 0.  0.
         24    2    3    3    0    0  0.10278478200E+01 -0.16251938436E+02  0.20343282226E+03  0.21872708210E+03  0.78685712164E+02 0.  0.
         -6    2    1    2    0  501  0.12711358862E+03  0.20977421652E+02  0.92293085230E+02  0.23329427176E+03  0.17120247376E+03 0.  0.
        -24    2    5    5    0    0  0.13679159043E+03  0.25954867655E+02  0.12291966505E+03  0.20045350320E+03  0.75410665845E+02 0.  0.
          5    1    3    3  502    0 -0.12814143644E+03 -0.47254832159E+01  0.55381434056E+03  0.56848480343E+03  0.47000000000E+01 0. -1.
        -13    1    4    4    0    0  0.92853336451E+00  0.30519677561E+02  0.11115916014E+03  0.11527650140E+03  0.00000000000E+00 0.  1.
         14    1    4    4    0    0  0.99314455532E-01 -0.46771615997E+02  0.92273662122E+02  0.10345058070E+03  0.00000000000E+00 0. -1.
         -5    1    5    5    0  501 -0.96780018165E+01 -0.49774460025E+01 -0.30626579817E+02  0.32840768553E+02  0.47000000000E+01 0.  1.
         13    1    6    6    0    0  0.89827901252E+02 -0.56242816079E+01  0.36437632150E+02  0.97099873448E+02  0.00000000000E+00 0. -1.
        -14    1    6    6    0    0  0.46963689181E+02  0.31579149263E+02  0.86482032897E+02  0.10335362976E+03  0.00000000000E+00 0.  1.
</event>
<event>
12    1  0.1348628E-002  0.1768358E+03  0.7818608E-02  0.1170901E+00
         -2   -1    0    0    0  501 -0.00000000000E+00  0.00000000000E+00  0.10764522998E+03  0.10764522998E+03  0.00000000000E+00 0.  1.
          2   -1    0    0  502    0  0.00000000000E+00 -0.00000000000E+00 -0.29077363908E+03  0.29077363908E+03  0.00000000000E+00 0. -1.
          6    2    1    2  502    0  0.37726775656E+01  0.38138919474E+02 -0.85263083261E+02  0.19596838909E+03  0.17223532123E+03 0.  0.
         24    2    3    3    0    0 -0.63360921079E+02  0.18752951774E+02 -0.33796941610E+02  0.10905700004E+03  0.79905672356E+02 0.  0.
         -6    2    1    2    0  501 -0.37726775656E+01 -0.38138919474E+02 -0.97865325835E+02  0.20245047997E+03  0.17303110867E+03 0.  0.
        -24    2    5    5    0    0 -0.46398311367E+02  0.29236906477E+02 -0.63842325702E+02  0.11563975991E+03  0.79303918715E+02 0.  0.
          5    1    3    3  502    0  0.67133598644E+02  0.19385967700E+02 -0.51466141651E+02  0.86911389053E+02  0.47000000000E+01 0. -1.
        -13    1    4    4    0    0 -0.18234709340E+02  0.23813911074E+01  0.26331008078E+02  0.32116936882E+02  0.00000000000E+00 0.  1.
         14    1    4    4    0    0 -0.45126211739E+02  0.16371560667E+02 -0.60127949688E+02  0.76940063155E+02  0.00000000000E+00 0. -1.
         -5    1    5    5    0  501  0.42625633801E+02 -0.67375825952E+02 -0.34023000133E+02  0.86810720062E+02  0.47000000000E+01 0.  1.
         13    1    6    6    0    0 -0.83654626327E+01  0.29682493320E+02 -0.70569899783E+02  0.77013908680E+02  0.00000000000E+00 0. -1.
        -14    1    6    6    0    0 -0.38032848734E+02 -0.44558684252E+00  0.67275740807E+01  0.38625851233E+02  0.00000000000E+00 0.  1.
</event>
<event>
12    1  0.1348628E-002  0.2070295E+03  0.7818608E-02  0.1143940E+00
          2   -1    0    0  502    0  0.00000000000E+00  0.00000000000E+00  0.31222975954E+03  0.31222975954E+03  0.00000000000E+00 0.  1.
         -2   -1    0    0    0  501 -0.00000000000E+00 -0.00000000000E+00 -0.30038296321E+03  0.30038296321E+03  0.00000000000E+00 0. -1.
          6    2    1    2  502    0  0.69977507647E+02 -0.92402428102E+02 -0.21978861656E+03  0.30198925944E+03  0.17162580386E+03 0.  0.
         24    2    3    3    0    0 -0.23088500057E+02 -0.20431272918E+02 -0.11931061766E+03  0.14720215651E+03  0.80516679311E+02 0.  0.
         -6    2    1    2    0  501 -0.69977507647E+02  0.92402428102E+02  0.23163541289E+03  0.31062346331E+03  0.17145527452E+03 0.  0.
        -24    2    5    5    0    0 -0.51859063110E+02  0.13045197647E+03  0.16029378734E+03  0.22763091124E+03  0.80091528289E+02 0.  0.
          5    1    3    3  502    0  0.93066007705E+02 -0.71971155184E+02 -0.10047799890E+03  0.15478710292E+03  0.47000000000E+01 0. -1.
        -11    1    4    4    0    0  0.21972422831E+01  0.28628637735E+02 -0.25713193804E+02  0.38543418476E+02  0.00000000000E+00 0.  1.
         12    1    4    4    0    0 -0.25285742340E+02 -0.49059910653E+02 -0.93597423860E+02  0.10865873804E+03  0.00000000000E+00 0. -1.
         -5    1    5    5    0  501 -0.18118444537E+02 -0.38049548364E+02  0.71341625548E+02  0.82992552070E+02  0.47000000000E+01 0.  1.
         11    1    6    6    0    0 -0.36302657939E+02  0.69339250123E+01  0.41164732051E+02  0.55321762936E+02  0.00000000000E+00 0. -1.
        -12    1    6    6    0    0 -0.15556405171E+02  0.12351805145E+03  0.11912905529E+03  0.17230914831E+03  0.00000000000E+00 0.  1.
</event>
<event>
12    1  0.1348628E-002  0.1860992E+03  0.7818608E-02  0.1162027E+00
         -2   -1    0    0    0  501 -0.00000000000E+00  0.00000000000E+00  0.63238532758E+02  0.63238532758E+02  0.00000000000E+00 0. -1.
          2   -1    0    0  502    0  0.00000000000E+00 -0.00000000000E+00 -0.83756983579E+03  0.83756983579E+03  0.00000000000E+00 0.  1.
          6    2    1    2  502    0  0.31666654380E+02 -0.62775006711E+02 -0.12260530844E+03  0.22311892620E+03  0.17264563448E+03 0.  0.
         24    2    3    3    0    0  0.32191538556E+02 -0.90407593488E+02 -0.14275012689E+03  0.18859735229E+03  0.77340380445E+02 0.  0.
         -6    2    1    2    0  501 -0.31666654380E+02  0.62775006711E+02 -0.65172599459E+03  0.67768944234E+03  0.17196723457E+03 0.  0.
        -24    2    5    5    0    0 -0.17752098790E+02 -0.30710355177E+02 -0.24896310254E+03  0.26395865432E+03  0.80207741749E+02 0.  0.
          5    1    3    3  502    0 -0.52488417633E+00  0.27632586777E+02  0.20144818451E+02  0.34521573919E+02  0.47000000000E+01 0. -1.
        -11    1    4    4    0    0  0.18545681765E+02 -0.32071312351E+02 -0.11816780143E+03  0.12383917265E+03  0.00000000000E+00 0.  1.
         12    1    4    4    0    0  0.13645856791E+02 -0.58336281137E+02 -0.24582325457E+02  0.64758179633E+02  0.00000000000E+00 0. -1.
         -5    1    5    5    0  501 -0.13914555590E+02  0.93485361888E+02 -0.40276289205E+03  0.41373078802E+03  0.47000000000E+01 0.  1.
         11    1    6    6    0    0 -0.20462872052E+02 -0.93411111530E+01 -0.11030682843E+02  0.25053172538E+02  0.00000000000E+00 0. -1.
        -12    1    6    6    0    0  0.27107732625E+01 -0.21369244024E+02 -0.23793241970E+03  0.23890548178E+03  0.00000000000E+00 0.  1.
</event>
<event>
12    1  0.1348628E-002  0.1952939E+03  0.7818608E-02  0.1153771E+00
          2   -1    0    0  502    0  0.00000000000E+00  0.00000000000E+00  0.20618881859E+04  0.20618881859E+04  0.00000000000E+00 0. -1.
         -2   -1    0    0    0  501 -0.00000000000E+00 -0.00000000000E+00 -0.25003103845E+02  0.25003103845E+02  0.00000000000E+00 0.  1.
          6    2    1    2  502    0  0.10235124183E+03 -0.31310286034E+02  0.45907784428E+03  0.49610318936E+03  0.15462792978E+03 0.  0.
         24    2    3    3    0    0  0.82118951256E+01  0.15774583154E+02  0.18187244636E+03  0.19954944357E+03  0.80163089949E+02 0.  0.
         -6    2    1    2    0  501 -0.10235124183E+03  0.31310286034E+02  0.15778072378E+04  0.15907881004E+04  0.17226430284E+03 0.  0.
        -24    2    5    5    0    0 -0.76791677446E+02 -0.64101873463E+01  0.14634421619E+04  0.14675907545E+04  0.78877178881E+02 0.  0.
          5    1    3    3  502    0  0.94139346708E+02 -0.47084869188E+02  0.27720539792E+03  0.29655374579E+03  0.47000000000E+01 0. -1.
        -11    1    4    4    0    0  0.42293617626E+02 -0.11461344436E+01  0.75078292554E+02  0.86178963378E+02  0.00000000000E+00 0.  1.
         12    1    4    4    0    0 -0.34081722500E+02  0.16920717598E+02  0.10679415381E+03  0.11337048020E+03  0.00000000000E+00 0. -1.
         -5    1    5    5    0  501 -0.25559564388E+02  0.37720473380E+02  0.11436507586E+03  0.12319734583E+03  0.47000000000E+01 0.  1.
         11    1    6    6    0    0 -0.30205549570E+02 -0.30345537319E+02  0.30795761053E+03  0.31091979149E+03  0.00000000000E+00 0. -1.
        -12    1    6    6    0    0 -0.46586127876E+02  0.23935349973E+02  0.11554845514E+04  0.11566709630E+04  0.00000000000E+00 0.  1.
</event>
<event>
12    1  0.1348628E-002  0.2682529E+03  0.7818608E-02  0.1102284E+00
         -1   -1    0    0    0  501 -0.00000000000E+00  0.00000000000E+00  0.62819587133E+03  0.62819587133E+03  0.00000000000E+00 0. -1.
          1   -1    0    0  502    0  0.00000000000E+00 -0.00000000000E+00 -0.11981583381E+03  0.11981583381E+03  0.00000000000E+00 0.  1.
          6    2    1    2  502    0  0.66058069871E+02 -0.19866997474E+03  0.32576618900E+03  0.41770813772E+03  0.15659837472E+03 0.  0.
         24    2    3    3    0    0  0.37261600323E+02 -0.20792273431E+03  0.25534974620E+03  0.34092652772E+03  0.80044450863E+02 0.  0.
         -6    2    1    2    0  501 -0.66058069871E+02  0.19866997474E+03  0.18261384852E+03  0.33030356742E+03  0.17865945684E+03 0.  0.
        -24    2    5    5    0    0  0.32022322741E+02  0.12618552704E+03  0.91393923990E+02  0.17793256229E+03  0.79742905584E+02 0.  0.
          5    1    3    3  502    0  0.28796469549E+02  0.92527595740E+01  0.70416442800E+02  0.76781610004E+02  0.47000000000E+01 0. -1.
        -13    1    4    4    0    0  0.41484112613E+02 -0.60665727300E+02  0.52908649322E+02  0.90557093820E+02  0.00000000000E+00 0.  1.
         14    1    4    4    0    0 -0.42225122899E+01 -0.14725700701E+03  0.20244109688E+03  0.25036943390E+03  0.00000000000E+00 0. -1.
         -5    1    5    5    0  501 -0.98080392613E+02  0.72484447694E+02  0.91219924528E+02  0.15237100513E+03  0.47000000000E+01 0.  1.
         13    1    6    6    0    0 -0.12663093125E+02  0.32248616334E+02  0.59983382670E+02  0.69270003461E+02  0.00000000000E+00 0. -1.
        -14    1    6    6    0    0  0.44685415866E+02  0.93936910710E+02  0.31410541320E+02  0.10866255883E+03  0.00000000000E+00 0.  1.
</event>
<event>
12    1  0.1348628E-002  0.2369832E+03  0.7818608E-02  0.1121819E+00
          2   -1    0    0  502    0  0.00000000000E+00  0.00000000000E+00  0.24713531575E+03  0.24713531575E+03  0.00000000000E+00 0. -1.
         -2   -1    0    0    0  501 -0.00000000000E+00 -0.00000000000E+00 -0.23737151517E+03  0.23737151517E+03  0.00000000000E+00 0.  1.
          6    2    1    2  502    0 -0.16173708019E+03  0.20695605238E+01 -0.45156100025E+02  0.24035270252E+03  0.17195110366E+03 0.  0.
         24    2    3    3    0    0 -0.49667660183E+02  0.56942583202E+02  0.43786264011E-01  0.10755314213E+03  0.76539808045E+02 0.  0.
         -6    2    1    2    0  501  0.16173708019E+03 -0.20695605238E+01  0.54919900607E+02  0.24415412840E+03  0.17444734662E+03 0.  0.
        -24    2    5    5    0    0  0.91090865046E+02 -0.60214081186E+02  0.69335272841E+02  0.15140950077E+03  0.78703085047E+02 0.  0.
          5    1    3    3  502    0 -0.11206942000E+03 -0.54873022678E+02 -0.45199886290E+02  0.13279956038E+03  0.47000000000E+01 0. -1.
        -13    1    4    4    0    0  0.15193173337E+02  0.14853141190E+02 -0.18350663769E+02  0.28074813980E+02  0.00000000000E+00 0.  1.
         14    1    4    4    0    0 -0.64860833520E+02  0.42089442012E+02  0.18394450033E+02  0.79478328152E+02  0.00000000000E+00 0. -1.
         -5    1    5    5    0  501  0.70646215140E+02  0.58144520663E+02 -0.14415372235E+02  0.92744627625E+02  0.47000000000E+01 0.  1.
         13    1    6    6    0    0  0.99460144647E+02 -0.59570623959E+02  0.42808267360E+02  0.12358611316E+03  0.00000000000E+00 0. -1.
        -14    1    6    6    0    0 -0.83692796012E+01 -0.64345722688E+00  0.26527005481E+02  0.27823387609E+02  0.00000000000E+00 0.  1.
</event>
<event>
12    1  0.1348628E-002  0.1875728E+03  0.7818608E-02  0.1160669E+00
         -2   -1    0    0    0  501 -0.00000000000E+00  0.00000000000E+00  0.96950827319E+02  0.96950827319E+02  0.00000000000E+00 0. -1.
          2   -1    0    0  502    0  0.00000000000E+00 -0.00000000000E+00 -0.37331280132E+03  0.37331280132E+03  0.00000000000E+00 0.  1.
          6    2    1    2  502    0 -0.65497149899E+02 -0.36489363919E+02 -0.17731940768E+03  0.25798867375E+03  0.17174001607E+03 0.  0.
         24    2    3    3    0    0 -0.10707602259E+03 -0.60012497854E+01 -0.11286878564E+03  0.17531884588E+03  0.80598047973E+02 0.  0.
         -6    2    1    2    0  501  0.65497149899E+02  0.36489363919E+02 -0.99042566327E+02  0.21227495489E+03  0.17213330940E+03 0.  0.
        -24    2    5    5    0    0  0.83545506661E+02 -0.21613535495E+02 -0.33182349887E+02  0.12248994383E+03  0.80347503977E+02 0.  0.
          5    1    3    3  502    0  0.41578872695E+02 -0.30488114134E+02 -0.64450622037E+02  0.82669827864E+02  0.47000000000E+01 0. -1.
        -13    1    4    4    0    0  0.19321043304E+01  0.15216265321E+02 -0.39088869562E+02  0.41990564191E+02  0.00000000000E+00 0.  1.
         14    1    4    4    0    0 -0.10900812692E+03 -0.21217515107E+02 -0.73779916076E+02  0.13332828169E+03  0.00000000000E+00 0. -1.
         -5    1    5    5    0  501 -0.18048356762E+02  0.58102899415E+02 -0.65860216440E+02  0.89785011064E+02  0.47000000000E+01 0.  1.
         13    1    6    6    0    0  0.45323463219E+02 -0.50302590650E+02 -0.31477170602E+02  0.74668461973E+02  0.00000000000E+00 0. -1.
        -14    1    6    6    0    0  0.38222043442E+02  0.28689055155E+02 -0.17051792846E+01  0.47821481856E+02  0.00000000000E+00 0.  1.
</event>
<event>
12    1  0.1348628E-002  0.2018324E+03  0.7818608E-02  0.1148202E+00
         -2   -1    0    0    0  501 -0.00000000000E+00  0.00000000000E+00  0.21788811306E+03  0.21788811306E+03  0.00000000000E+00 0. -1.
          2   -1    0    0  502    0  0.00000000000E+00 -0.00000000000E+00 -0.21159243069E+03  0.21159243069E+03  0.00000000000E+00 0.  1.
          6    2    1    2  502    0 -0.73522266174E+02  0.75547541677E+02 -0.70120754425E+02  0.21367491206E+03  0.17212522524E+03 0.  0.
         24    2    3    3    0    0 -0.10316670602E+03  0.43002079814E+02 -0.89555128942E+02  0.16532426765E+03  0.82579926464E+02 0.  0.
         -6    2    1    2    0  501  0.73522266174E+02 -0.75547541677E+02  0.76416436798E+02  0.21580563169E+03  0.17210358561E+03 0.  0.
        -24    2    5    5    0    0  0.22732492067E+02  0.49433973153E+00  0.92684096057E+02  0.12280726816E+03  0.77293420697E+02 0.  0.
          5    1    3    3  502    0  0.29644439845E+02  0.32545461863E+02  0.19434374518E+02  0.48350644406E+02  0.47000000000E+01 0. -1.
        -13    1    4    4    0    0 -0.89073991745E+02  0.72871998310E+01 -0.29632039809E+02  0.94155918933E+02  0.00000000000E+00 0.  1.
         14    1    4    4    0    0 -0.14092714274E+02  0.35714879983E+02 -0.59923089133E+02  0.71168348717E+02  0.00000000000E+00 0. -1.
         -5    1    5    5    0  501  0.50789774108E+02 -0.76041881409E+02 -0.16267659259E+02  0.92998363533E+02  0.47000000000E+01 0.  1.
         13    1    6    6    0    0  0.24673577206E+02 -0.34807598890E+02  0.65669841592E+02  0.78312722130E+02  0.00000000000E+00 0. -1.
        -14    1    6    6    0    0 -0.19410851396E+01  0.35301938621E+02  0.27014254465E+02  0.44494546028E+02  0.00000000000E+00 0.  1.
</event>
<event>
12    1  0.1348628E-002  0.2306605E+03  0.7818608E-02  0.1126176E+00
          1   -1    0    0  502    0  0.00000000000E+00  0.00000000000E+00  0.20616104547E+03  0.20616104547E+03  0.00000000000E+00 0. -1.
         -1   -1    0    0    0  501 -0.00000000000E+00 -0.00000000000E+00 -0.35547086252E+03  0.35547086252E+03  0.00000000000E+00 0.  1.
          6    2    1    2  502    0  0.14229553919E+03  0.55965366188E+02 -0.22171501017E+03  0.32014587645E+03  0.17307713247E+03 0.  0.
         24    2    3    3    0    0  0.21645129815E+02 -0.25600536145E+02 -0.98158603786E+02  0.12910192008E+03  0.76865435500E+02 0.  0.
         -6    2    1    2    0  501 -0.14229553919E+03 -0.55965366188E+02  0.72405193119E+02  0.24148603154E+03  0.17231613026E+03 0.  0.
        -24    2    5    5    0    0 -0.21695344261E+02 -0.64363421641E+02  0.57611929972E+02  0.11960139351E+03  0.79824938744E+02 0.  0.
          5    1    3    3  502    0  0.12065040938E+03  0.81565902333E+02 -0.12355640639E+03  0.19104395637E+03  0.47000000000E+01 0. -1.
        -11    1    4    4    0    0 -0.59147470641E+01 -0.27429394887E+02 -0.97517246682E+02  0.10147398355E+03  0.00000000000E+00 0.  1.
         12    1    4    4    0    0  0.27559876879E+02  0.18288587423E+01 -0.64135710445E+00  0.27627936529E+02  0.00000000000E+00 0. -1.
         -5    1    5    5    0  501 -0.12060019493E+03  0.83980554528E+01  0.14793263147E+02  0.12188463803E+03  0.47000000000E+01 0.  1.
         11    1    6    6    0    0 -0.50505312215E+02 -0.46797027684E+02  0.49774057362E+02  0.84960020882E+02  0.00000000000E+00 0. -1.
        -12    1    6    6    0    0  0.28809967954E+02 -0.17566393957E+02  0.78378726097E+01  0.34641372623E+02  0.00000000000E+00 0.  1.
</event>
<event>
12    1  0.1348628E-002  0.1829335E+03  0.7818608E-02  0.1164994E+00
         -4   -1    0    0    0  501 -0.00000000000E+00  0.00000000000E+00  0.81752445542E+02  0.81752445542E+02  0.00000000000E+00 0. -1.
          4   -1    0    0  502    0  0.00000000000E+00 -0.00000000000E+00 -0.48246157284E+03  0.48246157284E+03  0.00000000000E+00 0.  1.
          6    2    1    2  502    0  0.11163435253E+02 -0.61844303610E+02 -0.30981132557E+03  0.35958835848E+03  0.17138083301E+03 0.  0.
         24    2    3    3    0    0 -0.20898650835E+02  0.28805333982E+02 -0.14999679560E+03  0.17301904656E+03  0.78549671601E+02 0.  0.
         -6    2    1    2    0  501 -0.11163435253E+02  0.61844303610E+02 -0.90897801725E+02  0.20462565991E+03  0.17222052769E+03 0.  0.
        -24    2    5    5    0    0 -0.54643111341E+02 -0.39905129435E+01 -0.20220874486E+02  0.98597251697E+02  0.79440169100E+02 0.  0.
          5    1    3    3  502    0  0.32062086088E+02 -0.90649637592E+02 -0.15981452997E+03  0.18656931192E+03  0.47000000000E+01 0. -1.
        -13    1    4    4    0    0 -0.49338034868E+02  0.30029327717E+02 -0.99136039232E+02  0.11473428643E+03  0.00000000000E+00 0.  1.
         14    1    4    4    0    0  0.28439384033E+02 -0.12239937351E+01 -0.50860756368E+02  0.58284760128E+02  0.00000000000E+00 0. -1.
         -5    1    5    5    0  501  0.43479676087E+02  0.65834816554E+02 -0.70676927239E+02  0.10602840821E+03  0.47000000000E+01 0.  1.
         13    1    6    6    0    0 -0.18934909800E+02  0.29164540603E+01  0.30600194898E+02  0.36102748388E+02  0.00000000000E+00 0. -1.
        -14    1    6    6    0    0 -0.35708201541E+02 -0.69069670038E+01 -0.50821069384E+02  0.62494503309E+02  0.00000000000E+00 0.  1.
</event>
<event>
12    1  0.1348628E-002  0.1979000E+03  0.7818608E-02  0.1151523E+00
          2   -1    0    0  502    0  0.00000000000E+00  0.00000000000E+00  0.45888045965E+03  0.45888045965E+03  0.00000000000E+00 0. -1.
         -2   -1    0    0    0  501 -0.00000000000E+00 -0.00000000000E+00 -0.10777330054E+03  0.10777330054E+03  0.00000000000E+00 0.  1.
          6    2    1    2  502    0  0.90427887146E+02 -0.34502460529E+02  0.46513285224E+02  0.20357151434E+03  0.17294580999E+03 0.  0.
         24    2    3    3    0    0  0.50403846214E+00 -0.53276371113E+02 -0.33871099203E+02  0.81413839428E+02  0.51403658580E+02 0.  0.
         -6    2    1    2    0  501 -0.90427887146E+02  0.34502460529E+02  0.30459387388E+03  0.36308224584E+03  0.17228948511E+03 0.  0.
        -24    2    5    5    0    0  0.30422776177E+01 -0.27629508761E+02  0.10785393222E+03  0.13653037991E+03  0.78964730966E+02 0.  0.
          5    1    3    3  502    0  0.89923848684E+02  0.18773910584E+02  0.80384384427E+02  0.12215767491E+03  0.47000000000E+01 0. -1.
        -11    1    4    4    0    0 -0.16057090901E+02 -0.39645250521E+02 -0.17751507932E+01  0.42810363435E+02  0.00000000000E+00 0.  1.
         12    1    4    4    0    0  0.16561129363E+02 -0.13631120592E+02 -0.32095948410E+02  0.38603475993E+02  0.00000000000E+00 0. -1.
         -5    1    5    5    0  501 -0.93470164764E+02  0.62131969290E+02  0.19673994167E+03  0.22655186593E+03  0.47000000000E+01 0.  1.
         11    1    6    6    0    0  0.30569617828E+02  0.48502235801E+01  0.15030402047E+02  0.34408417409E+02  0.00000000000E+00 0. -1.
        -12    1    6    6    0    0 -0.27527340210E+02 -0.32479732341E+02  0.92823530169E+02  0.10212196250E+03  0.00000000000E+00 0.  1.
</event>
<event>
12    1  0.1348628E-002  0.1963826E+03  0.7818608E-02  0.1152827E+00
          2   -1    0    0  502    0  0.00000000000E+00  0.00000000000E+00  0.10389486071E+04  0.10389486071E+04  0.00000000000E+00 0. -1.
         -2   -1    0    0    0  501 -0.00000000000E+00 -0.00000000000E+00 -0.37213908648E+02  0.37213908648E+02  0.00000000000E+00 0.  1.
          6    2    1    2  502    0 -0.27412626942E+01 -0.93174920611E+02  0.47437994808E+03  0.51349579110E+03  0.17306794038E+03 0.  0.
         24    2    3    3    0    0  0.48792119803E+02 -0.10706941850E+03  0.35599756737E+03  0.38355263182E+03  0.80832060879E+02 0.  0.
         -6    2    1    2    0  501  0.27412626942E+01  0.93174920611E+02  0.52735475041E+03  0.56266672468E+03  0.17263177556E+03 0.  0.
        -24    2    5    5    0    0  0.17801769768E+02  0.30712422441E+01  0.38230929732E+03  0.39118563188E+03  0.80866953887E+02 0.  0.
          5    1    3    3  502    0 -0.51533382497E+02  0.13894497890E+02  0.11838238071E+03  0.12994315928E+03  0.47000000000E+01 0. -1.
        -13    1    4    4    0    0  0.14920790236E+02 -0.77415055018E+02  0.12195433319E+03  0.14521907626E+03  0.00000000000E+00 0.  1.
         14    1    4    4    0    0  0.33871329567E+02 -0.29654363482E+02  0.23404323418E+03  0.23833355556E+03  0.00000000000E+00 0. -1.
         -5    1    5    5    0  501 -0.15060507074E+02  0.90103678367E+02  0.14504545308E+03  0.17148109280E+03  0.47000000000E+01 0.  1.
         13    1    6    6    0    0  0.47614314423E+02  0.12782199023E+02  0.27521765600E+03  0.27959840079E+03  0.00000000000E+00 0. -1.
        -14    1    6    6    0    0 -0.29812544655E+02 -0.97109567791E+01  0.10709164132E+03  0.11158723109E+03  0.00000000000E+00 0.  1.
</event>
<event>
12    1  0.1348628E-002  0.2158087E+03  0.7818608E-02  0.1137047E+00
          1   -1    0    0  502    0  0.00000000000E+00  0.00000000000E+00  0.49738889376E+03  0.49738889376E+03  0.00000000000E+00 0. -1.
         -1   -1    0    0    0  501 -0.00000000000E+00 -0.00000000000E+00 -0.10460003070E+03  0.10460003070E+03  0.00000000000E+00 0.  1.
          6    2    1    2  502    0 -0.10200452465E+03  0.82166390211E+02  0.98839010451E+02  0.23724806028E+03  0.17135125733E+03 0.  0.
         24    2    3    3    0    0 -0.40253186590E+02 -0.21640744224E+02  0.19601574717E+02  0.92714984018E+02  0.78250914940E+02 0.  0.
         -6    2    1    2    0  501  0.10200452465E+03 -0.82166390211E+02  0.29394985262E+03  0.36474086418E+03  0.17167744005E+03 0.  0.
        -24    2    5    5    0    0  0.78405466032E+02 -0.61253282931E+02  0.85126555130E+02  0.15349803425E+03  0.80098279368E+02 0.  0.
          5    1    3    3  502    0 -0.61751338056E+02  0.10380713443E+03  0.79237435734E+02  0.14453307626E+03  0.47000000000E+01 0. -1.
        -11    1    4    4    0    0 -0.33347532231E+02  0.24038247725E+02  0.21670817666E+02  0.46470631564E+02  0.00000000000E+00 0.  1.
         12    1    4    4    0    0 -0.69056543582E+01 -0.45678991949E+02 -0.20692429485E+01  0.46244352454E+02  0.00000000000E+00 0. -1.
         -5    1    5    5    0  501  0.23599058613E+02 -0.20913107281E+02  0.20882329749E+03  0.21124282993E+03  0.47000000000E+01 0.  1.
         11    1    6    6    0    0  0.93400806645E+02 -0.61476003548E+02  0.80581706010E+02  0.13782750465E+03  0.00000000000E+00 0. -1.
        -12    1    6    6    0    0 -0.14995340612E+02  0.22272061754E+00  0.45448491191E+01  0.15670529604E+02  0.00000000000E+00 0.  1.
</event>
<event>
12    1  0.1348628E-002  0.2728944E+03  0.7818608E-02  0.1099634E+00
          1   -1    0    0  502    0  0.00000000000E+00  0.00000000000E+00  0.15964482502E+04  0.15964482502E+04  0.00000000000E+00 0. -1.
         -1   -1    0    0    0  501 -0.00000000000E+00 -0.00000000000E+00 -0.54200958631E+02  0.54200958631E+02  0.00000000000E+00 0.  1.
          6    2    1    2  502    0 -0.55357593524E+02  0.20427148751E+03  0.46345747866E+03  0.53792096690E+03  0.17255384183E+03 0.  0.
         24    2    3    3    0    0 -0.35719629953E+02  0.20190591154E+02  0.12613603122E+03  0.15311026678E+03  0.76478124248E+02 0.  0.
         -6    2    1    2    0  501  0.55357593524E+02 -0.20427148751E+03  0.10787898129E+04  0.11127282419E+04  0.17200400051E+03 0.  0.
        -24    2    5    5    0    0  0.73341343275E+02 -0.49505450408E+02  0.44448715952E+03  0.45955300695E+03  0.76094605387E+02 0.  0.
          5    1    3    3  502    0 -0.19637963571E+02  0.18408089636E+03  0.33732144745E+03  0.38481070012E+03  0.47000000000E+01 0. -1.
        -13    1    4    4    0    0  0.18967410793E+01  0.41186149772E+02  0.43593575225E+02  0.60002469621E+02  0.00000000000E+00 0.  1.
         14    1    4    4    0    0 -0.37616371032E+02 -0.20995558618E+02  0.82542455991E+02  0.93107797162E+02  0.00000000000E+00 0. -1.
         -5    1    5    5    0  501 -0.17983749751E+02 -0.15476603710E+03  0.63430265339E+03  0.65317523498E+03  0.47000000000E+01 0.  1.
         13    1    6    6    0    0  0.66819085797E+02 -0.64544803631E+02  0.41953315777E+03  0.42969627921E+03  0.00000000000E+00 0. -1.
        -14    1    6    6    0    0  0.65222574781E+01  0.15039353223E+02  0.24954001750E+02  0.29856727739E+02  0.00000000000E+00 0.  1.
</event>
<event>
12    1  0.1348628E-002  0.2564205E+03  0.7818608E-02  0.1109313E+00
          2   -1    0    0  502    0  0.00000000000E+00  0.00000000000E+00  0.19252400055E+04  0.19252400055E+04  0.00000000000E+00 0.  1.
         -2   -1    0    0    0  501 -0.00000000000E+00 -0.00000000000E+00 -0.35044087278E+02  0.35044087278E+02  0.00000000000E+00 0. -1.
          6    2    1    2  502    0 -0.66324759058E+02  0.17856230996E+03  0.78911075239E+03  0.82975851107E+03  0.17181366347E+03 0.  0.
         24    2    3    3    0    0 -0.54547732089E+02  0.98739494795E+02  0.26438017010E+03  0.29883982222E+03  0.81752199311E+02 0.  0.
         -6    2    1    2    0  501  0.66324759058E+02 -0.17856230996E+03  0.11010851659E+04  0.11305255817E+04  0.17151115496E+03 0.  0.
        -24    2    5    5    0    0 -0.45787289158E+01 -0.56863993570E+02  0.57062233690E+03  0.58166249523E+03  0.97298142142E+02 0.  0.
          5    1    3    3  502    0 -0.11777026969E+02  0.79822815164E+02  0.52473058229E+03  0.53091868886E+03  0.47000000000E+01 0. -1.
        -13    1    4    4    0    0 -0.25750484164E+02 -0.46122830899E+01  0.93324496315E+02  0.96921732354E+02  0.00000000000E+00 0.  1.
         14    1    4    4    0    0 -0.28797247925E+02  0.10335177788E+03  0.17105567379E+03  0.20191808986E+03  0.00000000000E+00 0. -1.
         -5    1    5    5    0  501  0.70903487974E+02 -0.12169831639E+03  0.53046282895E+03  0.54886308650E+03  0.47000000000E+01 0.  1.
         11    1    6    6    0    0 -0.16362368937E+02 -0.80691440115E+02  0.35580977267E+03  0.36521148662E+03  0.00000000000E+00 0. -1.
        -12    1    6    6    0    0  0.11783640021E+02  0.23827446545E+02  0.21481256423E+03  0.21645100862E+03  0.00000000000E+00 0.  1.
</event>
<event>
12    1  0.1348628E-002  0.2045256E+03  0.7818608E-02  0.1145976E+00
          1   -1    0    0  502    0  0.00000000000E+00  0.00000000000E+00  0.20039434753E+04  0.20039434753E+04  0.00000000000E+00 0. -1.
         -1   -1    0    0    0  501 -0.00000000000E+00 -0.00000000000E+00 -0.21947786156E+02  0.21947786156E+02  0.00000000000E+00 0.  1.
          6    2    1    2  502    0  0.99864700702E+02  0.44964254410E+02  0.76618408701E+03  0.79296866009E+03  0.17252970199E+03 0.  0.
         24    2    3    3    0    0  0.11551879559E+03  0.52137380103E+02  0.41256012240E+03  0.43889451140E+03  0.79747344814E+02 0.  0.
         -6    2    1    2    0  501 -0.99864700702E+02 -0.44964254410E+02  0.12158116021E+04  0.12329226014E+04  0.17293220194E+03 0.  0.
        -24    2    5    5    0    0 -0.21070043112E+02 -0.77585157702E+02  0.59796648442E+03  0.60920199013E+03  0.84259983882E+02 0.  0.
          5    1    3    3  502    0 -0.15654094889E+02 -0.71731256932E+01  0.35362396461E+03  0.35407414869E+03  0.47000000000E+01 0. -1.
        -11    1    4    4    0    0  0.47028205397E+02  0.18570555772E+02  0.61365134443E+02  0.79512246665E+02  0.00000000000E+00 0.  1.
         12    1    4    4    0    0  0.68490590195E+02  0.33566824330E+02  0.35119498796E+03  0.35938226474E+03  0.00000000000E+00 0. -1.
         -5    1    5    5    0  501 -0.78794657590E+02  0.32620903292E+02  0.61784511772E+03  0.62372061124E+03  0.47000000000E+01 0.  1.
         11    1    6    6    0    0 -0.41757419384E+02 -0.23341777302E+02  0.40143362293E+03  0.40427400888E+03  0.00000000000E+00 0. -1.
        -12    1    6    6    0    0  0.20687376272E+02 -0.54243380400E+02  0.19653286149E+03  0.20492798125E+03  0.00000000000E+00 0.  1.
</event>
<event>
12    1  0.1348628E-002  0.1737856E+03  0.7818608E-02  0.1173957E+00
          2   -1    0    0  502    0  0.00000000000E+00  0.00000000000E+00  0.10681361364E+03  0.10681361364E+03  0.00000000000E+00 0. -1.
         -2   -1    0    0    0  501 -0.00000000000E+00 -0.00000000000E+00 -0.29797388698E+03  0.29797388698E+03  0.00000000000E+00 0.  1.
          6    2    1    2  502    0 -0.17383082441E+02  0.21440807930E+02 -0.50001947577E+02  0.18114883522E+03  0.17190935385E+03 0.  0.
         24    2    3    3    0    0 -0.39597077348E+02 -0.46220296098E+02 -0.18748587235E+02  0.10323639013E+03  0.81252682522E+02 0.  0.
         -6    2    1    2    0  501  0.17383082441E+02 -0.21440807930E+02 -0.14115832576E+03  0.22363866540E+03  0.17125040125E+03 0.  0.
        -24    2    5    5    0    0  0.46007106267E+02  0.18513547077E+02 -0.14665970151E+03  0.17395928980E+03  0.79330707868E+02 0.  0.
          5    1    3    3  502    0  0.22213994907E+02  0.67661104029E+02 -0.31253360342E+02  0.77912445096E+02  0.47000000000E+01 0. -1.
        -13    1    4    4    0    0 -0.38352762155E+02 -0.27923130924E+02 -0.48781923526E+02  0.68046393500E+02  0.00000000000E+00 0.  1.
         14    1    4    4    0    0 -0.12443151928E+01 -0.18297165175E+02  0.30033336291E+02  0.35189996626E+02  0.00000000000E+00 0. -1.
         -5    1    5    5    0  501 -0.28624023826E+02 -0.39954355007E+02  0.55013757491E+01  0.49679375592E+02  0.47000000000E+01 0.  1.
         11    1    6    6    0    0  0.31858519901E+00  0.34157989299E+02 -0.22937700248E+02  0.41146176276E+02  0.00000000000E+00 0. -1.
        -12    1    6    6    0    0  0.45688521068E+02 -0.15644442222E+02 -0.12372200126E+03  0.13281311353E+03  0.00000000000E+00 0.  1.
</event>
<event>
12    1  0.1348628E-002  0.2397168E+03  0.7818608E-02  0.1119982E+00
          1   -1    0    0  502    0  0.00000000000E+00  0.00000000000E+00  0.18981358270E+03  0.18981358270E+03  0.00000000000E+00 0.  1.
         -1   -1    0    0    0  501 -0.00000000000E+00 -0.00000000000E+00 -0.31366553212E+03  0.31366553212E+03  0.00000000000E+00 0. -1.
          6    2    1    2  502    0  0.16529386113E+03 -0.21056005010E+02 -0.10873282382E+03  0.26260235373E+03  0.17138189326E+03 0.  0.
         24    2    3    3    0    0  0.12095857868E+03 -0.32457312558E+02 -0.52459493053E+01  0.14934499070E+03  0.81190833043E+02 0.  0.
         -6    2    1    2    0  501 -0.16529386113E+03  0.21056005010E+02 -0.15119125606E+02  0.24087676109E+03  0.17328476620E+03 0.  0.
        -24    2    5    5    0    0 -0.48484275391E+02 -0.16758694751E+02 -0.57924070062E+02  0.11076610008E+03  0.79261290827E+02 0.  0.
          5    1    3    3  502    0  0.44335282452E+02  0.11401307548E+02 -0.10348687451E+03  0.11325736303E+03  0.47000000000E+01 0. -1.
        -11    1    4    4    0    0  0.17114757867E+02 -0.33848806177E+02  0.19406496319E+02  0.42605970424E+02  0.00000000000E+00 0.  1.
         12    1    4    4    0    0  0.10384382081E+03  0.13914936189E+01 -0.24652445624E+02  0.10673902028E+03  0.00000000000E+00 0. -1.
         -5    1    5    5    0  501 -0.11680958574E+03  0.37814699761E+02  0.42804944456E+02  0.13011066101E+03  0.47000000000E+01 0.  1.
         11    1    6    6    0    0 -0.77449126675E+01  0.30656079414E+02 -0.23551671284E+02  0.39426641976E+02  0.00000000000E+00 0. -1.
        -12    1    6    6    0    0 -0.40739362723E+02 -0.47414774165E+02 -0.34372398778E+02  0.71339458100E+02  0.00000000000E+00 0.  1.
</event>
<event>
12    1  0.1348628E-002  0.1995850E+03  0.7818608E-02  0.1150090E+00
         -2   -1    0    0    0  501 -0.00000000000E+00  0.00000000000E+00  0.11836004815E+03  0.11836004815E+03  0.00000000000E+00 0.  1.
          2   -1    0    0  502    0  0.00000000000E+00 -0.00000000000E+00 -0.44787290377E+03  0.44787290377E+03  0.00000000000E+00 0. -1.
          6    2    1    2  502    0 -0.22900762951E+02  0.10186708464E+03 -0.30642502160E+03  0.36615473546E+03  0.17108959220E+03 0.  0.
         24    2    3    3    0    0  0.57632126546E+02  0.68542933005E+02 -0.16831872797E+03  0.20277945056E+03  0.69055888318E+02 0.  0.
         -6    2    1    2    0  501  0.22900762951E+02 -0.10186708464E+03 -0.23087834011E+02  0.20007821646E+03  0.16910617004E+03 0.  0.
        -24    2    5    5    0    0 -0.49809325468E+02 -0.57314441454E+02 -0.28419732486E+02  0.11450827948E+03  0.80861305780E+02 0.  0.
          5    1    3    3  502    0 -0.80532889497E+02  0.33324151638E+02 -0.13810629364E+03  0.16337528490E+03  0.47000000000E+01 0. -1.
        -11    1    4    4    0    0  0.31306640239E+02  0.40390027733E+02 -0.30146310651E+02  0.59331779926E+02  0.00000000000E+00 0.  1.
         12    1    4    4    0    0  0.26325486308E+02  0.28152905272E+02 -0.13817241731E+03  0.14344767064E+03  0.00000000000E+00 0. -1.
         -5    1    5    5    0  501  0.72710088419E+02 -0.44552643190E+02  0.53318984746E+01  0.85569936978E+02  0.47000000000E+01 0.  1.
         11    1    6    6    0    0 -0.53796093224E+02 -0.70307301833E+02 -0.65628600346E+01  0.88770532662E+02  0.00000000000E+00 0. -1.
        -12    1    6    6    0    0  0.39867677556E+01  0.12992860380E+02 -0.21856872451E+02  0.25737746819E+02  0.00000000000E+00 0.  1.
</event>
<event>
12    1  0.1348628E-002  0.2640000E+03  0.7818608E-02  0.1104764E+00
          2   -1    0    0  502    0  0.00000000000E+00  0.00000000000E+00  0.53855644936E+03  0.53855644936E+03  0.00000000000E+00 0. -1.
         -2   -1    0    0    0  501 -0.00000000000E+00 -0.00000000000E+00 -0.17234669333E+03  0.17234669333E+03  0.00000000000E+00 0.  1.
          6    2    1    2  502    0  0.20005037091E+03 -0.91441656391E+01  0.36049836408E+03  0.44680814808E+03  0.17197291652E+03 0.  0.
         24    2    3    3    0    0  0.77913894685E+02 -0.25053315965E+02  0.10991928113E+03  0.16755488184E+03  0.96406153537E+02 0.  0.
         -6    2    1    2    0  501 -0.20005037091E+03  0.91441656391E+01  0.57113919524E+01  0.26409499461E+03  0.17207492413E+03 0.  0.
        -24    2    5    5    0    0 -0.16919629995E+03 -0.45703405641E+02  0.31929827988E+02  0.19575959999E+03  0.81154900459E+02 0.  0.
          5    1    3    3  502    0  0.12213647623E+03  0.15909150326E+02  0.25057908295E+03  0.27925326623E+03  0.47000000000E+01 0. -1.
        -11    1    4    4    0    0 -0.59338069360E+01 -0.34833216871E+02  0.99449541927E+01  0.36707835352E+02  0.00000000000E+00 0.  1.
         12    1    4    4    0    0  0.83847701621E+02  0.97799009068E+01  0.99974326938E+02  0.13084704649E+03  0.00000000000E+00 0. -1.
         -5    1    5    5    0  501 -0.30854070964E+02  0.54847571280E+02 -0.26218436036E+02  0.68335394625E+02  0.47000000000E+01 0.  1.
         11    1    6    6    0    0 -0.10531377303E+02  0.13498451510E+02  0.19506976234E+02  0.25954579997E+02  0.00000000000E+00 0. -1.
        -12    1    6    6    0    0 -0.15866492265E+03 -0.59201857151E+02  0.12422851755E+02  0.16980501999E+03  0.00000000000E+00 0.  1.
</event>
<event>
12    1  0.1348628E-002  0.1843190E+03  0.7818608E-02  0.1163687E+00
          1   -1    0    0  502    0  0.00000000000E+00  0.00000000000E+00  0.82440784469E+03  0.82440784469E+03  0.00000000000E+00 0.  1.
         -1   -1    0    0    0  501 -0.00000000000E+00 -0.00000000000E+00 -0.42266842732E+02  0.42266842732E+02  0.00000000000E+00 0. -1.
          6    2    1    2  502    0 -0.45631085119E+02  0.42673979512E+02  0.32479001834E+03  0.37397594936E+03  0.17454566803E+03 0.  0.
         24    2    3    3    0    0 -0.79061795625E+02  0.52706594706E+02  0.31279639302E+03  0.33677107305E+03  0.80897586534E+02 0.  0.
         -6    2    1    2    0  501  0.45631085119E+02 -0.42673979512E+02  0.45735098362E+03  0.49269873807E+03  0.17227553459E+03 0.  0.
        -24    2    5    5    0    0  0.85862642124E+02 -0.68513000747E+02  0.33916427172E+03  0.36511965645E+03  0.78825983841E+02 0.  0.
          5    1    3    3  502    0  0.33430710505E+02 -0.10032615194E+02  0.11993625323E+02  0.37204876306E+02  0.47000000000E+01 0. -1.
        -13    1    4    4    0    0  0.87150636387E+01 -0.12631889856E+02  0.40525156972E+02  0.43333651163E+02  0.00000000000E+00 0.  1.
         14    1    4    4    0    0 -0.87776859263E+02  0.65338484561E+02  0.27227123604E+03  0.29343742189E+03  0.00000000000E+00 0. -1.
         -5    1    5    5    0  501 -0.40231557004E+02  0.25839021235E+02  0.11818671190E+03  0.12757908162E+03  0.47000000000E+01 0.  1.
         13    1    6    6    0    0  0.36525402250E+02 -0.59803361581E+02  0.10912067625E+03  0.12968372701E+03  0.00000000000E+00 0. -1.
        -14    1    6    6    0    0  0.49337239874E+02 -0.87096391658E+01  0.23004359547E+03  0.23543592944E+03  0.00000000000E+00 0.  1.
</event>
<event>
12    1  0.1348628E-002  0.3135108E+03  0.7818608E-02  0.1078675E+00
         -1   -1    0    0    0  501 -0.00000000000E+00  0.00000000000E+00  0.42256666899E+02  0.42256666899E+02  0.00000000000E+00 0. -1.
          1   -1    0    0  502    0  0.00000000000E+00 -0.00000000000E+00 -0.24098912656E+04  0.24098912656E+04  0.00000000000E+00 0.  1.
          6    2    1    2  502    0 -0.20533703627E+03 -0.16311457311E+03 -0.95511706868E+03  0.10052598570E+04  0.17184034121E+03 0.  0.
         24    2    3    3    0    0 -0.76759984967E+02 -0.14684286280E+03 -0.54575249673E+03  0.57584366097E+03  0.79342375493E+02 0.  0.
         -6    2    1    2    0  501  0.20533703627E+03  0.16311457311E+03 -0.14125175300E+04  0.14468880755E+04  0.17178378231E+03 0.  0.
        -24    2    5    5    0    0  0.15785023103E+03  0.15572631091E+03 -0.13342092600E+04  0.13548888459E+04  0.80262418706E+02 0.  0.
          5    1    3    3  502    0 -0.12857705130E+03 -0.16271710317E+02 -0.40936457195E+03  0.42941619607E+03  0.47000000000E+01 0. -1.
        -11    1    4    4    0    0 -0.72556118306E+01 -0.75638582979E+02 -0.32398409000E+03  0.33277549446E+03  0.00000000000E+00 0.  1.
         12    1    4    4    0    0 -0.69504373136E+02 -0.71204279818E+02 -0.22176840672E+03  0.24306816651E+03  0.00000000000E+00 0. -1.
         -5    1    5    5    0  501  0.47486805236E+02  0.73882621987E+01 -0.78308269993E+02  0.91999229557E+02  0.47000000000E+01 0.  1.
         11    1    6    6    0    0  0.13970381554E+02  0.19788757224E+02 -0.50505482555E+02  0.56014018258E+02  0.00000000000E+00 0. -1.
        -12    1    6    6    0    0  0.14387984948E+03  0.13593755369E+03 -0.12837037775E+04  0.12988748276E+04  0.00000000000E+00 0.  1.
</event>
<event>
12    1  0.1348628E-002  0.1749294E+03  0.7818608E-02  0.1172803E+00
          2   -1    0    0  502    0  0.00000000000E+00  0.00000000000E+00  0.40675169583E+03  0.40675169583E+03  0.00000000000E+00 0. -1.
         -2   -1    0    0    0  501 -0.00000000000E+00 -0.00000000000E+00 -0.80858926902E+02  0.80858926902E+02  0.00000000000E+00 0.  1.
          6    2    1    2  502    0  0.20184633196E+02  0.98589469781E+01  0.22860473807E+03  0.28882580677E+03  0.17508741285E+03 0.  0.
         24    2    3    3    0    0 -0.28094172659E+02  0.78306546885E+01  0.41500674204E+02  0.95525579720E+02  0.80945838257E+02 0.  0.
         -6    2    1    2    0  501 -0.20184633196E+02 -0.98589469781E+01  0.97288030863E+02  0.19878481596E+03  0.17188898701E+03 0.  0.
        -24    2    5    5    0    0  0.54401516595E+02  0.40052469807E+01  0.50901474404E+02  0.10973925327E+03  0.80474695409E+02 0.  0.
          5    1    3    3  502    0  0.48278805855E+02  0.20282922896E+01  0.18710406386E+03  0.19330022705E+03  0.47000000000E+01 0. -1.
        -11    1    4    4    0    0 -0.11318917619E+02 -0.23316518367E+02 -0.14189560750E+02  0.29548630410E+02  0.00000000000E+00 0.  1.
         12    1    4    4    0    0 -0.16775255040E+02  0.31147173055E+02  0.55690234954E+02  0.65976949310E+02  0.00000000000E+00 0. -1.
         -5    1    5    5    0  501 -0.74586149790E+02 -0.13864193959E+02  0.46386556459E+02  0.89045562690E+02  0.47000000000E+01 0.  1.
         13    1    6    6    0    0  0.56836157836E+02 -0.16273864674E+02  0.47985127901E+01  0.59314528018E+02  0.00000000000E+00 0. -1.
        -14    1    6    6    0    0 -0.24346412412E+01  0.20279111655E+02  0.46102961614E+02  0.50424725255E+02  0.00000000000E+00 0.  1.
</event>
<event>
12    1  0.1348628E-002  0.2269958E+03  0.7818608E-02  0.1128772E+00
          1   -1    0    0  502    0  0.00000000000E+00  0.00000000000E+00  0.19396382902E+04  0.19396382902E+04  0.00000000000E+00 0. -1.
         -1   -1    0    0    0  501 -0.00000000000E+00 -0.00000000000E+00 -0.66112073442E+02  0.66112073442E+02  0.00000000000E+00 0.  1.
          6    2    1    2  502    0  0.31622726212E+00  0.14839621014E+03  0.16099358540E+03  0.27822909213E+03  0.17167107498E+03 0.  0.
         24    2    3    3    0    0 -0.43199443873E+02  0.15387248700E+03  0.14882674155E+03  0.23247184864E+03  0.79692077415E+02 0.  0.
         -6    2    1    2    0  501 -0.31622726212E+00 -0.14839621014E+03  0.17125326313E+04  0.17275212715E+04  0.17187261235E+03 0.  0.
        -24    2    5    5    0    0  0.57520059115E+02 -0.12253776815E+03  0.13837089649E+04  0.13926171230E+04  0.80049297320E+02 0.  0.
          5    1    3    3  502    0  0.43515671135E+02 -0.54762768598E+01  0.12166843850E+02  0.45757243490E+02  0.47000000000E+01 0. -1.
        -13    1    4    4    0    0 -0.75879897977E+00  0.12961605748E+03  0.11126591800E+03  0.17082447905E+03  0.00000000000E+00 0.  1.
         14    1    4    4    0    0 -0.42440644893E+02  0.24256429517E+02  0.37560823543E+02  0.61647369588E+02  0.00000000000E+00 0. -1.
         -5    1    5    5    0  501 -0.57836286377E+02 -0.25858441992E+02  0.32882366641E+03  0.33490414843E+03  0.47000000000E+01 0.  1.
         13    1    6    6    0    0  0.72184679716E+02 -0.65197316305E+02  0.92695796458E+03  0.93204741625E+03  0.00000000000E+00 0. -1.
        -14    1    6    6    0    0 -0.14664620601E+02 -0.57340451841E+02  0.45675100033E+03  0.46056970679E+03  0.00000000000E+00 0.  1.
</event>
<event>
12    1  0.1348628E-002  0.2055946E+03  0.7818608E-02  0.1145103E+00
         -1   -1    0    0    0  501 -0.00000000000E+00  0.00000000000E+00  0.42874592457E+02  0.42874592457E+02  0.00000000000E+00 0. -1.
          1   -1    0    0  502    0  0.00000000000E+00 -0.00000000000E+00 -0.99737036902E+03  0.99737036902E+03  0.00000000000E+00 0.  1.
          6    2    1    2  502    0  0.57672776019E+02  0.99812807916E+02 -0.42393597286E+03  0.47162767490E+03  0.17152903233E+03 0.  0.
         24    2    3    3    0    0  0.12694875642E+02 -0.90120901927E+01 -0.12962759068E+03  0.15460183401E+03  0.82801190674E+02 0.  0.
         -6    2    1    2    0  501 -0.57672776019E+02 -0.99812807916E+02 -0.53055980370E+03  0.56861728657E+03  0.16894723309E+03 0.  0.
        -24    2    5    5    0    0 -0.40000459391E+02  0.10533292496E+02 -0.28928582613E+03  0.30267782936E+03  0.78845368813E+02 0.  0.
          5    1    3    3  502    0  0.44977900376E+02  0.10882489811E+03 -0.29430838218E+03  0.31702584089E+03  0.47000000000E+01 0. -1.
        -13    1    4    4    0    0 -0.27147738565E+02  0.20950008466E+02 -0.48991438309E+02  0.59800197253E+02  0.00000000000E+00 0.  1.
         14    1    4    4    0    0  0.39842614207E+02 -0.29962098659E+02 -0.80636152370E+02  0.94801636757E+02  0.00000000000E+00 0. -1.
         -5    1    5    5    0  501 -0.17672316628E+02 -0.11034610041E+03 -0.24127397757E+03  0.26593945721E+03  0.47000000000E+01 0.  1.
         11    1    6    6    0    0  0.48992266893E+01 -0.16012611676E+02 -0.12182099778E+02  0.20707721020E+02  0.00000000000E+00 0. -1.
        -12    1    6    6    0    0 -0.44899686080E+02  0.26545904171E+02 -0.27710372636E+03  0.28197010834E+03  0.00000000000E+00 0.  1.
</event>
<event>
12    1  0.1348628E-002  0.2587969E+03  0.7818608E-02  0.1107868E+00
         -2   -1    0    0    0  501 -0.00000000000E+00  0.00000000000E+00  0.55708668068E+03  0.55708668068E+03  0.00000000000E+00 0. -1.
          2   -1    0    0  502    0  0.00000000000E+00 -0.00000000000E+00 -0.14847803555E+03  0.14847803555E+03  0.00000000000E+00 0.  1.
          6    2    1    2  502    0 -0.92852267176E+02 -0.16969927800E+03  0.35802587126E+03  0.44161461431E+03  0.17152712499E+03 0.  0.
         24    2    3    3    0    0 -0.12296962683E+03 -0.11621608855E+03  0.20803703916E+03  0.27948427581E+03  0.78767648207E+02 0.  0.
         -6    2    1    2    0  501  0.92852267176E+02  0.16969927800E+03  0.50582773870E+02  0.26395010191E+03  0.17231265425E+03 0.  0.
        -24    2    5    5    0    0  0.79541475134E+02  0.32410170260E+02  0.46438802431E+02  0.12587498182E+03  0.79439809125E+02 0.  0.
          5    1    3    3  502    0  0.30117359652E+02 -0.53483189448E+02  0.14998883211E+03  0.16213033850E+03  0.47000000000E+01 0. -1.
        -11    1    4    4    0    0 -0.15105849408E+02 -0.53354266356E+02  0.10017363040E+03  0.11449725172E+03  0.00000000000E+00 0.  1.
         12    1    4    4    0    0 -0.10786377742E+03 -0.62861822198E+02  0.10786340876E+03  0.16498702409E+03  0.00000000000E+00 0. -1.
         -5    1    5    5    0  501  0.13310792042E+02  0.13728910774E+03  0.41439714393E+01  0.13807512009E+03  0.47000000000E+01 0.  1.
         13    1    6    6    0    0  0.17228640986E+01  0.34888848791E+02  0.30563851633E+02  0.46414965876E+02  0.00000000000E+00 0. -1.
        -14    1    6    6    0    0  0.77818611036E+02 -0.24786785311E+01  0.15874950798E+02  0.79460015943E+02  0.00000000000E+00 0.  1.
</event>
<event>
12    1  0.1348628E-002  0.3170252E+03  0.7818608E-02  0.1077027E+00
          2   -1    0    0  502    0  0.00000000000E+00  0.00000000000E+00  0.76267362764E+03  0.76267362764E+03  0.00000000000E+00 0.  1.
         -2   -1    0    0    0  501 -0.00000000000E+00 -0.00000000000E+00 -0.17970591602E+03  0.17970591602E+03  0.00000000000E+00 0. -1.
          6    2    1    2  502    0  0.19263898999E+03 -0.18348404422E+03  0.53475199748E+03  0.62161389690E+03  0.17224390576E+03 0.  0.
         24    2    3    3    0    0  0.21566395474E+03 -0.17525050302E+03  0.46170683616E+03  0.54444119580E+03  0.77584360207E+02 0.  0.
         -6    2    1    2    0  501 -0.19263898999E+03  0.18348404422E+03  0.48215714147E+02  0.32076564676E+03  0.17259684268E+03 0.  0.
        -24    2    5    5    0    0 -0.17976261436E+03  0.14147909234E+03 -0.15948129167E+02  0.24285989716E+03  0.79972843724E+02 0.  0.
          5    1    3    3  502    0 -0.23024964758E+02 -0.82335412034E+01  0.73045161320E+02  0.77172701100E+02  0.47000000000E+01 0. -1.
        -13    1    4    4    0    0  0.62797190834E+02 -0.18466018562E+02  0.14842436680E+03  0.16221674907E+03  0.00000000000E+00 0.  1.
         14    1    4    4    0    0  0.15286676391E+03 -0.15678448446E+03  0.31328246935E+03  0.38222444673E+03  0.00000000000E+00 0. -1.
         -5    1    5    5    0  501 -0.12876375625E+02  0.42004951887E+02  0.64163843313E+02  0.77905749602E+02  0.47000000000E+01 0.  1.
         13    1    6    6    0    0 -0.10095830901E+03  0.87839843245E+02 -0.48179562947E+02  0.14223110948E+03  0.00000000000E+00 0. -1.
        -14    1    6    6    0    0 -0.78804305355E+02  0.53639249092E+02  0.32231433780E+02  0.10062878768E+03  0.00000000000E+00 0.  1.
</event>
<event>
12    1  0.1348628E-002  0.3805585E+03  0.7818608E-02  0.1050728E+00
         -2   -1    0    0    0  501 -0.00000000000E+00  0.00000000000E+00  0.10158721498E+03  0.10158721498E+03  0.00000000000E+00 0.  1.
          2   -1    0    0  502    0  0.00000000000E+00 -0.00000000000E+00 -0.15036013739E+04  0.15036013739E+04  0.00000000000E+00 0. -1.
          6    2    1    2  502    0  0.33632689445E+03 -0.49939494638E+02 -0.51931692047E+03  0.64419542296E+03  0.17230190372E+03 0.  0.
         24    2    3    3    0    0  0.31911981211E+03 -0.38615215235E+01 -0.42246024142E+03  0.53546378283E+03  0.79977755129E+02 0.  0.
         -6    2    1    2    0  501 -0.33632689445E+03  0.49939494638E+02 -0.88269723848E+03  0.96099316594E+03  0.16953972133E+03 0.  0.
        -24    2    5    5    0    0 -0.15490723940E+03  0.86573976888E+02 -0.42713612230E+03  0.46924811298E+03  0.79102580715E+02 0.  0.
          5    1    3    3  502    0  0.17207082342E+02 -0.46077973115E+02 -0.96856679047E+02  0.10873164013E+03  0.47000000000E+01 0. -1.
        -13    1    4    4    0    0  0.28570843315E+03 -0.24862244852E+02 -0.34586000988E+03  0.44929565592E+03  0.00000000000E+00 0.  1.
         14    1    4    4    0    0  0.33411378962E+02  0.21000723328E+02 -0.76600231537E+02  0.86168126914E+02  0.00000000000E+00 0. -1.
         -5    1    5    5    0  501 -0.18141965505E+03 -0.36634482249E+02 -0.45556111618E+03  0.49174505296E+03  0.47000000000E+01 0.  1.
         11    1    6    6    0    0 -0.13559549779E+03  0.39014235689E+02 -0.28255452789E+03  0.31582481036E+03  0.00000000000E+00 0. -1.
        -12    1    6    6    0    0 -0.19311741609E+02  0.47559741199E+02 -0.14458159441E+03  0.15342330262E+03  0.00000000000E+00 0.  1.
</event>
<event>
12    1  0.1348628E-002  0.1732041E+03  0.7818608E-02  0.1174547E+00
         -2   -1    0    0    0  501 -0.00000000000E+00  0.00000000000E+00  0.36189436832E+02  0.36189436832E+02  0.00000000000E+00 0. -1.
          2   -1    0    0  502    0  0.00000000000E+00 -0.00000000000E+00 -0.90100094785E+03  0.90100094785E+03  0.00000000000E+00 0.  1.
          6    2    1    2  502    0 -0.27235773928E+02 -0.18409500363E+01 -0.29948144986E+03  0.34586832368E+03  0.17085251545E+03 0.  0.
         24    2    3    3    0    0  0.23597143602E+02 -0.33448220409E+02 -0.84527887800E+02  0.12268649447E+03  0.78939239136E+02 0.  0.
         -6    2    1    2    0  501  0.27235773928E+02  0.18409500363E+01 -0.56533006116E+03  0.59132206100E+03  0.17122653212E+03 0.  0.
        -24    2    5    5    0    0 -0.17032472869E+01  0.36262320672E+02 -0.51802835706E+03  0.52588629926E+03  0.82976888775E+02 0.  0.
          5    1    3    3  502    0 -0.50832917530E+02  0.31607270373E+02 -0.21495356206E+03  0.22318182921E+03  0.47000000000E+01 0. -1.
        -11    1    4    4    0    0  0.20043378852E+02 -0.32316576493E+02 -0.99887115715E+02  0.10688093393E+03  0.00000000000E+00 0.  1.
         12    1    4    4    0    0  0.35537647499E+01 -0.11316439163E+01  0.15359227916E+02  0.15805560541E+02  0.00000000000E+00 0. -1.
         -5    1    5    5    0  501  0.28939021215E+02 -0.34421370636E+02 -0.47301704091E+02  0.65435761746E+02  0.47000000000E+01 0.  1.
         11    1    6    6    0    0  0.20474735330E+02 -0.14717571587E+01 -0.32840775597E+02  0.38728508850E+02  0.00000000000E+00 0. -1.
        -12    1    6    6    0    0 -0.22177982617E+02  0.37734077831E+02 -0.48518758147E+03  0.48715779041E+03  0.00000000000E+00 0.  1.
</event>
<event>
12    1  0.1348628E-002  0.2101066E+03  0.7818608E-02  0.1141482E+00
         -2   -1    0    0    0  501 -0.00000000000E+00  0.00000000000E+00  0.20164581176E+02  0.20164581176E+02  0.00000000000E+00 0. -1.
          2   -1    0    0  502    0  0.00000000000E+00 -0.00000000000E+00 -0.22129703127E+04  0.22129703127E+04  0.00000000000E+00 0.  1.
          6    2    1    2  502    0  0.11915793826E+03  0.28174998378E+02 -0.98649364335E+03  0.10088476594E+04  0.17207976847E+03 0.  0.
         24    2    3    3    0    0 -0.13629820147E+01  0.41315375870E+02 -0.40866751371E+03  0.41842146770E+03  0.79740641260E+02 0.  0.
         -6    2    1    2    0  501 -0.11915793826E+03 -0.28174998378E+02 -0.12063120882E+04  0.12242872345E+04  0.16940464473E+03 0.  0.
        -24    2    5    5    0    0 -0.36872139384E+02 -0.48563601415E+02 -0.39173690299E+03  0.40529915756E+03  0.84211803834E+02 0.  0.
          5    1    3    3  502    0  0.12052092027E+03 -0.13140377492E+02 -0.57782612964E+03  0.59042619170E+03  0.47000000000E+01 0. -1.
        -13    1    4    4    0    0 -0.39296454518E+02  0.19131953305E+02 -0.15811222940E+03  0.16404182412E+03  0.00000000000E+00 0.  1.
         14    1    4    4    0    0  0.37933472503E+02  0.22183422565E+02 -0.25055528431E+03  0.25437964358E+03  0.00000000000E+00 0. -1.
         -5    1    5    5    0  501 -0.82285798872E+02  0.20388603037E+02 -0.81457518523E+03  0.81898807697E+03  0.47000000000E+01 0.  1.
         11    1    6    6    0    0 -0.54600359069E+02 -0.24031484695E+02 -0.14617887653E+03  0.15788279010E+03  0.00000000000E+00 0. -1.
        -12    1    6    6    0    0  0.17728219684E+02 -0.24532116720E+02 -0.24555802647E+03  0.24741636746E+03  0.00000000000E+00 0.  1.
</event>
<event>
12    1  0.1348628E-002  0.2116569E+03  0.7818608E-02  0.1140261E+00
         -2   -1    0    0    0  501 -0.00000000000E+00  0.00000000000E+00  0.28991176494E+02  0.28991176494E+02  0.00000000000E+00 0.  1.
          2   -1    0    0  502    0  0.00000000000E+00 -0.00000000000E+00 -0.18139214531E+04  0.18139214531E+04  0.00000000000E+00 0. -1.
          6    2    1    2  502    0 -0.10877732303E+03 -0.33870449223E+02 -0.53233738043E+03  0.57230348131E+03  0.17654595656E+03 0.  0.
         24    2    3    3    0    0 -0.10211402249E+03 -0.75563764751E+02 -0.49109088308E+03  0.51309118801E+03  0.77169654906E+02 0.  0.
         -6    2    1    2    0  501  0.10877732303E+03  0.33870449223E+02 -0.12525928962E+04  0.12706091483E+04  0.18021911891E+03 0.  0.
        -24    2    5    5    0    0  0.11608258646E+03  0.89296896591E+01 -0.12220795617E+04  0.12302537032E+04  0.80565582347E+02 0.  0.
          5    1    3    3  502    0 -0.66633005342E+01  0.41693315527E+02 -0.41246497345E+02  0.59212293292E+02  0.47000000000E+01 0. -1.
        -11    1    4    4    0    0  0.10245052361E+02 -0.92806515910E+00 -0.14494398596E+02  0.17773857023E+02  0.00000000000E+00 0.  1.
         12    1    4    4    0    0 -0.11235907485E+03 -0.74635699592E+02 -0.47659648449E+03  0.49531733099E+03  0.00000000000E+00 0. -1.
         -5    1    5    5    0  501 -0.73052634383E+01  0.24940759564E+02 -0.30513334496E+02  0.40355445031E+02  0.47000000000E+01 0.  1.
         11    1    6    6    0    0 -0.67050120665E+01  0.86343664182E+01 -0.27902765422E+03  0.27924172555E+03  0.00000000000E+00 0. -1.
        -12    1    6    6    0    0  0.12278759853E+03  0.29532324093E+00 -0.94305190744E+03  0.95101197768E+03  0.00000000000E+00 0.  1.
</event>
<event>
12    1  0.1348628E-002  0.1746119E+03  0.7818608E-02  0.1173122E+00
          2   -1    0    0  502    0  0.00000000000E+00  0.00000000000E+00  0.38811797205E+03  0.38811797205E+03  0.00000000000E+00 0. -1.
         -2   -1    0    0    0  501 -0.00000000000E+00 -0.00000000000E+00 -0.90174746889E+02  0.90174746889E+02  0.00000000000E+00 0.  1.
          6    2    1    2  502    0 -0.30930377731E+02  0.15912557839E+01  0.23496860836E+03  0.29287191514E+03  0.17205955771E+03 0.  0.
         24    2    3    3    0    0 -0.23228875966E+01  0.39024956452E+02  0.54619513265E+02  0.10641131196E+03  0.82533223916E+02 0.  0.
         -6    2    1    2    0  501  0.30930377731E+02 -0.15912557839E+01  0.62974616801E+02  0.18542080380E+03  0.17162707176E+03 0.  0.
        -24    2    5    5    0    0  0.27160425870E+01  0.63661133833E+02  0.40022944916E+02  0.11056900155E+03  0.81015746218E+02 0.  0.
          5    1    3    3  502    0 -0.28607490134E+02 -0.37433700668E+02  0.18034909510E+03  0.18646060318E+03  0.47000000000E+01 0. -1.
        -11    1    4    4    0    0 -0.80347054990E+01  0.45270416166E+02  0.72944840957E+02  0.86225964156E+02  0.00000000000E+00 0.  1.
         12    1    4    4    0    0  0.57118179024E+01 -0.62454597139E+01 -0.18325327692E+02  0.20185347800E+02  0.00000000000E+00 0. -1.
         -5    1    5    5    0  501  0.28214335144E+02 -0.65252389617E+02  0.22951671885E+02  0.74851802253E+02  0.47000000000E+01 0.  1.
         13    1    6    6    0    0  0.13534586307E+02  0.63357269119E+02  0.59708381398E+02  0.88104593444E+02  0.00000000000E+00 0. -1.
        -14    1    6    6    0    0 -0.10818543720E+02  0.30386471321E+00 -0.19685436482E+02  0.22464408104E+02  0.00000000000E+00 0.  1.
</event>
<event>
12    1  0.1348628E-002  0.3651520E+03  0.7818608E-02  0.1056562E+00
          1   -1    0    0  502    0  0.00000000000E+00  0.00000000000E+00  0.11072269598E+04  0.11072269598E+04  0.00000000000E+00 0. -1.
         -1   -1    0    0    0  501 -0.00000000000E+00 -0.00000000000E+00 -0.12747735008E+03  0.12747735008E+03  0.00000000000E+00 0.  1.
          6    2    1    2  502    0 -0.20983523149E+03 -0.24452394563E+03  0.34434465908E+03  0.50172888407E+03  0.17127709861E+03 0.  0.
         24    2    3    3    0    0 -0.11336569039E+03 -0.22786535454E+03  0.25574982358E+03  0.36961145186E+03  0.80188861614E+02 0.  0.
         -6    2    1    2    0  501  0.20983523149E+03  0.24452394563E+03  0.63540495068E+03  0.73297542585E+03  0.17231000898E+03 0.  0.
        -24    2    5    5    0    0  0.55069747598E+02  0.33532106772E+02  0.15781426213E+03  0.18837936742E+03  0.80152139417E+02 0.  0.
          5    1    3    3  502    0 -0.96469541096E+02 -0.16658591096E+02  0.88594835507E+02  0.13211743222E+03  0.47000000000E+01 0. -1.
        -13    1    4    4    0    0 -0.99925163466E+02 -0.15914075166E+03  0.14001179958E+03  0.23433762215E+03  0.00000000000E+00 0.  1.
         14    1    4    4    0    0 -0.13440526928E+02 -0.68724602874E+02  0.11573802400E+03  0.13527382971E+03  0.00000000000E+00 0. -1.
         -5    1    5    5    0  501  0.15476548389E+03  0.21099183886E+03  0.47759068855E+03  0.54459605843E+03  0.47000000000E+01 0.  1.
         13    1    6    6    0    0  0.46043559103E+02  0.54457962754E+02  0.14650094474E+03  0.16293620178E+03  0.00000000000E+00 0. -1.
        -14    1    6    6    0    0  0.90261884945E+01 -0.20925855982E+02  0.11313317394E+02  0.25443165640E+02  0.00000000000E+00 0.  1.
</event>
<event>
12    1  0.1348628E-002  0.4052803E+03  0.7818608E-02  0.1041966E+00
         -1   -1    0    0    0  501 -0.00000000000E+00  0.00000000000E+00  0.14933838092E+03  0.14933838092E+03  0.00000000000E+00 0. -1.
          1   -1    0    0  502    0  0.00000000000E+00 -0.00000000000E+00 -0.11514772303E+04  0.11514772303E+04  0.00000000000E+00 0.  1.
          6    2    1    2  502    0 -0.36228613731E+03 -0.60132422887E+02 -0.63887047442E+03  0.75662241188E+03  0.17162411689E+03 0.  0.
         24    2    3    3    0    0 -0.26444781574E+03  0.22582999334E+02 -0.44198932367E+03  0.52167889576E+03  0.79697358434E+02 0.  0.
         -6    2    1    2    0  501  0.36228613731E+03  0.60132422887E+02 -0.36326837494E+03  0.54419319932E+03  0.17121674096E+03 0.  0.
        -24    2    5    5    0    0  0.13341818570E+03 -0.30359270634E+02 -0.12230655693E+03  0.19973133843E+03  0.78813806487E+02 0.  0.
          5    1    3    3  502    0 -0.97838321564E+02 -0.82715422220E+02 -0.19688115076E+03  0.23494351611E+03  0.47000000000E+01 0. -1.
        -11    1    4    4    0    0 -0.66856740640E+02 -0.27721500031E+02 -0.13437752603E+03  0.15262904322E+03  0.00000000000E+00 0.  1.
         12    1    4    4    0    0 -0.19759107510E+03  0.50304499365E+02 -0.30761179763E+03  0.36904985254E+03  0.00000000000E+00 0. -1.
         -5    1    5    5    0  501  0.22886795161E+03  0.90491693521E+02 -0.24096181801E+03  0.34446186089E+03  0.47000000000E+01 0.  1.
         11    1    6    6    0    0  0.10987477216E+03 -0.11234855994E+02 -0.49838834407E+02  0.12117176635E+03  0.00000000000E+00 0. -1.
        -12    1    6    6    0    0  0.23543413540E+02 -0.19124414641E+02 -0.72467722526E+02  0.78559572075E+02  0.00000000000E+00 0.  1.
</event>
<event>
12    1  0.1348628E-002  0.1953308E+03  0.7818608E-02  0.1153739E+00
         -2   -1    0    0    0  501 -0.00000000000E+00  0.00000000000E+00  0.29321184456E+02  0.29321184456E+02  0.00000000000E+00 0. -1.
          2   -1    0    0  502    0  0.00000000000E+00 -0.00000000000E+00 -0.13841900712E+04  0.13841900712E+04  0.00000000000E+00 0.  1.
          6    2    1    2  502    0  0.66577115970E+02 -0.36159768681E+02 -0.48259114542E+03  0.51797278354E+03  0.17222528738E+03 0.  0.
         24    2    3    3    0    0 -0.18396426419E+02 -0.44819439311E+02 -0.33115977160E+03  0.34405026119E+03  0.79728145972E+02 0.  0.
         -6    2    1    2    0  501 -0.66577115970E+02  0.36159768681E+02 -0.87227774129E+03  0.89553847208E+03  0.18809746351E+03 0.  0.
        -24    2    5    5    0    0 -0.81037553459E+02 -0.25261027689E+02 -0.34031905914E+03  0.35982983112E+03  0.80344512953E+02 0.  0.
          5    1    3    3  502    0  0.84973542389E+02  0.86596706299E+01 -0.15143137382E+03  0.17392252235E+03  0.47000000000E+01 0. -1.
        -13    1    4    4    0    0  0.24969030990E+02 -0.42903545538E+02 -0.16415715069E+03  0.17149850393E+03  0.00000000000E+00 0.  1.
         14    1    4    4    0    0 -0.43365457409E+02 -0.19158937729E+01 -0.16700262090E+03  0.17255175726E+03  0.00000000000E+00 0. -1.
         -5    1    5    5    0  501  0.14460437489E+02  0.61420796370E+02 -0.53195868215E+03  0.53570864096E+03  0.47000000000E+01 0.  1.
         13    1    6    6    0    0 -0.25265339035E+02 -0.33545398710E+02 -0.56130339706E+02  0.70101684478E+02  0.00000000000E+00 0. -1.
        -14    1    6    6    0    0 -0.55772214424E+02  0.82843710208E+01 -0.28418871943E+03  0.28972814664E+03  0.00000000000E+00 0.  1.
</event>
<event>
12    1  0.1348628E-002  0.1747057E+03  0.7818608E-02  0.1173027E+00
         -1   -1    0    0    0  501 -0.00000000000E+00  0.00000000000E+00  0.32484315625E+03  0.32484315625E+03  0.00000000000E+00 0. -1.
          1   -1    0    0  502    0  0.00000000000E+00 -0.00000000000E+00 -0.11685661795E+03  0.11685661795E+03  0.00000000000E+00 0.  1.
          6    2    1    2  502    0 -0.32108064861E+02  0.91334989415E+01  0.62931850410E+01  0.17494389446E+03  0.17161414102E+03 0.  0.
         24    2    3    3    0    0 -0.19947941048E+02  0.20267336730E+02 -0.61769780451E+02  0.10475494784E+03  0.79683172820E+02 0.  0.
         -6    2    1    2    0  501  0.32108064861E+02 -0.91334989415E+01  0.20169335325E+03  0.26675587975E+03  0.17135968604E+03 0.  0.
        -24    2    5    5    0    0 -0.25929679073E+01  0.42891653115E+02  0.50247073696E+02  0.10283869421E+03  0.78769354593E+02 0.  0.
          5    1    3    3  502    0 -0.12160123812E+02 -0.11133837789E+02  0.68062965492E+02  0.70188946613E+02  0.47000000000E+01 0. -1.
        -11    1    4    4    0    0 -0.12609058717E+02  0.50109751987E+02 -0.26827056172E+02  0.58220842907E+02  0.00000000000E+00 0.  1.
         12    1    4    4    0    0 -0.73388823313E+01 -0.29842415257E+02 -0.34942724279E+02  0.46534104937E+02  0.00000000000E+00 0. -1.
         -5    1    5    5    0  501  0.34701032768E+02 -0.52025152057E+02  0.15144627956E+03  0.16391718554E+03  0.47000000000E+01 0.  1.
         11    1    6    6    0    0  0.22149604712E+01 -0.69055509606E+01  0.52268403959E+02  0.52769107785E+02  0.00000000000E+00 0. -1.
        -12    1    6    6    0    0 -0.48079283785E+01  0.49797204076E+02 -0.20213302632E+01  0.50069586428E+02  0.00000000000E+00 0.  1.
</event>
<event>
12    1  0.1348628E-002  0.1775241E+03  0.7818608E-02  0.1170221E+00
          3   -1    0    0  502    0  0.00000000000E+00  0.00000000000E+00  0.37006904907E+03  0.37006904907E+03  0.00000000000E+00 0.  1.
         -3   -1    0    0    0  501 -0.00000000000E+00 -0.00000000000E+00 -0.91492680304E+02  0.91492680304E+02  0.00000000000E+00 0. -1.
          6    2    1    2  502    0  0.46197673841E+02 -0.60852484041E+01  0.19952828494E+03  0.26664037731E+03  0.17062912706E+03 0.  0.
         24    2    3    3    0    0  0.16145992240E+02 -0.46402089743E+02  0.19409134594E+03  0.21584469276E+03  0.80645110381E+02 0.  0.
         -6    2    1    2    0  501 -0.46197673841E+02  0.60852484041E+01  0.79048083822E+02  0.19492135207E+03  0.17197231934E+03 0.  0.
        -24    2    5    5    0    0 -0.18559356886E+02  0.79112511554E+02  0.37859379987E+02  0.10651627839E+03  0.57525174468E+02 0.  0.
          5    1    3    3  502    0  0.30051681601E+02  0.40316841339E+02  0.54369390070E+01  0.50795684544E+02  0.47000000000E+01 0. -1.
        -11    1    4    4    0    0  0.14617857592E+02 -0.65100888190E+02  0.10215874355E+03  0.12201727864E+03  0.00000000000E+00 0.  1.
         12    1    4    4    0    0  0.15281346483E+01  0.18698798447E+02  0.91932602386E+02  0.93827414119E+02  0.00000000000E+00 0. -1.
         -5    1    5    5    0  501 -0.27638316955E+02 -0.73027263150E+02  0.41188703835E+02  0.88405073672E+02  0.47000000000E+01 0.  1.
         11    1    6    6    0    0  0.20446222835E+02  0.27099303424E+02  0.18603955880E+02  0.38710818238E+02  0.00000000000E+00 0. -1.
        -12    1    6    6    0    0 -0.39005579722E+02  0.52013208131E+02  0.19255424107E+02  0.67805460156E+02  0.00000000000E+00 0.  1.
</event>
<event>
12    1  0.1348628E-002  0.1793886E+03  0.7818608E-02  0.1168396E+00
          2   -1    0    0  502    0  0.00000000000E+00  0.00000000000E+00  0.33975247524E+03  0.33975247524E+03  0.00000000000E+00 0. -1.
         -2   -1    0    0    0  501 -0.00000000000E+00 -0.00000000000E+00 -0.13706664598E+03  0.13706664598E+03  0.00000000000E+00 0.  1.
          6    2    1    2  502    0  0.33386876987E+02  0.39198235290E+02  0.23347004304E+03  0.29382687697E+03  0.17080628627E+03 0.  0.
         24    2    3    3    0    0  0.71558201884E+02  0.34339940218E+02  0.87177469990E+02  0.14248534267E+03  0.80014710211E+02 0.  0.
         -6    2    1    2    0  501 -0.33386876987E+02 -0.39198235290E+02 -0.30784213774E+02  0.18299224425E+03  0.17287946215E+03 0.  0.
        -24    2    5    5    0    0 -0.48390800002E+02 -0.55286278801E+02  0.34405118133E+02  0.11403079238E+03  0.80131562495E+02 0.  0.
          5    1    3    3  502    0 -0.38171324897E+02  0.48582950713E+01  0.14629257305E+03  0.15134153430E+03  0.47000000000E+01 0. -1.
        -11    1    4    4    0    0  0.24296133288E+02 -0.20320448908E+02  0.34083242734E+01  0.31856544240E+02  0.00000000000E+00 0.  1.
         12    1    4    4    0    0  0.47262068596E+02  0.54660389126E+02  0.83769145716E+02  0.11062879843E+03  0.00000000000E+00 0. -1.
         -5    1    5    5    0  501  0.15003923015E+02  0.16088043511E+02 -0.65189331907E+02  0.68961451873E+02  0.47000000000E+01 0.  1.
         11    1    6    6    0    0 -0.19245805851E+02 -0.66036826602E+02  0.15309705572E+01  0.68801216424E+02  0.00000000000E+00 0. -1.
        -12    1    6    6    0    0 -0.29144994151E+02  0.10750547801E+02  0.32874147576E+02  0.45229575953E+02  0.00000000000E+00 0.  1.
</event>
<event>
12    1  0.1348628E-002  0.2047731E+03  0.7818608E-02  0.1145773E+00
         -3   -1    0    0    0  501 -0.00000000000E+00  0.00000000000E+00  0.55288226593E+03  0.55288226593E+03  0.00000000000E+00 0. -1.
          3   -1    0    0  502    0  0.00000000000E+00 -0.00000000000E+00 -0.76193030514E+02  0.76193030514E+02  0.00000000000E+00 0.  1.
          6    2    1    2  502    0  0.16713891754E+02 -0.10941353705E+03  0.21644877278E+03  0.29762063030E+03  0.17168952232E+03 0.  0.
         24    2    3    3    0    0 -0.38581254829E+02 -0.11455735297E+03  0.12747574502E+03  0.19263347991E+03  0.79029688542E+02 0.  0.
         -6    2    1    2    0  501 -0.16713891754E+02  0.10941353705E+03  0.26024046263E+03  0.33145466614E+03  0.17287689565E+03 0.  0.
        -24    2    5    5    0    0  0.51926471462E+02  0.48028892269E+02  0.18061949112E+03  0.20963035337E+03  0.79488059174E+02 0.  0.
          5    1    3    3  502    0  0.55295146583E+02  0.51438159129E+01  0.88973027763E+02  0.10498715039E+03  0.47000000000E+01 0. -1.
        -13    1    4    4    0    0 -0.17926708772E+01 -0.10703955059E+01 -0.10227748211E+02  0.10438689999E+02  0.00000000000E+00 0.  1.
         14    1    4    4    0    0 -0.36788583952E+02 -0.11348695746E+03  0.13770349323E+03  0.18219478991E+03  0.00000000000E+00 0. -1.
         -5    1    5    5    0  501 -0.68640363216E+02  0.61384644784E+02  0.79620971513E+02  0.12182431277E+03  0.47000000000E+01 0.  1.
         13    1    6    6    0    0  0.33216315309E+02 -0.17931153928E+02  0.59986261960E+02  0.70874547673E+02  0.00000000000E+00 0. -1.
        -14    1    6    6    0    0  0.18710156153E+02  0.65960046197E+02  0.12063322916E+03  0.13875580570E+03  0.00000000000E+00 0.  1.
</event>
<event>
12    1  0.1348628E-002  0.1971941E+03  0.7818608E-02  0.1152128E+00
          4   -1    0    0  502    0  0.00000000000E+00  0.00000000000E+00  0.20746636970E+03  0.20746636970E+03  0.00000000000E+00 0.  1.
         -4   -1    0    0    0  501 -0.00000000000E+00 -0.00000000000E+00 -0.19692929711E+03  0.19692929711E+03  0.00000000000E+00 0. -1.
          6    2    1    2  502    0  0.19466522845E+02 -0.95515213630E+02 -0.39124932383E+02  0.20149149504E+03  0.17194755215E+03 0.  0.
         24    2    3    3    0    0  0.71841612212E+02 -0.32913310217E+02 -0.42083974394E+01  0.11259041119E+03  0.80089867320E+02 0.  0.
         -6    2    1    2    0  501 -0.19466522845E+02  0.95515213630E+02  0.49662004968E+02  0.20290417178E+03  0.17088500999E+03 0.  0.
        -24    2    5    5    0    0  0.30527531544E+02  0.59618786898E+02 -0.20917467459E+02  0.10914111480E+03  0.83593735176E+02 0.  0.
          5    1    3    3  502    0 -0.52375089367E+02 -0.62601903413E+02 -0.34916534943E+02  0.88901083849E+02  0.47000000000E+01 0. -1.
        -11    1    4    4    0    0  0.24987082884E+02 -0.34205144635E+02  0.32224720800E+02  0.53223856129E+02  0.00000000000E+00 0.  1.
         12    1    4    4    0    0  0.46854529328E+02  0.12918344174E+01 -0.36433118240E+02  0.59366555058E+02  0.00000000000E+00 0. -1.
         -5    1    5    5    0  501 -0.49994054389E+02  0.35896426732E+02  0.70579472427E+02  0.93763056981E+02  0.47000000000E+01 0.  1.
         13    1    6    6    0    0  0.39928591139E+02  0.20965855240E+02 -0.44118700497E+02  0.63089771040E+02  0.00000000000E+00 0. -1.
        -14    1    6    6    0    0 -0.94010595950E+01  0.38652931659E+02  0.23201233038E+02  0.46051343757E+02  0.00000000000E+00 0.  1.
</event>
<event>
12    1  0.1348628E-002  0.2249350E+03  0.7818608E-02  0.1130256E+00
         -2   -1    0    0    0  501 -0.00000000000E+00  0.00000000000E+00  0.15742203189E+03  0.15742203189E+03  0.00000000000E+00 0.  1.
          2   -1    0    0  502    0  0.00000000000E+00 -0.00000000000E+00 -0.32140725506E+03  0.32140725506E+03  0.00000000000E+00 0. -1.
          6    2    1    2  502    0  0.21912550629E+02  0.14684126574E+03 -0.81145968843E+02  0.23935743511E+03  0.16930681109E+03 0.  0.
         24    2    3    3    0    0  0.45232803501E+02  0.14197210875E+03 -0.14193299835E+02  0.16813740442E+03  0.76594065243E+02 0.  0.
         -6    2    1    2    0  501 -0.21912550629E+02 -0.14684126574E+03 -0.82839254332E+02  0.23947185184E+03  0.16864729042E+03 0.  0.
        -24    2    5    5    0    0  0.47108917950E+01 -0.13846156033E+02 -0.58592376485E+02  0.10160775942E+03  0.81713901228E+02 0.  0.
          5    1    3    3  502    0 -0.23320252872E+02  0.48691569948E+01 -0.66952669008E+02  0.71220030687E+02  0.47000000000E+01 0. -1.
        -11    1    4    4    0    0 -0.14344124815E+01  0.55964489584E+02 -0.37709358254E+02  0.67498720977E+02  0.00000000000E+00 0.  1.
         12    1    4    4    0    0  0.46667215982E+02  0.86007619164E+02  0.23516058419E+02  0.10063868344E+03  0.00000000000E+00 0. -1.
         -5    1    5    5    0  501 -0.26623442424E+02 -0.13299510971E+03 -0.24246877847E+02  0.13786409242E+03  0.47000000000E+01 0.  1.
         11    1    6    6    0    0  0.26208427345E+02 -0.38944661400E+02 -0.20626421811E+02  0.51273946524E+02  0.00000000000E+00 0. -1.
        -12    1    6    6    0    0 -0.21497535550E+02  0.25098505367E+02 -0.37965954674E+02  0.50333812896E+02  0.00000000000E+00 0.  1.
</event>
<event>
12    1  0.1348628E-002  0.2025709E+03  0.7818608E-02  0.1147588E+00
          1   -1    0    0  502    0  0.00000000000E+00  0.00000000000E+00  0.16688153390E+03  0.16688153390E+03  0.00000000000E+00 0. -1.
         -1   -1    0    0    0  501 -0.00000000000E+00 -0.00000000000E+00 -0.24946603437E+03  0.24946603437E+03  0.00000000000E+00 0.  1.
          6    2    1    2  502    0 -0.78772569709E+02  0.74122711652E+02 -0.16448996088E+02  0.20357727860E+03  0.17167948266E+03 0.  0.
         24    2    3    3    0    0 -0.80671144624E+02  0.98767808371E+02  0.26633143578E+02  0.15368593529E+03  0.81529925933E+02 0.  0.
         -6    2    1    2    0  501  0.78772569709E+02 -0.74122711652E+02 -0.66135504389E+02  0.21277028968E+03  0.17087421428E+03 0.  0.
        -24    2    5    5    0    0 -0.13263691425E+02 -0.37330467255E+02 -0.70921267960E+02  0.11342575714E+03  0.79158618219E+02 0.  0.
          5    1    3    3  502    0  0.18985749147E+01 -0.24645096718E+02 -0.43082139666E+02  0.49891343309E+02  0.47000000000E+01 0. -1.
        -13    1    4    4    0    0 -0.49653017869E+02  0.48642304856E+02 -0.26439494310E+02  0.74367619732E+02  0.00000000000E+00 0.  1.
         14    1    4    4    0    0 -0.31018126755E+02  0.50125503514E+02  0.53072637888E+02  0.79318315554E+02  0.00000000000E+00 0. -1.
         -5    1    5    5    0  501  0.92036261134E+02 -0.36792244397E+02  0.47857635712E+01  0.99344532533E+02  0.47000000000E+01 0.  1.
         11    1    6    6    0    0  0.18066016586E+02 -0.47975356416E+02 -0.25572001301E+02  0.57288245122E+02  0.00000000000E+00 0. -1.
        -12    1    6    6    0    0 -0.31329708011E+02  0.10644889161E+02 -0.45349266659E+02  0.56137512020E+02  0.00000000000E+00 0.  1.
</event>
<event>
12    1  0.1348628E-002  0.2344422E+03  0.7818608E-02  0.1123552E+00
          2   -1    0    0  502    0  0.00000000000E+00  0.00000000000E+00  0.11425899620E+04  0.11425899620E+04  0.00000000000E+00 0.  1.
         -2   -1    0    0    0  501 -0.00000000000E+00 -0.00000000000E+00 -0.49297558626E+02  0.49297558626E+02  0.00000000000E+00 0. -1.
          6    2    1    2  502    0  0.64212446711E+02  0.14489399978E+03  0.45484438816E+03  0.51189523786E+03  0.17330841761E+03 0.  0.
         24    2    3    3    0    0  0.56082065411E+02  0.16321420322E+02  0.25598548311E+03  0.27490585960E+03  0.81443706064E+02 0.  0.
         -6    2    1    2    0  501 -0.64212446711E+02 -0.14489399978E+03  0.63844801526E+03  0.67999228281E+03  0.17220954393E+03 0.  0.
        -24    2    5    5    0    0 -0.29980647503E+02 -0.14158654112E+03  0.32680852001E+03  0.36642567050E+03  0.80736456449E+02 0.  0.
          5    1    3    3  502    0  0.81303812997E+01  0.12857257945E+03  0.19885890506E+03  0.23698937826E+03  0.47000000000E+01 0. -1.
        -11    1    4    4    0    0  0.15165746978E+02  0.13740291836E+02  0.21818089607E+03  0.21913853817E+03  0.00000000000E+00 0.  1.
         12    1    4    4    0    0  0.40916318433E+02  0.25811284865E+01  0.37804587042E+02  0.55767321433E+02  0.00000000000E+00 0. -1.
         -5    1    5    5    0  501 -0.34231799208E+02 -0.33074586530E+01  0.31163949525E+03  0.31356661231E+03  0.47000000000E+01 0.  1.
         11    1    6    6    0    0 -0.47717969842E+02 -0.40397924409E+02  0.11050518088E+03  0.12696610549E+03  0.00000000000E+00 0. -1.
        -12    1    6    6    0    0  0.17737322339E+02 -0.10118861671E+03  0.21630333913E+03  0.23945956501E+03  0.00000000000E+00 0.  1.
</event>
<event>
12    1  0.1348628E-002  0.2632017E+03  0.7818608E-02  0.1105235E+00
          1   -1    0    0  502    0  0.00000000000E+00  0.00000000000E+00  0.60978161613E+03  0.60978161613E+03  0.00000000000E+00 0.  1.
         -1   -1    0    0    0  501 -0.00000000000E+00 -0.00000000000E+00 -0.17435133121E+03  0.17435133121E+03  0.00000000000E+00 0. -1.
          6    2    1    2  502    0  0.42431578951E+02 -0.19495845173E+03 -0.13603708063E+02  0.26374117305E+03  0.17194507465E+03 0.  0.
         24    2    3    3    0    0 -0.19677281108E+02 -0.76319523806E+02 -0.48150387422E+02  0.12536390334E+03  0.84768999913E+02 0.  0.
         -6    2    1    2    0  501 -0.42431578951E+02  0.19495845173E+03  0.44903399298E+03  0.52039177429E+03  0.17136754388E+03 0.  0.
        -24    2    5    5    0    0  0.91089534483E+01  0.17399837472E+03  0.40939368301E+03  0.45191407366E+03  0.79150077992E+02 0.  0.
          5    1    3    3  502    0  0.62108860059E+02 -0.11863892793E+03  0.34546679359E+02  0.13837726971E+03  0.47000000000E+01 0. -1.
        -13    1    4    4    0    0 -0.40534705102E+01  0.11819220634E+02  0.12155189665E+02  0.17431960170E+02  0.00000000000E+00 0.  1.
         14    1    4    4    0    0 -0.15623810598E+02 -0.88138744440E+02 -0.60305577087E+02  0.10793194317E+03  0.00000000000E+00 0. -1.
         -5    1    5    5    0  501 -0.51540532399E+02  0.20960077016E+02  0.39640309978E+02  0.68477700630E+02  0.47000000000E+01 0.  1.
         13    1    6    6    0    0  0.36486771902E+01  0.47862669522E+02  0.21372207226E+03  0.21904627856E+03  0.00000000000E+00 0. -1.
        -14    1    6    6    0    0  0.54602762580E+01  0.12613570520E+03  0.19567161075E+03  0.23286779510E+03  0.00000000000E+00 0.  1.
</event>
<event>
12    1  0.1348628E-002  0.1800672E+03  0.7818608E-02  0.1167738E+00
          3   -1    0    0  502    0  0.00000000000E+00  0.00000000000E+00  0.12755316871E+03  0.12755316871E+03  0.00000000000E+00 0.  1.
         -3   -1    0    0    0  501 -0.00000000000E+00 -0.00000000000E+00 -0.27977987611E+03  0.27977987611E+03  0.00000000000E+00 0. -1.
          6    2    1    2  502    0 -0.42967922109E+02  0.30867636800E+02 -0.14692594163E+02  0.18107790162E+03  0.17255225528E+03 0.  0.
         24    2    3    3    0    0 -0.75143446760E+02  0.45147292571E+00  0.33259175787E+02  0.11564190501E+03  0.81364218192E+02 0.  0.
         -6    2    1    2    0  501  0.42967922109E+02 -0.30867636800E+02 -0.13753411324E+03  0.22625514319E+03  0.17168781023E+03 0.  0.
        -24    2    5    5    0    0  0.93201603087E+02 -0.36054318073E+02 -0.10694724659E+03  0.16702701829E+03  0.80460292174E+02 0.  0.
          5    1    3    3  502    0  0.32175524651E+02  0.30416163874E+02 -0.47951769950E+02  0.65435996613E+02  0.47000000000E+01 0. -1.
        -13    1    4    4    0    0 -0.68789113537E+02  0.21694001514E+02 -0.40489163338E+01  0.72242408365E+02  0.00000000000E+00 0.  1.
         14    1    4    4    0    0 -0.63543332231E+01 -0.21242528588E+02  0.37308092121E+02  0.43399496647E+02  0.00000000000E+00 0. -1.
         -5    1    5    5    0  501 -0.50233680978E+02  0.51866812730E+01 -0.30586866649E+02  0.59228124896E+02  0.47000000000E+01 0.  1.
         13    1    6    6    0    0  0.23198586364E+02  0.11076716086E+01 -0.80019732303E+02  0.83322019320E+02  0.00000000000E+00 0. -1.
        -14    1    6    6    0    0  0.70003016723E+02 -0.37161989682E+02 -0.26927514288E+02  0.83704998973E+02  0.00000000000E+00 0.  1.
</event>
<event>
12    1  0.1348628E-002  0.1782502E+03  0.7818608E-02  0.1169507E+00
          2   -1    0    0  502    0  0.00000000000E+00  0.00000000000E+00  0.97387663970E+03  0.97387663970E+03  0.00000000000E+00 0. -1.
         -2   -1    0    0    0  501 -0.00000000000E+00 -0.00000000000E+00 -0.32694860256E+02  0.32694860256E+02  0.00000000000E+00 0.  1.
          6    2    1    2  502    0  0.22684342558E+02 -0.40097340308E+02  0.49330480873E+03  0.52446060253E+03  0.17200846837E+03 0.  0.
         24    2    3    3    0    0 -0.53136160754E+02 -0.20237985739E+02  0.23514435404E+03  0.25462351640E+03  0.79418135326E+02 0.  0.
         -6    2    1    2    0  501 -0.22684342558E+02  0.40097340308E+02  0.44787697071E+03  0.48211089743E+03  0.17237969842E+03 0.  0.
        -24    2    5    5    0    0  0.20163579610E+02  0.57634841535E+02  0.14854971878E+03  0.17918780135E+03  0.79453787219E+02 0.  0.
          5    1    3    3  502    0  0.75820503312E+02 -0.19859354570E+02  0.25816045469E+03  0.26983708613E+03  0.47000000000E+01 0. -1.
        -11    1    4    4    0    0  0.13307785710E+02 -0.12940527938E+02  0.13055693647E+02  0.22693733947E+02  0.00000000000E+00 0.  1.
         12    1    4    4    0    0 -0.66443946464E+02 -0.72974578002E+01  0.22208866039E+03  0.23192978245E+03  0.00000000000E+00 0. -1.
         -5    1    5    5    0  501 -0.42847922168E+02 -0.17537501226E+02  0.29932725194E+03  0.30292309608E+03  0.47000000000E+01 0.  1.
         13    1    6    6    0    0 -0.69969271140E+01  0.20988723675E+02  0.12668835423E+03  0.12860568654E+03  0.00000000000E+00 0. -1.
        -14    1    6    6    0    0  0.27160506724E+02  0.36646117860E+02  0.21861364541E+02  0.50582114817E+02  0.00000000000E+00 0.  1.
</event>
<event>
12    1  0.1348628E-002  0.2053222E+03  0.7818608E-02  0.1145325E+00
         -1   -1    0    0    0  501 -0.00000000000E+00  0.00000000000E+00  0.48055194146E+03  0.48055194146E+03  0.00000000000E+00 0.  1.
          1   -1    0    0  502    0  0.00000000000E+00 -0.00000000000E+00 -0.88630462470E+02  0.88630462470E+02  0.00000000000E+00 0. -1.
          6    2    1    2  502    0 -0.11422887701E+03 -0.26405016270E+02  0.17047968074E+03  0.26928629753E+03  0.17235523568E+03 0.  0.
         24    2    3    3    0    0 -0.42574972945E+02  0.51852622911E+02  0.67052644388E+02  0.12103724389E+03  0.75184004046E+02 0.  0.
         -6    2    1    2    0  501  0.11422887701E+03  0.26405016270E+02  0.22144179825E+03  0.29989610639E+03  0.16478999785E+03 0.  0.
        -24    2    5    5    0    0  0.13558956972E+02 -0.23590198989E+02  0.60051539796E+02  0.10316568202E+03  0.79351293077E+02 0.  0.
          5    1    3    3  502    0 -0.71653904069E+02 -0.78257639181E+02  0.10342703635E+03  0.14824905365E+03  0.47000000000E+01 0. -1.
        -11    1    4    4    0    0  0.19452174369E+02  0.15017249522E+02  0.33314495486E+02  0.41397590272E+02  0.00000000000E+00 0.  1.
         12    1    4    4    0    0 -0.62027147313E+02  0.36835373389E+02  0.33738148902E+02  0.79639653615E+02  0.00000000000E+00 0. -1.
         -5    1    5    5    0  501  0.10066992004E+03  0.49995215259E+02  0.16139025845E+03  0.19673042437E+03  0.47000000000E+01 0.  1.
         13    1    6    6    0    0  0.18955710594E+02  0.57206317654E+01 -0.13393049171E+02  0.23904358557E+02  0.00000000000E+00 0. -1.
        -14    1    6    6    0    0 -0.53967536221E+01 -0.29310830754E+02  0.73444588967E+02  0.79261323467E+02  0.00000000000E+00 0.  1.
</event>
<event>
12    1  0.1348628E-002  0.2793987E+03  0.7818608E-02  0.1096018E+00
          2   -1    0    0  502    0  0.00000000000E+00  0.00000000000E+00  0.19418088577E+04  0.19418088577E+04  0.00000000000E+00 0. -1.
         -2   -1    0    0    0  501 -0.00000000000E+00 -0.00000000000E+00 -0.55530138656E+02  0.55530138656E+02  0.00000000000E+00 0.  1.
          6    2    1    2  502    0 -0.70623644736E+02 -0.20847846610E+03  0.42245944612E+03  0.50739808935E+03  0.17472798125E+03 0.  0.
         24    2    3    3    0    0  0.76312583394E+01 -0.65526731094E+02  0.24594356464E+03  0.26710873292E+03  0.80665045855E+02 0.  0.
         -6    2    1    2    0  501  0.70623644736E+02  0.20847846610E+03  0.14638192729E+04  0.14899409070E+04  0.16942866514E+03 0.  0.
        -24    2    5    5    0    0 -0.83993251459E+01  0.47790370404E+02  0.63779652080E+03  0.64471846830E+03  0.80765297363E+02 0.  0.
          5    1    3    3  502    0 -0.78254903076E+02 -0.14295173501E+03  0.17651588148E+03  0.24028935643E+03  0.47000000000E+01 0. -1.
        -13    1    4    4    0    0 -0.35644348489E+02 -0.32848448639E+02  0.93688877889E+02  0.10548528806E+03  0.00000000000E+00 0.  1.
         14    1    4    4    0    0  0.43275606829E+02 -0.32678282455E+02  0.15225468675E+03  0.16162344486E+03  0.00000000000E+00 0. -1.
         -5    1    5    5    0  501  0.79022969882E+02  0.16068809570E+03  0.82602275214E+03  0.84522243873E+03  0.47000000000E+01 0.  1.
         13    1    6    6    0    0  0.55228133432E+01  0.67492429575E+02  0.52651920605E+03  0.53085610466E+03  0.00000000000E+00 0. -1.
        -14    1    6    6    0    0 -0.13922138489E+02 -0.19702059171E+02  0.11127731475E+03  0.11386236364E+03  0.00000000000E+00 0.  1.
</event>
<event>
12    1  0.1348628E-002  0.2076359E+03  0.7818608E-02  0.1143452E+00
         -2   -1    0    0    0  501 -0.00000000000E+00  0.00000000000E+00  0.54439165705E+02  0.54439165705E+02  0.00000000000E+00 0.  1.
          2   -1    0    0  502    0  0.00000000000E+00 -0.00000000000E+00 -0.89453814262E+03  0.89453814262E+03  0.00000000000E+00 0. -1.
          6    2    1    2  502    0  0.11571164799E+03  0.11437050961E+02 -0.58084412058E+03  0.61686026812E+03  0.17209505035E+03 0.  0.
         24    2    3    3    0    0  0.64949215944E+02  0.55877203832E+02 -0.21550176121E+03  0.24531096958E+03  0.79973746642E+02 0.  0.
         -6    2    1    2    0  501 -0.11571164799E+03 -0.11437050961E+02 -0.25925485634E+03  0.33211704021E+03  0.17195539028E+03 0.  0.
        -24    2    5    5    0    0  0.41484558766E+01 -0.33212226533E+02 -0.12577843321E+03  0.15134467424E+03  0.77231693496E+02 0.  0.
          5    1    3    3  502    0  0.50762432045E+02 -0.44440152871E+02 -0.36534235937E+03  0.37154929854E+03  0.47000000000E+01 0. -1.
        -11    1    4    4    0    0  0.22473859786E+02  0.30210071874E+02 -0.18098360864E+03  0.18485883644E+03  0.00000000000E+00 0.  1.
         12    1    4    4    0    0  0.42475356158E+02  0.25667131958E+02 -0.34518152575E+02  0.60452133137E+02  0.00000000000E+00 0. -1.
         -5    1    5    5    0  501 -0.11986010387E+03  0.21775175572E+02 -0.13347642313E+03  0.18077236598E+03  0.47000000000E+01 0.  1.
         13    1    6    6    0    0 -0.80661804264E+01 -0.44301775016E+02 -0.12705396120E+03  0.13479769877E+03  0.00000000000E+00 0. -1.
        -14    1    6    6    0    0  0.12214636303E+02  0.11089548482E+02  0.12755279853E+01  0.16546975470E+02  0.00000000000E+00 0.  1.
</event>
<event>
12    1  0.1348628E-002  0.1900061E+03  0.7818608E-02  0.1158456E+00
          2   -1    0    0  502    0  0.00000000000E+00  0.00000000000E+00  0.12981866454E+04  0.12981866454E+04  0.00000000000E+00 0.  1.
         -2   -1    0    0    0  501 -0.00000000000E+00 -0.00000000000E+00 -0.28585581459E+02  0.28585581459E+02  0.00000000000E+00 0. -1.
          6    2    1    2  502    0  0.73824604906E+02 -0.31302443207E+02  0.74499230789E+03  0.76890988458E+03  0.17256580352E+03 0.  0.
         24    2    3    3    0    0 -0.23635816709E+02 -0.35509402175E+02  0.43072715125E+03  0.43981884708E+03  0.78071569381E+02 0.  0.
         -6    2    1    2    0  501 -0.73824604906E+02  0.31302443207E+02  0.52460875601E+03  0.55786234224E+03  0.17194804671E+03 0.  0.
        -24    2    5    5    0    0 -0.76925658569E+02 -0.35281678498E+02  0.37125215730E+03  0.39057995176E+03  0.86960799403E+02 0.  0.
          5    1    3    3  502    0  0.97460421616E+02  0.42069589678E+01  0.31426515664E+03  0.32909103750E+03  0.47000000000E+01 0. -1.
        -11    1    4    4    0    0 -0.37509072772E+00  0.22936135502E+02  0.17359823034E+03  0.17510726022E+03  0.00000000000E+00 0.  1.
         12    1    4    4    0    0 -0.23260725982E+02 -0.58445537677E+02  0.25712892091E+03  0.26471158685E+03  0.00000000000E+00 0. -1.
         -5    1    5    5    0  501  0.31010536629E+01  0.66584121706E+02  0.15335659871E+03  0.16728239048E+03  0.47000000000E+01 0.  1.
         11    1    6    6    0    0 -0.47126335390E+02  0.16566022129E+02  0.88982557644E+02  0.10204518676E+03  0.00000000000E+00 0. -1.
        -12    1    6    6    0    0 -0.29799323180E+02 -0.51847700627E+02  0.28226959966E+03  0.28853476500E+03  0.00000000000E+00 0.  1.
</event>
<event>
12    1  0.1348628E-002  0.2203849E+03  0.7818608E-02  0.1133596E+00
         -2   -1    0    0    0  501 -0.00000000000E+00  0.00000000000E+00  0.25197570256E+02  0.25197570256E+02  0.00000000000E+00 0. -1.
          2   -1    0    0  502    0  0.00000000000E+00 -0.00000000000E+00 -0.20380799284E+04  0.20380799284E+04  0.00000000000E+00 0.  1.
          6    2    1    2  502    0 -0.12121692077E+03  0.58911107511E+02 -0.12386215178E+04  0.12577565843E+04  0.17205900319E+03 0.  0.
         24    2    3    3    0    0 -0.13900865712E+03  0.31878548376E+02 -0.11679436122E+04  0.11798800059E+04  0.87663551652E+02 0.  0.
         -6    2    1    2    0  501  0.12121692077E+03 -0.58911107511E+02 -0.77426084042E+03  0.80552091441E+03  0.17669191853E+03 0.  0.
        -24    2    5    5    0    0  0.42110043859E+02 -0.86088152702E+02 -0.34271800112E+03  0.36592132170E+03  0.85196006673E+02 0.  0.
          5    1    3    3  502    0  0.17791736354E+02  0.27032559134E+02 -0.70677905516E+02  0.77876578404E+02  0.47000000000E+01 0. -1.
        -11    1    4    4    0    0 -0.36996121195E+02 -0.13615546200E+02 -0.58531849592E+03  0.58664455827E+03  0.00000000000E+00 0.  1.
         12    1    4    4    0    0 -0.10201253592E+03  0.45494094576E+02 -0.58262511632E+03  0.59323544761E+03  0.00000000000E+00 0. -1.
         -5    1    5    5    0  501  0.79106876907E+02  0.27177045192E+02 -0.43154283930E+03  0.43959959271E+03  0.47000000000E+01 0.  1.
         11    1    6    6    0    0  0.43392417931E+02 -0.21583775134E+01 -0.13748408113E+03  0.14418541220E+03  0.00000000000E+00 0. -1.
        -12    1    6    6    0    0 -0.12823740726E+01 -0.83929775189E+02 -0.20523391999E+03  0.22173590950E+03  0.00000000000E+00 0.  1.
</event>
<event>
12    1  0.1348628E-002  0.2407180E+03  0.7818608E-02  0.1119315E+00
          2   -1    0    0  502    0  0.00000000000E+00  0.00000000000E+00  0.11294251581E+04  0.11294251581E+04  0.00000000000E+00 0.  1.
         -2   -1    0    0    0  501 -0.00000000000E+00 -0.00000000000E+00 -0.94329002696E+02  0.94329002696E+02  0.00000000000E+00 0. -1.
          6    2    1    2  502    0  0.15909921887E+03  0.61879423546E+02  0.10520258029E+03  0.26339813680E+03  0.17079043025E+03 0.  0.
         24    2    3    3    0    0  0.78455801592E+02  0.92673861580E+02  0.10202704628E+03  0.17688899173E+03  0.78335431304E+02 0.  0.
         -6    2    1    2    0  501 -0.15909921887E+03 -0.61879423546E+02  0.92989357514E+03  0.96035602402E+03  0.16864165348E+03 0.  0.
        -24    2    5    5    0    0 -0.61346921385E+02 -0.87509308319E+01  0.28830493899E+03  0.30917539130E+03  0.92895969683E+02 0.  0.
          5    1    3    3  502    0  0.80643417281E+02 -0.30794438035E+02  0.31755340103E+01  0.86509145071E+02  0.47000000000E+01 0. -1.
        -13    1    4    4    0    0  0.56912985968E+02  0.25124594075E+02  0.82538034209E+02  0.10335792321E+03  0.00000000000E+00 0.  1.
         14    1    4    4    0    0  0.21542815624E+02  0.67549267505E+02  0.19489012069E+02  0.73531068515E+02  0.00000000000E+00 0. -1.
         -5    1    5    5    0  501 -0.97752297489E+02 -0.53128492714E+02  0.64158863614E+03  0.65118063272E+03  0.47000000000E+01 0.  1.
         11    1    6    6    0    0 -0.54132850432E+02 -0.24329373030E+02  0.28571442183E+03  0.29181332172E+03  0.00000000000E+00 0. -1.
        -12    1    6    6    0    0 -0.72140709527E+01  0.15578442198E+02  0.25905171594E+01  0.17362069582E+02  0.00000000000E+00 0.  1.
</event>
<event>
12    1  0.1348628E-002  0.2030443E+03  0.7818608E-02  0.1147196E+00
         -1   -1    0    0    0  501 -0.00000000000E+00  0.00000000000E+00  0.15329473236E+03  0.15329473236E+03  0.00000000000E+00 0. -1.
          1   -1    0    0  502    0  0.00000000000E+00 -0.00000000000E+00 -0.27740885983E+03  0.27740885983E+03  0.00000000000E+00 0.  1.
          6    2    1    2  502    0 -0.74108605937E+02  0.73764196115E+02 -0.24039846122E+02  0.20306570840E+03  0.17240802077E+03 0.  0.
         24    2    3    3    0    0 -0.53888797059E+02  0.60357078714E+02 -0.81098311437E+02  0.14088572825E+03  0.82005322429E+02 0.  0.
         -6    2    1    2    0  501  0.74108605937E+02 -0.73764196115E+02 -0.10007428134E+03  0.22763788378E+03  0.17570117314E+03 0.  0.
        -24    2    5    5    0    0 -0.12646863926E+02  0.14270914235E+02 -0.33312182930E+02  0.87081987464E+02  0.78166289721E+02 0.  0.
          5    1    3    3  502    0 -0.20219808879E+02  0.13407117401E+02  0.57058465314E+02  0.62179980155E+02  0.47000000000E+01 0. -1.
        -11    1    4    4    0    0 -0.34960075432E+02 -0.61816201060E+01 -0.57905897190E+02  0.67922840273E+02  0.00000000000E+00 0.  1.
         12    1    4    4    0    0 -0.18928721626E+02  0.66538698820E+02 -0.23192414247E+02  0.72962887975E+02  0.00000000000E+00 0. -1.
         -5    1    5    5    0  501  0.86755469864E+02 -0.88035110350E+02 -0.66762098415E+02  0.14055589632E+03  0.47000000000E+01 0.  1.
         13    1    6    6    0    0  0.57185201938E+01 -0.14572780297E+02  0.18979527067E+02  0.24602639015E+02  0.00000000000E+00 0. -1.
        -14    1    6    6    0    0 -0.18365384120E+02  0.28843694532E+02 -0.52291709998E+02  0.62479348449E+02  0.00000000000E+00 0.  1.
</event>
<event>
12    1  0.1348628E-002  0.1956518E+03  0.7818608E-02  0.1153460E+00
          2   -1    0    0  502    0  0.00000000000E+00  0.00000000000E+00  0.54745287260E+03  0.54745287260E+03  0.00000000000E+00 0. -1.
         -2   -1    0    0    0  501 -0.00000000000E+00 -0.00000000000E+00 -0.73723055966E+02  0.73723055966E+02  0.00000000000E+00 0.  1.
          6    2    1    2  502    0 -0.88458623474E+02  0.44192119552E+01  0.30754463691E+03  0.36458229370E+03  0.17461983762E+03 0.  0.
         24    2    3    3    0    0 -0.33473808432E+02 -0.64011564316E+02  0.17675844670E+03  0.20699670244E+03  0.79913141113E+02 0.  0.
         -6    2    1    2    0  501  0.88458623474E+02 -0.44192119552E+01  0.16618517973E+03  0.25659363487E+03  0.17429378070E+03 0.  0.
        -24    2    5    5    0    0  0.75818310071E+02 -0.48786442189E+01  0.19490486127E+03  0.22486196757E+03  0.82478980364E+02 0.  0.
          5    1    3    3  502    0 -0.54984815043E+02  0.68430776271E+02  0.13078619020E+03  0.15758559126E+03  0.47000000000E+01 0. -1.
        -13    1    4    4    0    0  0.55417080295E+01 -0.49207506343E+01 -0.69216149481E+01  0.10140664090E+02  0.00000000000E+00 0.  1.
         14    1    4    4    0    0 -0.39015516461E+02 -0.59090813681E+02  0.18368006165E+03  0.19685603835E+03  0.00000000000E+00 0. -1.
         -5    1    5    5    0  501  0.12640313403E+02  0.45943226373E+00 -0.28719681545E+02  0.31731667290E+02  0.47000000000E+01 0.  1.
         11    1    6    6    0    0  0.68598596139E+02  0.18726280917E+02  0.18512268948E+03  0.19830998752E+03  0.00000000000E+00 0. -1.
        -12    1    6    6    0    0  0.72197139315E+01 -0.23604925136E+02  0.97821717945E+01  0.26551980057E+02  0.00000000000E+00 0.  1.
</event>
<event>
12    1  0.1348628E-002  0.2734872E+03  0.7818608E-02  0.1099300E+00
          2   -1    0    0  502    0  0.00000000000E+00  0.00000000000E+00  0.19736081598E+04  0.19736081598E+04  0.00000000000E+00 0. -1.
         -2   -1    0    0    0  501 -0.00000000000E+00 -0.00000000000E+00 -0.37898467918E+02  0.37898467918E+02  0.00000000000E+00 0.  1.
          6    2    1    2  502    0  0.87982435527E+02 -0.19336526216E+03  0.96801556552E+03  0.10061535532E+04  0.17366578259E+03 0.  0.
         24    2    3    3    0    0  0.60190848421E+02 -0.16862657428E+03  0.50476336333E+03  0.54138579637E+03  0.79086457542E+02 0.  0.
         -6    2    1    2    0  501 -0.87982435527E+02  0.19336526216E+03  0.96769412636E+03  0.10053530745E+04  0.17079768321E+03 0.  0.
        -24    2    5    5    0    0 -0.47403844266E+02  0.12428163301E+03  0.35587244117E+03  0.38828984079E+03  0.80192002887E+02 0.  0.
          5    1    3    3  502    0  0.27791587105E+02 -0.24738687877E+02  0.46325220219E+03  0.46476775687E+03  0.47000000000E+01 0. -1.
        -13    1    4    4    0    0  0.73615249621E+01 -0.78955619417E+02  0.12853858638E+03  0.15103095734E+03  0.00000000000E+00 0.  1.
         14    1    4    4    0    0  0.52829323459E+02 -0.89670954865E+02  0.37622477694E+03  0.39035483903E+03  0.00000000000E+00 0. -1.
         -5    1    5    5    0  501 -0.40578591260E+02  0.69083629146E+02  0.61182168519E+03  0.61706323368E+03  0.47000000000E+01 0.  1.
         11    1    6    6    0    0  0.18709298959E+02  0.50181868393E+02  0.15921655242E+03  0.16798264300E+03  0.00000000000E+00 0. -1.
        -12    1    6    6    0    0 -0.66113143225E+02  0.74099764620E+02  0.19665588874E+03  0.22030719780E+03  0.00000000000E+00 0.  1.
</event>
<event>
12    1  0.1348628E-002  0.1897272E+03  0.7818608E-02  0.1158708E+00
          1   -1    0    0  502    0  0.00000000000E+00  0.00000000000E+00  0.97076465583E+03  0.97076465583E+03  0.00000000000E+00 0. -1.
         -1   -1    0    0    0  501 -0.00000000000E+00 -0.00000000000E+00 -0.37548393212E+02  0.37548393212E+02  0.00000000000E+00 0.  1.
          6    2    1    2  502    0  0.70908698511E+02 -0.69143692747E+01  0.53085615025E+03  0.56498234784E+03  0.17978028000E+03 0.  0.
         24    2    3    3    0    0  0.94776352644E+02 -0.34382911487E+01  0.52531442089E+03  0.53979209581E+03  0.80161630699E+02 0.  0.
         -6    2    1    2    0  501 -0.70908698511E+02  0.69143692747E+01  0.40236011237E+03  0.44333070121E+03  0.17196685315E+03 0.  0.
        -24    2    5    5    0    0 -0.64718719407E+02  0.44693942162E+02  0.38451322693E+03  0.40083113311E+03  0.81419374085E+02 0.  0.
          5    1    3    3  502    0 -0.23867654133E+02 -0.34760781260E+01  0.55417293645E+01  0.25190252029E+02  0.47000000000E+01 0. -1.
        -11    1    4    4    0    0  0.22549358379E+01  0.33155751739E+01 -0.19290992209E+01  0.44496289926E+01  0.00000000000E+00 0.  1.
         12    1    4    4    0    0  0.92521416806E+02 -0.67538663227E+01  0.52724352011E+03  0.53534246681E+03  0.00000000000E+00 0. -1.
         -5    1    5    5    0  501 -0.61899791038E+01 -0.37779572887E+02  0.17846885437E+02  0.42499568099E+02  0.47000000000E+01 0.  1.
         13    1    6    6    0    0 -0.65339715350E+02  0.40502750499E+02  0.17341712876E+03  0.18969251895E+03  0.00000000000E+00 0. -1.
        -14    1    6    6    0    0  0.62099594310E+00  0.41911916625E+01  0.21109609817E+03  0.21113861416E+03  0.00000000000E+00 0.  1.
</event>
<event>
12    1  0.1348628E-002  0.2232844E+03  0.7818608E-02  0.1131458E+00
         -1   -1    0    0    0  501 -0.00000000000E+00  0.00000000000E+00  0.13351374940E+03  0.13351374940E+03  0.00000000000E+00 0. -1.
          1   -1    0    0  502    0  0.00000000000E+00 -0.00000000000E+00 -0.45410297451E+03  0.45410297451E+03  0.00000000000E+00 0.  1.
          6    2    1    2  502    0 -0.13834793378E+03  0.28923431563E+02 -0.35961734081E+02  0.22534702612E+03  0.17178859156E+03 0.  0.
         24    2    3    3    0    0 -0.12052151680E+03  0.15514460254E+02  0.36616853015E+02  0.14927256944E+03  0.78583532461E+02 0.  0.
         -6    2    1    2    0  501  0.13834793378E+03 -0.28923431563E+02 -0.28462749103E+03  0.36226969779E+03  0.17392472399E+03 0.  0.
        -24    2    5    5    0    0  0.11268141013E+03  0.13193816898E+02 -0.10390375741E+03  0.17487761966E+03  0.83156563542E+02 0.  0.
          5    1    3    3  502    0 -0.17826416977E+02  0.13408971308E+02 -0.72578587096E+02  0.76074456677E+02  0.47000000000E+01 0. -1.
        -13    1    4    4    0    0 -0.38839025662E+02 -0.29812191394E+02  0.25480938030E+02  0.55195243210E+02  0.00000000000E+00 0.  1.
         14    1    4    4    0    0 -0.81682491141E+02  0.45326651648E+02  0.11135914984E+02  0.94077326233E+02  0.00000000000E+00 0. -1.
         -5    1    5    5    0  501  0.25666523649E+02 -0.42117248461E+02 -0.18072373362E+03  0.18739207813E+03  0.47000000000E+01 0.  1.
         13    1    6    6    0    0  0.61281128540E+02  0.46352638601E+02 -0.74443839275E+02  0.10698518134E+03  0.00000000000E+00 0. -1.
        -14    1    6    6    0    0  0.51400281592E+02 -0.33158821703E+02 -0.29459918139E+02  0.67892438321E+02  0.00000000000E+00 0.  1.
</event>
<event>
12    1  0.1348628E-002  0.1687585E+03  0.7818608E-02  0.1179149E+00
         -2   -1    0    0    0  501 -0.00000000000E+00  0.00000000000E+00  0.35591025443E+02  0.35591025443E+02  0.00000000000E+00 0.  1.
          2   -1    0    0  502    0  0.00000000000E+00 -0.00000000000E+00 -0.87001636973E+03  0.87001636973E+03  0.00000000000E+00 0. -1.
          6    2    1    2  502    0  0.34286345405E+02 -0.46742102967E+02 -0.55450141553E+03  0.58085712519E+03  0.16298098779E+03 0.  0.
         24    2    3    3    0    0 -0.15274177890E+01  0.24762835576E+02 -0.18993730216E+03  0.20759493231E+03  0.80024659568E+02 0.  0.
         -6    2    1    2    0  501 -0.34286345405E+02  0.46742102967E+02 -0.27992392875E+03  0.32475026998E+03  0.15409397878E+03 0.  0.
        -24    2    5    5    0    0  0.31206750987E+02  0.13489426564E+01 -0.15113990388E+03  0.17323360509E+03  0.78682465864E+02 0.  0.
          5    1    3    3  502    0  0.35813763194E+02 -0.71504938543E+02 -0.36456411337E+03  0.37326219287E+03  0.47000000000E+01 0. -1.
        -11    1    4    4    0    0 -0.31843928291E+02  0.54675365515E+01 -0.15177451840E+03  0.15517549472E+03  0.00000000000E+00 0.  1.
         12    1    4    4    0    0  0.30316510502E+02  0.19295299025E+02 -0.38162783757E+02  0.52419437592E+02  0.00000000000E+00 0. -1.
         -5    1    5    5    0  501 -0.65493096393E+02  0.45393160310E+02 -0.12878402487E+03  0.15151666489E+03  0.47000000000E+01 0.  1.
         11    1    6    6    0    0 -0.25402015634E+02 -0.92041137276E+01 -0.51178829589E+02  0.57872711237E+02  0.00000000000E+00 0. -1.
        -12    1    6    6    0    0  0.56608766621E+02  0.10553056384E+02 -0.99961074292E+02  0.11536089385E+03  0.00000000000E+00 0.  1.
</event>
<event>
12    1  0.1348628E-002  0.1771415E+03  0.7818608E-02  0.1170599E+00
          2   -1    0    0  502    0  0.00000000000E+00  0.00000000000E+00  0.46175158500E+03  0.46175158500E+03  0.00000000000E+00 0.  1.
         -2   -1    0    0    0  501 -0.00000000000E+00 -0.00000000000E+00 -0.67981395128E+02  0.67981395128E+02  0.00000000000E+00 0. -1.
          6    2    1    2  502    0 -0.40216326519E+02 -0.12456968199E+02  0.20202532878E+03  0.26874421126E+03  0.17215309651E+03 0.  0.
         24    2    3    3    0    0  0.29739566712E+02 -0.17271320541E+02  0.16986193806E+03  0.19145528133E+03  0.81359120002E+02 0.  0.
         -6    2    1    2    0  501  0.40216326519E+02  0.12456968199E+02  0.19174486109E+03  0.26098876887E+03  0.17197824498E+03 0.  0.
        -24    2    5    5    0    0 -0.48346768667E+01 -0.23437837321E+02  0.18485047023E+03  0.20278522435E+03  0.79871425131E+02 0.  0.
          5    1    3    3  502    0 -0.69955893231E+02  0.48143523420E+01  0.32163390729E+02  0.77288929928E+02  0.47000000000E+01 0. -1.
        -13    1    4    4    0    0 -0.27057445018E+02 -0.13747770658E+02  0.73895576848E+02  0.79885310331E+02  0.00000000000E+00 0.  1.
         14    1    4    4    0    0  0.56797011730E+02 -0.35235498830E+01  0.95966361207E+02  0.11156997100E+03  0.00000000000E+00 0. -1.
         -5    1    5    5    0  501  0.45051003386E+02  0.35894805520E+02  0.68943908603E+01  0.58203544521E+02  0.47000000000E+01 0.  1.
         13    1    6    6    0    0 -0.28470791357E+02 -0.75519751966E+01  0.20262806750E+02  0.35751917812E+02  0.00000000000E+00 0. -1.
        -14    1    6    6    0    0  0.23636114491E+02 -0.15885862124E+02  0.16458766348E+03  0.16703330654E+03  0.00000000000E+00 0.  1.
</event>
<event>
12    1  0.1348628E-002  0.1975478E+03  0.7818608E-02  0.1151825E+00
          1   -1    0    0  502    0  0.00000000000E+00  0.00000000000E+00  0.12990256833E+04  0.12990256833E+04  0.00000000000E+00 0.  1.
         -1   -1    0    0    0  501 -0.00000000000E+00 -0.00000000000E+00 -0.38004876871E+02  0.38004876871E+02  0.00000000000E+00 0. -1.
          6    2    1    2  502    0  0.13601788969E+02  0.98567927833E+02  0.31846049246E+03  0.37348503767E+03  0.16784916754E+03 0.  0.
         24    2    3    3    0    0  0.35881774282E+02  0.47494701357E+02  0.29732877066E+03  0.31370617958E+03  0.80398512803E+02 0.  0.
         -6    2    1    2    0  501 -0.13601788969E+02 -0.98567927833E+02  0.94256031394E+03  0.96354552247E+03  0.17349173871E+03 0.  0.
        -24    2    5    5    0    0 -0.68346876910E+02 -0.26683153096E+02  0.57042243007E+03  0.58056622785E+03  0.79322821169E+02 0.  0.
          5    1    3    3  502    0 -0.22279985313E+02  0.51073226476E+02  0.21131721798E+02  0.59778858089E+02  0.47000000000E+01 0. -1.
        -11    1    4    4    0    0  0.60470681576E+01 -0.15316078366E+02  0.12948547591E+02  0.20947891888E+02  0.00000000000E+00 0.  1.
         12    1    4    4    0    0  0.29834706125E+02  0.62810779723E+02  0.28438022307E+03  0.29275828769E+03  0.00000000000E+00 0. -1.
         -5    1    5    5    0  501  0.54745087941E+02 -0.71884774737E+02  0.37213788387E+03  0.38297929462E+03  0.47000000000E+01 0.  1.
         13    1    6    6    0    0 -0.25358510773E+02 -0.44348447536E+02  0.42085075124E+03  0.42394008266E+03  0.00000000000E+00 0. -1.
        -14    1    6    6    0    0 -0.42988366137E+02  0.17665294440E+02  0.14957167883E+03  0.15662614519E+03  0.00000000000E+00 0.  1.
</event>
<event>
12    1  0.1348628E-002  0.1826965E+03  0.7818608E-02  0.1165219E+00
          2   -1    0    0  502    0  0.00000000000E+00  0.00000000000E+00  0.59343233703E+03  0.59343233703E+03  0.00000000000E+00 0. -1.
         -2   -1    0    0    0  501 -0.00000000000E+00 -0.00000000000E+00 -0.11448502938E+03  0.11448502938E+03  0.00000000000E+00 0.  1.
          6    2    1    2  502    0 -0.43203123303E+02 -0.40100987799E+02  0.49134741777E+03  0.52390250884E+03  0.17197951837E+03 0.  0.
         24    2    3    3    0    0 -0.68699537477E+02 -0.66242709302E+02  0.45690895928E+03  0.47348867976E+03  0.79485909527E+02 0.  0.
         -6    2    1    2    0  501  0.43203123303E+02  0.40100987799E+02 -0.12400110125E+02  0.18401485757E+03  0.17387669766E+03 0.  0.
        -24    2    5    5    0    0  0.89766609056E+02 -0.58938235866E+01 -0.10706280089E+02  0.11837462646E+03  0.76191511980E+02 0.  0.
          5    1    3    3  502    0  0.25496414175E+02  0.26141721502E+02  0.34438458493E+02  0.50413829077E+02  0.47000000000E+01 0. -1.
        -11    1    4    4    0    0 -0.17169533301E+02  0.55771483907E+01  0.17034873185E+02  0.24821046762E+02  0.00000000000E+00 0.  1.
         12    1    4    4    0    0 -0.51530004176E+02 -0.71819857693E+02  0.43987408609E+03  0.44866763300E+03  0.00000000000E+00 0. -1.
         -5    1    5    5    0  501 -0.46563485753E+02  0.45994811386E+02 -0.16938300361E+01  0.65640231109E+02  0.47000000000E+01 0.  1.
         13    1    6    6    0    0  0.21878547406E+02  0.82602660870E+01  0.29941445068E+02  0.37992011860E+02  0.00000000000E+00 0. -1.
        -14    1    6    6    0    0  0.67888061650E+02 -0.14154089674E+02 -0.40647725157E+02  0.80382614597E+02  0.00000000000E+00 0.  1.
</event>
<event>
12    1  0.1348628E-002  0.3649371E+03  0.7818608E-02  0.1056646E+00
         -1   -1    0    0    0  501 -0.00000000000E+00  0.00000000000E+00  0.53888962873E+03  0.53888962873E+03  0.00000000000E+00 0.  1.
          1   -1    0    0  502    0  0.00000000000E+00 -0.00000000000E+00 -0.24742680944E+03  0.24742680944E+03  0.00000000000E+00 0. -1.
          6    2    1    2  502    0 -0.31758769905E+03 -0.53252084381E+02  0.13235707761E+03  0.38842912813E+03  0.17222386741E+03 0.  0.
         24    2    3    3    0    0 -0.73307796559E+02 -0.23512311913E+02  0.77714464885E+02  0.13630806603E+03  0.81323360510E+02 0.  0.
         -6    2    1    2    0  501  0.31758769905E+03  0.53252084381E+02  0.15910574168E+03  0.39788731005E+03  0.17117810427E+03 0.  0.
        -24    2    5    5    0    0  0.23676634581E+03  0.43443493072E+02  0.18248718017E+03  0.31305169683E+03  0.82183662395E+02 0.  0.
          5    1    3    3  502    0 -0.24427990249E+03 -0.29739772469E+02  0.54642612721E+02  0.25212106210E+03  0.47000000000E+01 0. -1.
        -11    1    4    4    0    0 -0.52604478542E+02 -0.47204746617E+02  0.77437620215E+02  0.10484323674E+03  0.00000000000E+00 0.  1.
         12    1    4    4    0    0 -0.20703318017E+02  0.23692434705E+02  0.27684466969E+00  0.31464829288E+02  0.00000000000E+00 0. -1.
         -5    1    5    5    0  501  0.80821353241E+02  0.98085913087E+01 -0.23381438495E+02  0.84835613213E+02  0.47000000000E+01 0.  1.
         11    1    6    6    0    0  0.93597535001E+02  0.22654431818E+02  0.25602782163E+02  0.99645493093E+02  0.00000000000E+00 0. -1.
        -12    1    6    6    0    0  0.14316881081E+03  0.20789061254E+02  0.15688439801E+03  0.21340620374E+03  0.00000000000E+00 0.  1.
</event>
<event>
12    1  0.1348628E-002  0.1786984E+03  0.7818608E-02  0.1169069E+00
          2   -1    0    0  502    0  0.00000000000E+00  0.00000000000E+00  0.59136903655E+03  0.59136903655E+03  0.00000000000E+00 0. -1.
         -2   -1    0    0    0  501 -0.00000000000E+00 -0.00000000000E+00 -0.60699399240E+02  0.60699399240E+02  0.00000000000E+00 0.  1.
          6    2    1    2  502    0  0.29727834156E+02 -0.39783591862E+02  0.37448673697E+03  0.41520994606E+03  0.17231513234E+03 0.  0.
         24    2    3    3    0    0  0.70715178315E+02 -0.64051783268E+02  0.31162640152E+03  0.33620096385E+03  0.82563954553E+02 0.  0.
         -6    2    1    2    0  501 -0.29727834156E+02  0.39783591862E+02  0.15618290034E+03  0.23685848973E+03  0.17100399848E+03 0.  0.
        -24    2    5    5    0    0  0.20271946746E+02 -0.66802781006E+01  0.20824137936E+02  0.85191242571E+02  0.79801786632E+02 0.  0.
          5    1    3    3  502    0 -0.40987344158E+02  0.24268191406E+02  0.62860335452E+02  0.79008982201E+02  0.47000000000E+01 0. -1.
        -11    1    4    4    0    0  0.32088386193E+02  0.13935838358E+02  0.54657389332E+02  0.64894547751E+02  0.00000000000E+00 0.  1.
         12    1    4    4    0    0  0.38626792121E+02 -0.77987621626E+02  0.25696901218E+03  0.27130641610E+03  0.00000000000E+00 0. -1.
         -5    1    5    5    0  501 -0.49999780902E+02  0.46463869963E+02  0.13535876240E+03  0.15166724716E+03  0.47000000000E+01 0.  1.
         13    1    6    6    0    0 -0.23362920747E+02 -0.21148359441E+02  0.23241654789E+02  0.39156783451E+02  0.00000000000E+00 0. -1.
        -14    1    6    6    0    0  0.43634867493E+02  0.14468081341E+02 -0.24175168522E+01  0.46034459120E+02  0.00000000000E+00 0.  1.
</event>
<event>
12    1  0.1348628E-002  0.1946593E+03  0.7818608E-02  0.1154325E+00
         -2   -1    0    0    0  501 -0.00000000000E+00  0.00000000000E+00  0.85273705607E+02  0.85273705607E+02  0.00000000000E+00 0. -1.
          2   -1    0    0  502    0  0.00000000000E+00 -0.00000000000E+00 -0.46006910608E+03  0.46006910608E+03  0.00000000000E+00 0.  1.
          6    2    1    2  502    0 -0.85400980019E+02 -0.31720972439E+02 -0.24044872194E+03  0.31131892972E+03  0.17551165385E+03 0.  0.
         24    2    3    3    0    0  0.84686165348E+01  0.26673488118E+02 -0.87319245459E+02  0.12239529237E+03  0.81072588046E+02 0.  0.
         -6    2    1    2    0  501  0.85400980019E+02  0.31720972439E+02 -0.13434667853E+03  0.23402388196E+03  0.16857817124E+03 0.  0.
        -24    2    5    5    0    0  0.12015141454E+03  0.33875511890E+01 -0.11561495607E+03  0.18520438908E+03  0.80535766879E+02 0.  0.
          5    1    3    3  502    0 -0.93869596554E+02 -0.58394460556E+02 -0.15312947649E+03  0.18892363735E+03  0.47000000000E+01 0. -1.
        -13    1    4    4    0    0 -0.10463435928E+02  0.52049203635E+02 -0.63535444594E+02  0.82797076097E+02  0.00000000000E+00 0.  1.
         14    1    4    4    0    0  0.18932052463E+02 -0.25375715517E+02 -0.23783800865E+02  0.39598216274E+02  0.00000000000E+00 0. -1.
         -5    1    5    5    0  501 -0.34750434525E+02  0.28333421249E+02 -0.18731722455E+02  0.48819492885E+02  0.47000000000E+01 0.  1.
         11    1    6    6    0    0  0.45368443386E+02 -0.23148290007E+02 -0.80924636421E+01  0.51571571173E+02  0.00000000000E+00 0. -1.
        -12    1    6    6    0    0  0.74782971159E+02  0.26535841196E+02 -0.10752249243E+03  0.13363281791E+03  0.00000000000E+00 0.  1.
</event>
<event>
12    1  0.1348628E-002  0.1857551E+03  0.7818608E-02  0.1162347E+00
         -1   -1    0    0    0  501 -0.00000000000E+00  0.00000000000E+00  0.29405101431E+02  0.29405101431E+02  0.00000000000E+00 0. -1.
          1   -1    0    0  502    0  0.00000000000E+00 -0.00000000000E+00 -0.12037840663E+04  0.12037840663E+04  0.00000000000E+00 0.  1.
          6    2    1    2  502    0 -0.62464924717E+02 -0.32052844112E+02 -0.48766701575E+03  0.52165859162E+03  0.17140395658E+03 0.  0.
         24    2    3    3    0    0  0.27846976419E+02 -0.71974160823E+00 -0.10549819676E+03  0.12768765487E+03  0.66319646890E+02 0.  0.
         -6    2    1    2    0  501  0.62464924717E+02  0.32052844112E+02 -0.68671194915E+03  0.71153057613E+03  0.17254914672E+03 0.  0.
        -24    2    5    5    0    0 -0.70907293685E+01 -0.27416409154E+02 -0.22260680990E+03  0.23846583281E+03  0.80685957079E+02 0.  0.
          5    1    3    3  502    0 -0.90311901135E+02 -0.31333102504E+02 -0.38216881899E+03  0.39397093675E+03  0.47000000000E+01 0. -1.
        -11    1    4    4    0    0  0.88968777310E+01  0.23855255788E+02 -0.88942469323E+02  0.92514812389E+02  0.00000000000E+00 0.  1.
         12    1    4    4    0    0  0.18950098687E+02 -0.24574997396E+02 -0.16555727432E+02  0.35172842480E+02  0.00000000000E+00 0. -1.
         -5    1    5    5    0  501  0.69555654085E+02  0.59469253266E+02 -0.46410513925E+03  0.47306474332E+03  0.47000000000E+01 0.  1.
         13    1    6    6    0    0  0.28089954276E+02 -0.36886326154E+02 -0.94220933863E+02  0.10501062311E+03  0.00000000000E+00 0. -1.
        -14    1    6    6    0    0 -0.35180683644E+02  0.94699169993E+01 -0.12838587604E+03  0.13345520970E+03  0.00000000000E+00 0.  1.
</event>
<event>
12    1  0.1348628E-002  0.2078300E+03  0.7818608E-02  0.1143296E+00
          3   -1    0    0  502    0  0.00000000000E+00  0.00000000000E+00  0.12741476494E+03  0.12741476494E+03  0.00000000000E+00 0. -1.
         -3   -1    0    0    0  501 -0.00000000000E+00 -0.00000000000E+00 -0.33969830368E+03  0.33969830368E+03  0.00000000000E+00 0.  1.
          6    2    1    2  502    0  0.51497828189E+02 -0.10545199761E+03 -0.95367277913E+02  0.22835456101E+03  0.17111030865E+03 0.  0.
         24    2    3    3    0    0 -0.34669228712E+02 -0.32002675377E+02 -0.58821546899E+02  0.10928632390E+03  0.79103726595E+02 0.  0.
         -6    2    1    2    0  501 -0.51497828189E+02  0.10545199761E+03 -0.11691626082E+03  0.23875850762E+03  0.17194203328E+03 0.  0.
        -24    2    5    5    0    0 -0.19230314636E+02  0.97492239523E+02 -0.14664128257E+03  0.19392306296E+03  0.78917341737E+02 0.  0.
          5    1    3    3  502    0  0.86167056901E+02 -0.73449322236E+02 -0.36545731014E+02  0.11906823710E+03  0.47000000000E+01 0. -1.
        -13    1    4    4    0    0 -0.50628507185E+02 -0.13113537245E+02 -0.81871794335E+01  0.52936192779E+02  0.00000000000E+00 0.  1.
         14    1    4    4    0    0  0.15959278473E+02 -0.18889138131E+02 -0.50634367466E+02  0.56350131121E+02  0.00000000000E+00 0. -1.
         -5    1    5    5    0  501 -0.32267513553E+02  0.79597580899E+01  0.29725021747E+02  0.44835444657E+02  0.47000000000E+01 0.  1.
         13    1    6    6    0    0 -0.95955217580E+01 -0.11403043315E+02 -0.33137969391E+02  0.36334948053E+02  0.00000000000E+00 0. -1.
        -14    1    6    6    0    0 -0.96347928781E+01  0.10889528284E+03 -0.11350331318E+03  0.15758811491E+03  0.00000000000E+00 0.  1.
</event>
<event>
12    1  0.1348628E-002  0.1820698E+03  0.7818608E-02  0.1165815E+00
         -2   -1    0    0    0  501 -0.00000000000E+00  0.00000000000E+00  0.26092891451E+02  0.26092891451E+02  0.00000000000E+00 0. -1.
          2   -1    0    0  502    0  0.00000000000E+00 -0.00000000000E+00 -0.16776266463E+04  0.16776266463E+04  0.00000000000E+00 0.  1.
          6    2    1    2  502    0  0.43536507443E+01 -0.58824989176E+02 -0.12447137341E+04  0.12579285555E+04  0.17202510617E+03 0.  0.
         24    2    3    3    0    0 -0.20488824550E+02 -0.10130212625E+03 -0.80604324695E+03  0.81648168205E+03  0.79086714691E+02 0.  0.
         -6    2    1    2    0  501 -0.43536507443E+01  0.58824989176E+02 -0.40682002072E+03  0.44579098227E+03  0.17247532282E+03 0.  0.
        -24    2    5    5    0    0  0.61086740864E+02  0.59805448868E+02 -0.25983410007E+03  0.28482403838E+03  0.79389493349E+02 0.  0.
          5    1    3    3  502    0  0.24842475294E+02  0.42477137077E+02 -0.43867048714E+03  0.44144687341E+03  0.47000000000E+01 0. -1.
        -11    1    4    4    0    0  0.27979078222E+02 -0.17812736787E+02 -0.17831768259E+03  0.18137617907E+03  0.00000000000E+00 0.  1.
         12    1    4    4    0    0 -0.48467902772E+02 -0.83489389466E+02 -0.62772556437E+03  0.63510550298E+03  0.00000000000E+00 0. -1.
         -5    1    5    5    0  501 -0.65440391608E+02 -0.98045969247E+00 -0.14698592065E+03  0.16096694389E+03  0.47000000000E+01 0.  1.
         13    1    6    6    0    0  0.11279524183E+02  0.64643206696E+02 -0.12863399238E+03  0.14440455614E+03  0.00000000000E+00 0. -1.
        -14    1    6    6    0    0  0.49807216681E+02 -0.48377578278E+01 -0.13120010769E+03  0.14041948224E+03  0.00000000000E+00 0.  1.
</event>
<event>
12    1  0.1348628E-002  0.1896637E+03  0.7818608E-02  0.1158765E+00
          1   -1    0    0  502    0  0.00000000000E+00  0.00000000000E+00  0.29221698509E+03  0.29221698509E+03  0.00000000000E+00 0.  1.
         -1   -1    0    0    0  501 -0.00000000000E+00 -0.00000000000E+00 -0.15581270224E+03  0.15581270224E+03  0.00000000000E+00 0. -1.
          6    2    1    2  502    0  0.45272761217E+00  0.79925404554E+02  0.17089476404E+03  0.25543182951E+03  0.17219792071E+03 0.  0.
         24    2    3    3    0    0 -0.10871952767E+02  0.10583706652E+03  0.18079639359E+03  0.22510370924E+03  0.81637368721E+02 0.  0.
         -6    2    1    2    0  501 -0.45272761217E+00 -0.79925404554E+02 -0.34490481200E+02  0.19259785782E+03  0.17180240478E+03 0.  0.
        -24    2    5    5    0    0  0.66820807334E+02 -0.55757369306E+02 -0.24829550354E+02  0.12031199463E+03  0.79275248068E+02 0.  0.
          5    1    3    3  502    0  0.11324680380E+02 -0.25911661971E+02 -0.99016295457E+01  0.30328120275E+02  0.47000000000E+01 0. -1.
        -13    1    4    4    0    0 -0.25916517840E+02  0.82238449288E+00  0.21341656968E+02  0.33582860738E+02  0.00000000000E+00 0.  1.
         14    1    4    4    0    0  0.15044565072E+02  0.10501468203E+03  0.15945473662E+03  0.19152084850E+03  0.00000000000E+00 0. -1.
         -5    1    5    5    0  501 -0.67273534946E+02 -0.24168035248E+02 -0.96609308457E+01  0.72285863187E+02  0.47000000000E+01 0.  1.
         11    1    6    6    0    0 -0.17284671440E+02 -0.34750546715E+01 -0.97271676691E+01  0.20135879981E+02  0.00000000000E+00 0. -1.
        -12    1    6    6    0    0  0.84105478774E+02 -0.52282314635E+02 -0.15102382685E+02  0.10017611465E+03  0.00000000000E+00 0.  1.
</event>
<event>
12    1  0.1348628E-002  0.2901722E+03  0.7818608E-02  0.1090259E+00
         -2   -1    0    0    0  501 -0.00000000000E+00  0.00000000000E+00  0.44632943590E+03  0.44632943590E+03  0.00000000000E+00 0.  1.
          2   -1    0    0  502    0  0.00000000000E+00 -0.00000000000E+00 -0.20317158983E+03  0.20317158983E+03  0.00000000000E+00 0. -1.
          6    2    1    2  502    0  0.17930940168E+03 -0.15011344037E+03  0.20816384815E+03  0.35662678216E+03  0.17077636713E+03 0.  0.
         24    2    3    3    0    0  0.12158177737E+03 -0.62046873386E+02  0.19347963975E+03  0.25020350085E+03  0.80842301764E+02 0.  0.
         -6    2    1    2    0  501 -0.17930940168E+03  0.15011344037E+03  0.34993997921E+02  0.29287424358E+03  0.17281445585E+03 0.  0.
        -24    2    5    5    0    0 -0.14790580780E+03  0.45753127112E+02  0.44461416601E+02  0.18338003045E+03  0.87646684940E+02 0.  0.
          5    1    3    3  502    0  0.57727624307E+02 -0.88066566983E+02  0.14684208396E+02  0.10642328131E+03  0.47000000000E+01 0. -1.
        -11    1    4    4    0    0  0.98352168530E+02 -0.46092684580E+02  0.84432057651E+02  0.13757346032E+03  0.00000000000E+00 0.  1.
         12    1    4    4    0    0  0.23229608842E+02 -0.15954188807E+02  0.10904758210E+03  0.11263004053E+03  0.00000000000E+00 0. -1.
         -5    1    5    5    0  501 -0.31403593883E+02  0.10436031326E+03 -0.94674186799E+01  0.10949421313E+03  0.47000000000E+01 0.  1.
         13    1    6    6    0    0 -0.14693054280E+03  0.37041268019E+02  0.14566387228E+02  0.15222621187E+03  0.00000000000E+00 0. -1.
        -14    1    6    6    0    0 -0.97526499477E+00  0.87118590927E+01  0.29895029373E+02  0.31153818576E+02  0.00000000000E+00 0.  1.
</event>
<event>
12    1  0.1348628E-002  0.2601097E+03  0.7818608E-02  0.1107077E+00
         -4   -1    0    0    0  501 -0.00000000000E+00  0.00000000000E+00  0.11618501953E+03  0.11618501953E+03  0.00000000000E+00 0.  1.
          4   -1    0    0  502    0  0.00000000000E+00 -0.00000000000E+00 -0.75390343555E+03  0.75390343555E+03  0.00000000000E+00 0. -1.
          6    2    1    2  502    0  0.14644376729E+03  0.12611197887E+03 -0.11091520973E+03  0.28238177580E+03  0.17345684006E+03 0.  0.
         24    2    3    3    0    0  0.14234915104E+03  0.12533060865E+03 -0.37979095498E+02  0.20917560679E+03  0.79630273859E+02 0.  0.
         -6    2    1    2    0  501 -0.14644376729E+03 -0.12611197887E+03 -0.52680320629E+03  0.58770667929E+03  0.17472124808E+03 0.  0.
        -24    2    5    5    0    0  0.20061763702E+01 -0.15764202532E+02 -0.16704468246E+03  0.18315470119E+03  0.73411060507E+02 0.  0.
          5    1    3    3  502    0  0.40946162423E+01  0.78137021757E+00 -0.72936114228E+02  0.73206169004E+02  0.47000000000E+01 0. -1.
        -13    1    4    4    0    0  0.20415679170E+02  0.32457459806E+02  0.22433521801E+02  0.44424650291E+02  0.00000000000E+00 0.  1.
         14    1    4    4    0    0  0.12193347187E+03  0.92873148845E+02 -0.60412617300E+02  0.16475095650E+03  0.00000000000E+00 0. -1.
         -5    1    5    5    0  501 -0.14844994366E+03 -0.11034777634E+03 -0.35975852383E+03  0.40455197810E+03  0.47000000000E+01 0.  1.
         11    1    6    6    0    0 -0.31739735935E+02 -0.96098970146E+01 -0.12263515787E+03  0.12703992641E+03  0.00000000000E+00 0. -1.
        -12    1    6    6    0    0  0.33745912305E+02 -0.61543055177E+01 -0.44409524591E+02  0.56114774776E+02  0.00000000000E+00 0.  1.
</event>
<event>
12    1  0.1348628E-002  0.3659783E+03  0.7818608E-02  0.1056241E+00
          2   -1    0    0  502    0  0.00000000000E+00  0.00000000000E+00  0.54915649197E+03  0.54915649197E+03  0.00000000000E+00 0. -1.
         -2   -1    0    0    0  501 -0.00000000000E+00 -0.00000000000E+00 -0.24870309382E+03  0.24870309382E+03  0.00000000000E+00 0.  1.
          6    2    1    2  502    0  0.31413718231E+03  0.73251321741E+02  0.20578242117E+03  0.42013979137E+03  0.17356011634E+03 0.  0.
         24    2    3    3    0    0  0.28629017690E+03  0.12171010539E+02  0.12998456709E+03  0.31878070293E+03  0.51136581699E+02 0.  0.
         -6    2    1    2    0  501 -0.31413718231E+03 -0.73251321741E+02  0.94670976974E+02  0.37771979442E+03  0.17222579300E+03 0.  0.
        -24    2    5    5    0    0 -0.28783016760E+03 -0.72734030495E+02  0.12809545299E+03  0.33492245561E+03  0.87339347511E+02 0.  0.
          5    1    3    3  502    0  0.27847005405E+02  0.61080311202E+02  0.75797854085E+02  0.10135908844E+03  0.47000000000E+01 0. -1.
        -11    1    4    4    0    0  0.17967691843E+03  0.29645430987E+02  0.69140257573E+02  0.19478968611E+03  0.00000000000E+00 0.  1.
         12    1    4    4    0    0  0.10661325847E+03 -0.17474420447E+02  0.60844309517E+02  0.12399101682E+03  0.00000000000E+00 0. -1.
         -5    1    5    5    0  501 -0.26307014711E+02 -0.51729124602E+00 -0.33424476011E+02  0.42797338818E+02  0.47000000000E+01 0.  1.
         13    1    6    6    0    0 -0.12256307054E+03  0.39165902906E+00  0.19564018373E+02  0.12411531119E+03  0.00000000000E+00 0. -1.
        -14    1    6    6    0    0 -0.16526709705E+03 -0.73125689524E+02  0.10853143461E+03  0.21080714441E+03  0.00000000000E+00 0.  1.
</event>
<event>
12    1  0.1348628E-002  0.2397925E+03  0.7818608E-02  0.1119931E+00
         -2   -1    0    0    0  501 -0.00000000000E+00  0.00000000000E+00  0.27626728700E+02  0.27626728700E+02  0.00000000000E+00 0. -1.
          2   -1    0    0  502    0  0.00000000000E+00 -0.00000000000E+00 -0.21140755143E+04  0.21140755143E+04  0.00000000000E+00 0.  1.
          6    2    1    2  502    0 -0.15338880836E+03  0.67614474848E+02 -0.91291866616E+03  0.94406005360E+03  0.17242114155E+03 0.  0.
         24    2    3    3    0    0 -0.15904764573E+03  0.90691846296E+02 -0.64784215651E+03  0.67787922507E+03  0.79370141944E+02 0.  0.
         -6    2    1    2    0  501  0.15338880836E+03 -0.67614474848E+02 -0.11735301194E+04  0.11976421894E+04  0.17051108129E+03 0.  0.
        -24    2    5    5    0    0  0.59067876239E+02 -0.35537544636E+02 -0.29183631735E+03  0.31032521203E+03  0.79883477703E+02 0.  0.
          5    1    3    3  502    0  0.56588373682E+01 -0.23077371448E+02 -0.26507650965E+03  0.26618082854E+03  0.47000000000E+01 0. -1.
        -13    1    4    4    0    0 -0.88377590414E+02  0.93241859564E+02 -0.39788496967E+03  0.41811133919E+03  0.00000000000E+00 0.  1.
         14    1    4    4    0    0 -0.70670055312E+02 -0.25500132684E+01 -0.24995718683E+03  0.25976788588E+03  0.00000000000E+00 0. -1.
         -5    1    5    5    0  501  0.94320932119E+02 -0.32076930212E+02 -0.88169380208E+03  0.88731697737E+03  0.47000000000E+01 0.  1.
         13    1    6    6    0    0 -0.41820834691E+01  0.19912471364E+02 -0.76033669586E+02  0.78709054426E+02  0.00000000000E+00 0. -1.
        -14    1    6    6    0    0  0.63249959708E+02 -0.55450016000E+02 -0.21580264777E+03  0.23161615760E+03  0.00000000000E+00 0.  1.
</event>
<event>
12    1  0.1348628E-002  0.1943074E+03  0.7818608E-02  0.1154633E+00
          1   -1    0    0  502    0  0.00000000000E+00  0.00000000000E+00  0.16173047699E+03  0.16173047699E+03  0.00000000000E+00 0. -1.
         -1   -1    0    0    0  501 -0.00000000000E+00 -0.00000000000E+00 -0.23489409365E+03  0.23489409365E+03  0.00000000000E+00 0.  1.
          6    2    1    2  502    0  0.39994701323E+02  0.81655347967E+02 -0.52240348067E+02  0.20171264897E+03  0.17231299081E+03 0.  0.
         24    2    3    3    0    0  0.40101202828E+02  0.92736928333E+02  0.16592325580E+02  0.13183532985E+03  0.83048206382E+02 0.  0.
         -6    2    1    2    0  501 -0.39994701323E+02 -0.81655347967E+02 -0.20923268592E+02  0.19491192168E+03  0.17113065785E+03 0.  0.
        -24    2    5    5    0    0 -0.11304268780E+02 -0.10967399683E+03  0.21774266425E+02  0.13614666748E+03  0.76848059925E+02 0.  0.
          5    1    3    3  502    0 -0.10650150517E+00 -0.11081580365E+02 -0.68832673647E+02  0.69877319120E+02  0.47000000000E+01 0. -1.
        -11    1    4    4    0    0  0.42321000780E+02  0.76603245177E+01 -0.68722639789E+01  0.43554284415E+02  0.00000000000E+00 0.  1.
         12    1    4    4    0    0 -0.22197979516E+01  0.85076603815E+02  0.23464589559E+02  0.88281045433E+02  0.00000000000E+00 0. -1.
         -5    1    5    5    0  501 -0.28690432543E+02  0.28018648867E+02 -0.42697535018E+02  0.58765254194E+02  0.47000000000E+01 0.  1.
         13    1    6    6    0    0 -0.15194773078E+02 -0.86191883182E+02 -0.18415405449E+02  0.89437402764E+02  0.00000000000E+00 0. -1.
        -14    1    6    6    0    0  0.38905042978E+01 -0.23482113652E+02  0.40189671874E+02  0.46709264719E+02  0.00000000000E+00 0.  1.
</event>
<event>
12    1  0.1348628E-002  0.2220108E+03  0.7818608E-02  0.1132393E+00
         -1   -1    0    0    0  501 -0.00000000000E+00  0.00000000000E+00  0.58518755152E+02  0.58518755152E+02  0.00000000000E+00 0.  1.
          1   -1    0    0  502    0  0.00000000000E+00 -0.00000000000E+00 -0.90412971306E+03  0.90412971306E+03  0.00000000000E+00 0. -1.
          6    2    1    2  502    0 -0.38763713782E+02 -0.13522918230E+03 -0.29730199619E+03  0.37118129684E+03  0.17203930054E+03 0.  0.
         24    2    3    3    0    0  0.37525371535E+02 -0.85343944521E+02 -0.21754529976E+03  0.24997163504E+03  0.80424613789E+02 0.  0.
         -6    2    1    2    0  501  0.38763713782E+02  0.13522918230E+03 -0.54830896172E+03  0.59146717138E+03  0.17146760646E+03 0.  0.
        -24    2    5    5    0    0 -0.34911234738E+02  0.89681980516E+02 -0.22984201634E+03  0.26139773788E+03  0.78992233499E+02 0.  0.
          5    1    3    3  502    0 -0.76289085317E+02 -0.49885237777E+02 -0.79756696427E+02  0.12120966179E+03  0.47000000000E+01 0. -1.
        -11    1    4    4    0    0  0.12916377814E+02 -0.95199714939E+02 -0.16026935113E+03  0.18685845834E+03  0.00000000000E+00 0.  1.
         12    1    4    4    0    0  0.24608993721E+02  0.98557704181E+01 -0.57275948628E+02  0.63113176705E+02  0.00000000000E+00 0. -1.
         -5    1    5    5    0  501  0.73674948520E+02  0.45547201781E+02 -0.31846694538E+03  0.33006943350E+03  0.47000000000E+01 0.  1.
         11    1    6    6    0    0 -0.80234800452E+01  0.31590656926E+02 -0.17219977762E+03  0.17525726589E+03  0.00000000000E+00 0. -1.
        -12    1    6    6    0    0 -0.26887754693E+02  0.58091323591E+02 -0.57642238720E+02  0.86140471983E+02  0.00000000000E+00 0.  1.
</event>
<event>
12    1  0.1348628E-002  0.1873952E+03  0.7818608E-02  0.1160832E+00
          1   -1    0    0  502    0  0.00000000000E+00  0.00000000000E+00  0.13180778575E+03  0.13180778575E+03  0.00000000000E+00 0.  1.
         -1   -1    0    0    0  501 -0.00000000000E+00 -0.00000000000E+00 -0.45204969552E+03  0.45204969552E+03  0.00000000000E+00 0. -1.
          6    2    1    2  502    0  0.64055367419E+02  0.33979484888E+02  0.27166047602E+02  0.18892338367E+03  0.17232630463E+03 0.  0.
         24    2    3    3    0    0  0.17154846892E+02  0.33551175521E+02 -0.30347703076E+02  0.11456100211E+03  0.10384252487E+03 0.  0.
         -6    2    1    2    0  501 -0.64055367419E+02 -0.33979484888E+02 -0.34740795737E+03  0.39493409760E+03  0.17327133956E+03 0.  0.
        -24    2    5    5    0    0 -0.61138896578E+02  0.37841872103E+02 -0.26721683259E+03  0.28714022200E+03  0.76646588406E+02 0.  0.
          5    1    3    3  502    0  0.46900520527E+02  0.42830936765E+00  0.57513750678E+02  0.74362381563E+02  0.47000000000E+01 0. -1.
        -11    1    4    4    0    0  0.11286173911E+02  0.62582381822E+02  0.10140966230E+02  0.64395430212E+02  0.00000000000E+00 0.  1.
         12    1    4    4    0    0  0.58686729815E+01 -0.29031206301E+02 -0.40488669306E+02  0.50165571900E+02  0.00000000000E+00 0. -1.
         -5    1    5    5    0  501 -0.29164708415E+01 -0.71821356991E+02 -0.80191124779E+02  0.10779387559E+03  0.47000000000E+01 0.  1.
         11    1    6    6    0    0 -0.31681768984E+02 -0.28892041860E+01 -0.27017596273E+02  0.41737662790E+02  0.00000000000E+00 0. -1.
        -12    1    6    6    0    0 -0.29457127593E+02  0.40731076289E+02 -0.24019923632E+03  0.24540255921E+03  0.00000000000E+00 0.  1.
</event>
<event>
12    1  0.1348628E-002  0.1800771E+03  0.7818608E-02  0.1167728E+00
          2   -1    0    0  502    0  0.00000000000E+00  0.00000000000E+00  0.45253934689E+03  0.45253934689E+03  0.00000000000E+00 0. -1.
         -2   -1    0    0    0  501 -0.00000000000E+00 -0.00000000000E+00 -0.87270780124E+02  0.87270780124E+02  0.00000000000E+00 0.  1.
          6    2    1    2  502    0  0.18276980034E+02  0.45072875541E+02  0.67266602138E+02  0.19085867250E+03  0.17186222679E+03 0.  0.
         24    2    3    3    0    0 -0.75795987985E+01  0.75277179781E+02  0.88720772049E+02  0.14543583606E+03  0.86925847158E+02 0.  0.
         -6    2    1    2    0  501 -0.18276980034E+02 -0.45072875541E+02  0.29800196462E+03  0.34895145451E+03  0.17491807962E+03 0.  0.
        -24    2    5    5    0    0 -0.91692309612E+01  0.29717841991E+02  0.76358770270E+02  0.11480535028E+03  0.79889809909E+02 0.  0.
          5    1    3    3  502    0  0.25856578833E+02 -0.30204304240E+02 -0.21454169911E+02  0.45422836438E+02  0.47000000000E+01 0. -1.
        -13    1    4    4    0    0  0.40673672301E+01  0.28602968300E+02  0.92765898911E+02  0.97160615851E+02  0.00000000000E+00 0.  1.
         14    1    4    4    0    0 -0.11646966029E+02  0.46674211481E+02 -0.40451268620E+01  0.48275220210E+02  0.00000000000E+00 0. -1.
         -5    1    5    5    0  501 -0.91077490733E+01 -0.74790717532E+02  0.22164319435E+03  0.23414610423E+03  0.47000000000E+01 0.  1.
         13    1    6    6    0    0  0.10853929566E+02  0.54886063522E+01  0.81977540446E+02  0.82874904068E+02  0.00000000000E+00 0. -1.
        -14    1    6    6    0    0 -0.20023160527E+02  0.24229235639E+02 -0.56187701761E+01  0.31930446214E+02  0.00000000000E+00 0.  1.
</event>
<event>
12    1  0.1348628E-002  0.1753400E+03  0.7818608E-02  0.1172391E+00
         -1   -1    0    0    0  501 -0.00000000000E+00  0.00000000000E+00  0.28860954783E+03  0.28860954783E+03  0.00000000000E+00 0.  1.
          1   -1    0    0  502    0  0.00000000000E+00 -0.00000000000E+00 -0.13354596593E+03  0.13354596593E+03  0.00000000000E+00 0. -1.
          6    2    1    2  502    0 -0.13425552591E+02  0.31441435548E+02 -0.17477653866E+02  0.17602998927E+03  0.17179138339E+03 0.  0.
         24    2    3    3    0    0 -0.41075984856E+02 -0.10894420670E+02  0.40121674028E+02  0.99240382552E+02  0.80205859316E+02 0.  0.
         -6    2    1    2    0  501  0.13425552591E+02 -0.31441435548E+02  0.17254123577E+03  0.24612552449E+03  0.17215831793E+03 0.  0.
        -24    2    5    5    0    0  0.59282301537E+02 -0.28190769022E+02  0.50083749008E+02  0.11523880125E+03  0.80389605456E+02 0.  0.
          5    1    3    3  502    0  0.27650432264E+02  0.42335856218E+02 -0.57599327894E+02  0.76789606718E+02  0.47000000000E+01 0. -1.
        -13    1    4    4    0    0 -0.32976235990E+02 -0.42564540770E+02  0.39085342863E+02  0.66534474506E+02  0.00000000000E+00 0.  1.
         14    1    4    4    0    0 -0.80997488657E+01  0.31670120100E+02  0.10363311652E+01  0.32705908046E+02  0.00000000000E+00 0. -1.
         -5    1    5    5    0  501 -0.45856748945E+02 -0.32506665260E+01  0.12245748676E+03  0.13088672324E+03  0.47000000000E+01 0.  1.
         11    1    6    6    0    0 -0.11352298835E+02  0.10089480172E+02 -0.69598011600E+01  0.16706619382E+02  0.00000000000E+00 0. -1.
        -12    1    6    6    0    0  0.70634600371E+02 -0.38280249194E+02  0.57043550168E+02  0.98532181869E+02  0.00000000000E+00 0.  1.
</event>
<event>
12    1  0.1348628E-002  0.1794105E+03  0.7818608E-02  0.1168375E+00
          1   -1    0    0  502    0  0.00000000000E+00  0.00000000000E+00  0.40085654793E+03  0.40085654793E+03  0.00000000000E+00 0.  1.
         -1   -1    0    0    0  501 -0.00000000000E+00 -0.00000000000E+00 -0.88310367250E+02  0.88310367250E+02  0.00000000000E+00 0. -1.
          6    2    1    2  502    0 -0.46930429834E+02 -0.46797978320E+00  0.23044534430E+03  0.29244463962E+03  0.17382786394E+03 0.  0.
         24    2    3    3    0    0  0.72618901612E+01  0.11676376678E+02  0.22399186620E+03  0.23633732887E+03  0.74120874746E+02 0.  0.
         -6    2    1    2    0  501  0.46930429834E+02  0.46797978320E+00  0.82100836379E+02  0.19672227556E+03  0.17250049889E+03 0.  0.
        -24    2    5    5    0    0  0.56938169009E+02  0.62198933013E+02  0.53524795260E+02  0.12780532876E+03  0.79741055884E+02 0.  0.
          5    1    3    3  502    0 -0.54192319995E+02 -0.12144356461E+02  0.64534781043E+01  0.56107310753E+02  0.47000000000E+01 0. -1.
        -11    1    4    4    0    0 -0.11028277639E+02 -0.43258701619E+01  0.20539394894E+03  0.20573529187E+03  0.00000000000E+00 0.  1.
         12    1    4    4    0    0  0.18290167800E+02  0.16002246840E+02  0.18597917259E+02  0.30602036998E+02  0.00000000000E+00 0. -1.
         -5    1    5    5    0  501 -0.10007739175E+02 -0.61730953230E+02  0.28576041119E+02  0.68916946799E+02  0.47000000000E+01 0.  1.
         13    1    6    6    0    0 -0.84432968476E+01 -0.65436497467E+00 -0.12869992741E+02  0.15406302877E+02  0.00000000000E+00 0. -1.
        -14    1    6    6    0    0  0.65381465857E+02  0.62853297988E+02  0.66394788001E+02  0.11239902588E+03  0.00000000000E+00 0.  1.
</event>
<event>
12    1  0.1348628E-002  0.2242497E+03  0.7818608E-02  0.1130754E+00
         -1   -1    0    0    0  501 -0.00000000000E+00  0.00000000000E+00  0.52271818894E+03  0.52271818894E+03  0.00000000000E+00 0. -1.
          1   -1    0    0  502    0  0.00000000000E+00 -0.00000000000E+00 -0.96217767447E+02  0.96217767447E+02  0.00000000000E+00 0.  1.
          6    2    1    2  502    0 -0.11824603627E+03  0.80412123244E+02  0.20925329441E+03  0.30509032322E+03  0.16983795053E+03 0.  0.
         24    2    3    3    0    0 -0.13133725866E+03  0.10107878650E+03  0.13586638143E+03  0.22759051631E+03  0.76624884459E+02 0.  0.
         -6    2    1    2    0  501  0.11824603627E+03 -0.80412123244E+02  0.21724712708E+03  0.31384563317E+03  0.17565458313E+03 0.  0.
        -24    2    5    5    0    0  0.89646935067E+02 -0.12139237264E+03  0.19403028716E+03  0.25854282052E+03  0.80149588926E+02 0.  0.
          5    1    3    3  502    0  0.13091222389E+02 -0.20666663260E+02  0.73386912977E+02  0.77499806904E+02  0.47000000000E+01 0. -1.
        -13    1    4    4    0    0 -0.66514656054E+02  0.54259732488E+01  0.56109656988E+02  0.87189071924E+02  0.00000000000E+00 0.  1.
         14    1    4    4    0    0 -0.64822602605E+02  0.95652813255E+02  0.79756724447E+02  0.14040144439E+03  0.00000000000E+00 0. -1.
         -5    1    5    5    0  501  0.28599101203E+02  0.40980249400E+02  0.23216839915E+02  0.55302812642E+02  0.47000000000E+01 0.  1.
         13    1    6    6    0    0  0.71038614914E+02 -0.58297240562E+02  0.15991851235E+03  0.18444235864E+03  0.00000000000E+00 0. -1.
        -14    1    6    6    0    0  0.18608320153E+02 -0.63095132082E+02  0.34111774810E+02  0.74100461888E+02  0.00000000000E+00 0.  1.
</event>
<event>
12    1  0.1348628E-002  0.1854286E+03  0.7818608E-02  0.1162650E+00
          1   -1    0    0  502    0  0.00000000000E+00  0.00000000000E+00  0.61789804572E+03  0.61789804572E+03  0.00000000000E+00 0. -1.
         -1   -1    0    0    0  501 -0.00000000000E+00 -0.00000000000E+00 -0.77350240726E+02  0.77350240726E+02  0.00000000000E+00 0.  1.
          6    2    1    2  502    0  0.61849291699E+02 -0.33385243943E+02  0.45445329990E+03  0.49084167368E+03  0.17163285650E+03 0.  0.
         24    2    3    3    0    0 -0.14886705219E+02  0.16715343550E+02  0.13098672109E+03  0.15461080106E+03  0.79031398836E+02 0.  0.
         -6    2    1    2    0  501 -0.61849291699E+02  0.33385243943E+02  0.86094505091E+02  0.20440661277E+03  0.17155142127E+03 0.  0.
        -24    2    5    5    0    0  0.20147400839E+02 -0.35453705703E+01  0.72926606213E+02  0.11339666036E+03  0.84392092489E+02 0.  0.
          5    1    3    3  502    0  0.76735996918E+02 -0.50100587493E+02  0.32346657881E+03  0.33623087261E+03  0.47000000000E+01 0. -1.
        -13    1    4    4    0    0 -0.19218210740E+02 -0.19876434811E+02  0.10730494692E+03  0.11080958405E+03  0.00000000000E+00 0.  1.
         14    1    4    4    0    0  0.43315055212E+01  0.36591778361E+02  0.23681774166E+02  0.43801217007E+02  0.00000000000E+00 0. -1.
         -5    1    5    5    0  501 -0.81996692538E+02  0.36930614514E+02  0.13167898878E+02  0.91009952403E+02  0.47000000000E+01 0.  1.
         11    1    6    6    0    0  0.32638087734E+02  0.33839380157E+02  0.45091461727E+02  0.65142830312E+02  0.00000000000E+00 0. -1.
        -12    1    6    6    0    0 -0.12490686895E+02 -0.37384750728E+02  0.27835144486E+02  0.48253830051E+02  0.00000000000E+00 0.  1.
</event>
<event>
12    1  0.1348628E-002  0.2128083E+03  0.7818608E-02  0.1139361E+00
          2   -1    0    0  502    0  0.00000000000E+00  0.00000000000E+00  0.18387717855E+04  0.18387717855E+04  0.00000000000E+00 0. -1.
         -2   -1    0    0    0  501 -0.00000000000E+00 -0.00000000000E+00 -0.27766254868E+02  0.27766254868E+02  0.00000000000E+00 0.  1.
          6    2    1    2  502    0  0.58164854307E+02 -0.11128348339E+03  0.12185896182E+04  0.12370040855E+04  0.17161376975E+03 0.  0.
         24    2    3    3    0    0  0.92267778098E+02 -0.76081068403E+02  0.62347946087E+03  0.63986054429E+03  0.79957527274E+02 0.  0.
         -6    2    1    2    0  501 -0.58164854307E+02  0.11128348339E+03  0.59241591240E+03  0.62953395485E+03  0.17201518274E+03 0.  0.
        -24    2    5    5    0    0 -0.81134910815E+02  0.31008725175E+02  0.24609889525E+03  0.27326267244E+03  0.81014857382E+02 0.  0.
          5    1    3    3  502    0 -0.34102923791E+02 -0.35202414987E+02  0.59511015733E+03  0.59714354119E+03  0.47000000000E+01 0. -1.
        -11    1    4    4    0    0  0.97293584016E+02 -0.86550787514E+02  0.53487732551E+03  0.55050053011E+03  0.00000000000E+00 0.  1.
         12    1    4    4    0    0 -0.50258059177E+01  0.10469719111E+02  0.88602135356E+02  0.89360014173E+02  0.00000000000E+00 0. -1.
         -5    1    5    5    0  501  0.22970056508E+02  0.80274758214E+02  0.34631701715E+03  0.35627128241E+03  0.47000000000E+01 0.  1.
         11    1    6    6    0    0 -0.62494621663E+02  0.27026413393E+01  0.22454985420E+03  0.23309980486E+03  0.00000000000E+00 0. -1.
        -12    1    6    6    0    0 -0.18640289153E+02  0.28306083836E+02  0.21549041051E+02  0.40162867578E+02  0.00000000000E+00 0.  1.
</event>
<event>
12    1  0.1348628E-002  0.2510009E+03  0.7818608E-02  0.1112674E+00
          2   -1    0    0  502    0  0.00000000000E+00  0.00000000000E+00  0.14459691644E+04  0.14459691644E+04  0.00000000000E+00 0.  1.
         -2   -1    0    0    0  501 -0.00000000000E+00 -0.00000000000E+00 -0.51003026484E+02  0.51003026484E+02  0.00000000000E+00 0. -1.
          6    2    1    2  502    0  0.30611523170E+02 -0.18336344086E+03  0.98259453974E+03  0.10140822452E+04  0.16826037492E+03 0.  0.
         24    2    3    3    0    0  0.72963819868E+02 -0.16463158349E+03  0.87589047032E+03  0.89766726360E+03  0.78709102760E+02 0.  0.
         -6    2    1    2    0  501 -0.30611523170E+02  0.18336344086E+03  0.41237159815E+03  0.48288994563E+03  0.16903593651E+03 0.  0.
        -24    2    5    5    0    0  0.25194698072E+02  0.69619265829E+02  0.27493538421E+03  0.29590632446E+03  0.80557261495E+02 0.  0.
          5    1    3    3  502    0 -0.42352296698E+02 -0.18731857374E+02  0.10670406942E+03  0.11641498163E+03  0.47000000000E+01 0. -1.
        -11    1    4    4    0    0  0.40846085250E+01 -0.10596190275E+03  0.47613904078E+03  0.48780425891E+03  0.00000000000E+00 0.  1.
         12    1    4    4    0    0  0.68879211343E+02 -0.58669680741E+02  0.39975142954E+03  0.40986300469E+03  0.00000000000E+00 0. -1.
         -5    1    5    5    0  501 -0.55806221242E+02  0.11374417503E+03  0.13743621394E+03  0.18698362117E+03  0.47000000000E+01 0.  1.
         11    1    6    6    0    0  0.67885910627E+01  0.10552347648E+02 -0.14958944564E+01  0.12636245871E+02  0.00000000000E+00 0. -1.
        -12    1    6    6    0    0  0.18406107010E+02  0.59066918181E+02  0.27643127867E+03  0.28327007859E+03  0.00000000000E+00 0.  1.
</event>
<event>
12    1  0.1348628E-002  0.2066480E+03  0.7818608E-02  0.1144248E+00
          1   -1    0    0  502    0  0.00000000000E+00  0.00000000000E+00  0.62806472003E+03  0.62806472003E+03  0.00000000000E+00 0.  1.
         -1   -1    0    0    0  501 -0.00000000000E+00 -0.00000000000E+00 -0.77227339833E+02  0.77227339833E+02  0.00000000000E+00 0. -1.
          6    2    1    2  502    0  0.10952620944E+03 -0.33095989419E+02  0.15395469576E+03  0.25802318030E+03  0.17257629663E+03 0.  0.
         24    2    3    3    0    0  0.36082536380E+02 -0.12055621647E+00  0.15365033268E+03  0.17737868301E+03  0.80949419316E+02 0.  0.
         -6    2    1    2    0  501 -0.10952620944E+03  0.33095989419E+02  0.39688268443E+03  0.44726887955E+03  0.17158744228E+03 0.  0.
        -24    2    5    5    0    0 -0.24286123085E+02  0.67555460425E+02  0.27187082697E+03  0.29201624039E+03  0.78779325226E+02 0.  0.
          5    1    3    3  502    0  0.73443673059E+02 -0.32975433203E+02  0.30436308255E+00  0.80644497296E+02  0.47000000000E+01 0. -1.
        -13    1    4    4    0    0 -0.10649724360E+02  0.30464742809E+02  0.47403781133E+02  0.57346627182E+02  0.00000000000E+00 0.  1.
         14    1    4    4    0    0  0.46732260740E+02 -0.30585299026E+02  0.10624655155E+03  0.12003205583E+03  0.00000000000E+00 0. -1.
         -5    1    5    5    0  501 -0.85240086353E+02 -0.34459471006E+02  0.12501185746E+03  0.15525263917E+03  0.47000000000E+01 0.  1.
         13    1    6    6    0    0 -0.18548487108E+01 -0.15484269154E+00 -0.54029973851E+01  0.57146146627E+01  0.00000000000E+00 0. -1.
        -14    1    6    6    0    0 -0.22431274374E+02  0.67710303116E+02  0.27727382436E+03  0.28630162572E+03  0.00000000000E+00 0.  1.
</event>
<event>
12    1  0.1348628E-002  0.1966710E+03  0.7818608E-02  0.1152578E+00
         -2   -1    0    0    0  501 -0.00000000000E+00  0.00000000000E+00  0.42836881276E+02  0.42836881276E+02  0.00000000000E+00 0.  1.
          2   -1    0    0  502    0  0.00000000000E+00 -0.00000000000E+00 -0.92988365860E+03  0.92988365860E+03  0.00000000000E+00 0. -1.
          6    2    1    2  502    0  0.33200550315E+02  0.89286162460E+02 -0.52606189843E+03  0.56158518031E+03  0.17193748402E+03 0.  0.
         24    2    3    3    0    0 -0.41541429543E+02  0.17427324870E+02 -0.19967073626E+03  0.21908943312E+03  0.78117698180E+02 0.  0.
         -6    2    1    2    0  501 -0.33200550315E+02 -0.89286162460E+02 -0.36098487889E+03  0.41113535957E+03  0.17218567231E+03 0.  0.
        -24    2    5    5    0    0  0.48122170887E+02 -0.60791515732E+02 -0.21204683838E+03  0.23900180739E+03  0.78400577486E+02 0.  0.
          5    1    3    3  502    0  0.74741979858E+02  0.71858837591E+02 -0.32639116217E+03  0.34249574718E+03  0.47000000000E+01 0. -1.
        -11    1    4    4    0    0 -0.19333354359E+02 -0.24784390338E+02 -0.32362727135E+02  0.45115304529E+02  0.00000000000E+00 0.  1.
         12    1    4    4    0    0 -0.22208075184E+02  0.42211715208E+02 -0.16730800912E+03  0.17397412860E+03  0.00000000000E+00 0. -1.
         -5    1    5    5    0  501 -0.81322721202E+02 -0.28494646728E+02 -0.14893804051E+03  0.17213355218E+03  0.47000000000E+01 0.  1.
         13    1    6    6    0    0  0.45951590976E+02 -0.30675820625E+02 -0.51135314673E+02  0.75281970557E+02  0.00000000000E+00 0. -1.
        -14    1    6    6    0    0  0.21705799108E+01 -0.30115695107E+02 -0.16091152371E+03  0.16371983683E+03  0.00000000000E+00 0.  1.
</event>
<event>
12    1  0.1348628E-002  0.1789984E+03  0.7818608E-02  0.1168776E+00
          1   -1    0    0  502    0  0.00000000000E+00  0.00000000000E+00  0.18188899873E+03  0.18188899873E+03  0.00000000000E+00 0. -1.
         -1   -1    0    0    0  501 -0.00000000000E+00 -0.00000000000E+00 -0.19556224716E+03  0.19556224716E+03  0.00000000000E+00 0.  1.
          6    2    1    2  502    0 -0.28724047532E+02 -0.41904691388E+02 -0.66312578151E+02  0.19163801312E+03  0.17247230498E+03 0.  0.
         24    2    3    3    0    0 -0.34465038107E+02  0.25801783927E+02  0.86213699189E+01  0.90374434546E+02  0.78991388738E+02 0.  0.
         -6    2    1    2    0  501  0.28724047532E+02  0.41904691388E+02  0.52639329718E+02  0.18581323278E+03  0.17080569187E+03 0.  0.
        -24    2    5    5    0    0 -0.24167116371E+02  0.42647785192E+02 -0.18797216302E+02  0.96800326325E+02  0.81327023433E+02 0.  0.
          5    1    3    3  502    0  0.57409905752E+01 -0.67706475316E+02 -0.74933948070E+02  0.10126357857E+03  0.47000000000E+01 0. -1.
        -11    1    4    4    0    0 -0.11066374348E+02  0.27470367926E+02 -0.31915466856E+02  0.43539439361E+02  0.00000000000E+00 0.  1.
         12    1    4    4    0    0 -0.23398663759E+02 -0.16685839983E+01  0.40536836775E+02  0.46834995185E+02  0.00000000000E+00 0. -1.
         -5    1    5    5    0  501  0.52891163904E+02 -0.74309380326E+00  0.71436546021E+02  0.89012906451E+02  0.47000000000E+01 0.  1.
         11    1    6    6    0    0 -0.37199268094E+02 -0.10172958260E+02  0.18498150129E+01  0.38609538227E+02  0.00000000000E+00 0. -1.
        -12    1    6    6    0    0  0.13032151723E+02  0.52820743452E+02 -0.20647031315E+02  0.58190788098E+02  0.00000000000E+00 0.  1.
</event>
<event>
12    1  0.1348628E-002  0.1829316E+03  0.7818608E-02  0.1164996E+00
          2   -1    0    0  502    0  0.00000000000E+00  0.00000000000E+00  0.34420487809E+03  0.34420487809E+03  0.00000000000E+00 0. -1.
         -2   -1    0    0    0  501 -0.00000000000E+00 -0.00000000000E+00 -0.12161217932E+03  0.12161217932E+03  0.00000000000E+00 0.  1.
          6    2    1    2  502    0 -0.56108959881E+02  0.72244010517E+02  0.65280246029E+01  0.18208795661E+03  0.15730860244E+03 0.  0.
         24    2    3    3    0    0 -0.55657142189E+02  0.39820199097E+02 -0.49909256676E+02  0.11682874726E+03  0.80465250584E+02 0.  0.
         -6    2    1    2    0  501  0.56108959881E+02 -0.72244010517E+02  0.21606467416E+03  0.28372910081E+03  0.15953321532E+03 0.  0.
        -24    2    5    5    0    0 -0.23755706399E+01 -0.15214392293E+02  0.17268848768E+03  0.19112023936E+03  0.80427054195E+02 0.  0.
          5    1    3    3  502    0 -0.45181769246E+00  0.32423811420E+02  0.56437281279E+02  0.65259209345E+02  0.47000000000E+01 0. -1.
        -13    1    4    4    0    0 -0.24174918789E+02 -0.22740388171E+02 -0.48293261574E+01  0.33539146438E+02  0.00000000000E+00 0.  1.
         14    1    4    4    0    0 -0.31482223400E+02  0.62560587269E+02 -0.45079930519E+02  0.83289600822E+02  0.00000000000E+00 0. -1.
         -5    1    5    5    0  501  0.58484530521E+02 -0.57029618224E+02  0.43376186481E+02  0.92608861448E+02  0.47000000000E+01 0.  1.
         11    1    6    6    0    0  0.13466207414E+02  0.10443196301E+02  0.15546031457E+03  0.15639152310E+03  0.00000000000E+00 0. -1.
        -12    1    6    6    0    0 -0.15841778054E+02 -0.25657588594E+02  0.17228173112E+02  0.34728716261E+02  0.00000000000E+00 0.  1.
</event>
<event>
12    1  0.1348628E-002  0.2206525E+03  0.7818608E-02  0.1133398E+00
          2   -1    0    0  502    0  0.00000000000E+00  0.00000000000E+00  0.57947327152E+03  0.57947327152E+03  0.00000000000E+00 0. -1.
         -2   -1    0    0    0  501 -0.00000000000E+00 -0.00000000000E+00 -0.84656532556E+02  0.84656532556E+02  0.00000000000E+00 0.  1.
          6    2    1    2  502    0  0.85989306132E+02 -0.11243283012E+03  0.27380474614E+03  0.35039868351E+03  0.16665802213E+03 0.  0.
         24    2    3    3    0    0  0.10501850145E+03 -0.67247071848E+02  0.12486713182E+03  0.19352814458E+03  0.79437320052E+02 0.  0.
         -6    2    1    2    0  501 -0.85989306132E+02  0.11243283012E+03  0.22101199282E+03  0.31373112057E+03  0.17188837361E+03 0.  0.
        -24    2    5    5    0    0 -0.91627474616E+02  0.56266370423E+02  0.64697945039E+02  0.14747038656E+03  0.77460908040E+02 0.  0.
          5    1    3    3  502    0 -0.19029195317E+02 -0.45185758267E+02  0.14893761431E+03  0.15687053892E+03  0.47000000000E+01 0. -1.
        -11    1    4    4    0    0  0.99622826068E+02 -0.62614579387E+02  0.67359415623E+02  0.13558238786E+03  0.00000000000E+00 0.  1.
         12    1    4    4    0    0  0.53956753804E+01 -0.46324924606E+01  0.57507716199E+02  0.57945756718E+02  0.00000000000E+00 0. -1.
         -5    1    5    5    0  501  0.56381684837E+01  0.56166459692E+02  0.15631404778E+03  0.16626073401E+03  0.47000000000E+01 0.  1.
         13    1    6    6    0    0 -0.33782437379E+02  0.59365440811E+02  0.57136360858E+02  0.89050953785E+02  0.00000000000E+00 0. -1.
        -14    1    6    6    0    0 -0.57845037237E+02 -0.30990703881E+01  0.75615841812E+01  0.58419432773E+02  0.00000000000E+00 0.  1.
</event>
<event>
12    1  0.1348628E-002  0.2057117E+03  0.7818608E-02  0.1145008E+00
          2   -1    0    0  502    0  0.00000000000E+00  0.00000000000E+00  0.26214533613E+03  0.26214533613E+03  0.00000000000E+00 0.  1.
         -2   -1    0    0    0  501 -0.00000000000E+00 -0.00000000000E+00 -0.19935473619E+03  0.19935473619E+03  0.00000000000E+00 0. -1.
          6    2    1    2  502    0  0.12774855070E+02  0.11079139274E+03  0.13211803811E+03  0.24500510182E+03  0.17359261015E+03 0.  0.
         24    2    3    3    0    0  0.13506814102E+02  0.96447637692E+02  0.16640104429E+03  0.20753920284E+03  0.76802554196E+02 0.  0.
         -6    2    1    2    0  501 -0.12774855070E+02 -0.11079139274E+03 -0.69327438172E+02  0.21649497050E+03  0.17212161090E+03 0.  0.
        -24    2    5    5    0    0 -0.70916171959E+02 -0.52150718231E+02 -0.59246295541E+02  0.13317113913E+03  0.80471286218E+02 0.  0.
          5    1    3    3  502    0 -0.73195903208E+00  0.14343755049E+02 -0.34283006188E+02  0.37465898978E+02  0.47000000000E+01 0. -1.
        -11    1    4    4    0    0  0.45463120424E+02  0.51761204583E+02  0.86694434851E+02  0.11073410790E+03  0.00000000000E+00 0.  1.
         12    1    4    4    0    0 -0.31956306322E+02  0.44686433109E+02  0.79706609444E+02  0.96805094942E+02  0.00000000000E+00 0. -1.
         -5    1    5    5    0  501  0.58141316889E+02 -0.58640674509E+02 -0.10081142630E+02  0.83323831364E+02  0.47000000000E+01 0.  1.
         13    1    6    6    0    0 -0.67705467427E+02 -0.88129184190E+01 -0.12619338373E+02  0.69433029255E+02  0.00000000000E+00 0. -1.
        -14    1    6    6    0    0 -0.32107045318E+01 -0.43337799812E+02 -0.46626957169E+02  0.63738109879E+02  0.00000000000E+00 0.  1.
</event>
<event>
12    1  0.1348628E-002  0.1835609E+03  0.7818608E-02  0.1164401E+00
         -2   -1    0    0    0  501 -0.00000000000E+00  0.00000000000E+00  0.27374898011E+02  0.27374898011E+02  0.00000000000E+00 0. -1.
          2   -1    0    0  502    0  0.00000000000E+00 -0.00000000000E+00 -0.13772473070E+04  0.13772473070E+04  0.00000000000E+00 0.  1.
          6    2    1    2  502    0  0.88585728003E+01 -0.56933620409E+02 -0.44151075082E+03  0.47762504745E+03  0.17284105827E+03 0.  0.
         24    2    3    3    0    0 -0.47586068119E+02 -0.20937628988E+02 -0.13182773655E+03  0.16075383038E+03  0.75897454962E+02 0.  0.
         -6    2    1    2    0  501 -0.88585728003E+01  0.56933620409E+02 -0.90836165818E+03  0.92699715757E+03  0.17573535968E+03 0.  0.
        -24    2    5    5    0    0 -0.54258316120E+02 -0.16425390642E+02 -0.50668190621E+03  0.51613051942E+03  0.80314386476E+02 0.  0.
          5    1    3    3  502    0  0.56444640920E+02 -0.35995991421E+02 -0.30968301427E+03  0.31687121708E+03  0.47000000000E+01 0. -1.
        -13    1    4    4    0    0 -0.12094021889E+02 -0.32091423866E+02 -0.13740767508E+02  0.36945007009E+02  0.00000000000E+00 0.  1.
         14    1    4    4    0    0 -0.35492046230E+02  0.11153794877E+02 -0.11808696904E+03  0.12380882337E+03  0.00000000000E+00 0. -1.
         -5    1    5    5    0  501  0.45399743320E+02  0.73359011051E+02 -0.40167975197E+03  0.41086663814E+03  0.47000000000E+01 0.  1.
         11    1    6    6    0    0 -0.67198743169E+02  0.10362139249E+02 -0.37676246644E+03  0.38284853550E+03  0.00000000000E+00 0. -1.
        -12    1    6    6    0    0  0.12940427049E+02 -0.26787529890E+02 -0.12991943977E+03  0.13328198393E+03  0.00000000000E+00 0.  1.
</event>
<event>
12    1  0.1348628E-002  0.3599369E+03  0.7818608E-02  0.1058609E+00
         -2   -1    0    0    0  501 -0.00000000000E+00  0.00000000000E+00  0.12992813023E+03  0.12992813023E+03  0.00000000000E+00 0.  1.
          2   -1    0    0  502    0  0.00000000000E+00 -0.00000000000E+00 -0.12785693620E+04  0.12785693620E+04  0.00000000000E+00 0. -1.
          6    2    1    2  502    0  0.12015842933E+03 -0.29263288052E+03 -0.90493037241E+03  0.97394363680E+03  0.17203249068E+03 0.  0.
         24    2    3    3    0    0  0.12330892205E+03 -0.19680117445E+03 -0.48868727370E+03  0.54677382429E+03  0.78807175645E+02 0.  0.
         -6    2    1    2    0  501 -0.12015842933E+03  0.29263288052E+03 -0.24371085935E+03  0.43455385541E+03  0.17137683445E+03 0.  0.
        -24    2    5    5    0    0 -0.30447098534E+00  0.71757348339E+02 -0.64971145897E+02  0.12613701538E+03  0.80870805037E+02 0.  0.
          5    1    3    3  502    0 -0.31504927201E+01 -0.95831706075E+02 -0.41624309871E+03  0.42716981251E+03  0.47000000000E+01 0. -1.
        -13    1    4    4    0    0  0.11212717913E+03 -0.18599817139E+03 -0.48406526786E+03  0.53055349175E+03  0.00000000000E+00 0.  1.
         14    1    4    4    0    0  0.11181742922E+02 -0.10803003055E+02 -0.46220058416E+01  0.16220332542E+02  0.00000000000E+00 0. -1.
         -5    1    5    5    0  501 -0.11985395834E+03  0.22087553219E+03 -0.17873971345E+03  0.30841684003E+03  0.47000000000E+01 0.  1.
         11    1    6    6    0    0 -0.32364611740E+02  0.50742290907E+02 -0.63910637239E+02  0.87788482911E+02  0.00000000000E+00 0. -1.
        -12    1    6    6    0    0  0.32060140755E+02  0.21015057432E+02 -0.10605086576E+01  0.38348532471E+02  0.00000000000E+00 0.  1.
</event>
<event>
12    1  0.1348628E-002  0.1782312E+03  0.7818608E-02  0.1169526E+00
         -2   -1    0    0    0  501 -0.00000000000E+00  0.00000000000E+00  0.21027130900E+04  0.21027130900E+04  0.00000000000E+00 0. -1.
          2   -1    0    0  502    0  0.00000000000E+00 -0.00000000000E+00 -0.20156690653E+02  0.20156690653E+02  0.00000000000E+00 0.  1.
          6    2    1    2  502    0 -0.12830412856E+02 -0.45748346596E+02  0.15750711698E+04  0.15851888715E+04  0.17238630376E+03 0.  0.
         24    2    3    3    0    0  0.47152696047E+02  0.24266811077E+01  0.10942744080E+04  0.10982531234E+04  0.80586459755E+02 0.  0.
         -6    2    1    2    0  501  0.12830412856E+02  0.45748346596E+02  0.50748522959E+03  0.53768090919E+03  0.17117818534E+03 0.  0.
        -24    2    5    5    0    0  0.45715664970E+01 -0.13986940274E+02  0.43919706960E+03  0.44645659315E+03  0.78821887214E+02 0.  0.
          5    1    3    3  502    0 -0.59983108903E+02 -0.48175027704E+02  0.48079676179E+03  0.48693574812E+03  0.47000000000E+01 0. -1.
        -13    1    4    4    0    0  0.24974734507E+02  0.41508589351E+02  0.57916278255E+03  0.58118519342E+03  0.00000000000E+00 0.  1.
         14    1    4    4    0    0  0.22177961540E+02 -0.39081908243E+02  0.51511162542E+03  0.51706792994E+03  0.00000000000E+00 0. -1.
         -5    1    5    5    0  501  0.82588463590E+01  0.59735286870E+02  0.68288159992E+02  0.91224316033E+02  0.47000000000E+01 0.  1.
         11    1    6    6    0    0  0.15829243592E+02 -0.43746948966E+02  0.21216748101E+03  0.21720819619E+03  0.00000000000E+00 0. -1.
        -12    1    6    6    0    0 -0.11257677095E+02  0.29760008692E+02  0.22702958860E+03  0.22924839696E+03  0.00000000000E+00 0.  1.
</event>
<event>
12    1  0.1348628E-002  0.1983258E+03  0.7818608E-02  0.1151159E+00
          1   -1    0    0  502    0  0.00000000000E+00  0.00000000000E+00  0.68368821721E+03  0.68368821721E+03  0.00000000000E+00 0. -1.
         -1   -1    0    0    0  501 -0.00000000000E+00 -0.00000000000E+00 -0.58581397656E+02  0.58581397656E+02  0.00000000000E+00 0.  1.
          6    2    1    2  502    0  0.56557106781E+02 -0.81594100867E+02  0.26292068399E+03  0.32936022316E+03  0.17173982330E+03 0.  0.
         24    2    3    3    0    0  0.24317467347E+01 -0.57637922322E+02  0.43269835886E+02  0.10182552654E+03  0.71889607571E+02 0.  0.
         -6    2    1    2    0  501 -0.56557106781E+02  0.81594100867E+02  0.36218613556E+03  0.41290939171E+03  0.17163643361E+03 0.  0.
        -24    2    5    5    0    0  0.99302200959E+01  0.97810268298E+02  0.19663648833E+03  0.23371032803E+03  0.79304167808E+02 0.  0.
          5    1    3    3  502    0  0.54125360047E+02 -0.23956178545E+02  0.21965084811E+03  0.22753469662E+03  0.47000000000E+01 0. -1.
        -13    1    4    4    0    0  0.84768819361E+01  0.15960379867E+02  0.11602813681E+02  0.21475952556E+02  0.00000000000E+00 0.  1.
         14    1    4    4    0    0 -0.60451352014E+01 -0.73598302190E+02  0.31667022204E+02  0.80349573988E+02  0.00000000000E+00 0. -1.
         -5    1    5    5    0  501 -0.66487326877E+02 -0.16216167431E+02  0.16554964724E+03  0.17919906367E+03  0.47000000000E+01 0.  1.
         13    1    6    6    0    0  0.40176308723E+01  0.22608159207E+02  0.13315139710E+03  0.13511685598E+03  0.00000000000E+00 0. -1.
        -14    1    6    6    0    0  0.59125892236E+01  0.75202109090E+02  0.63485091227E+02  0.98593472051E+02  0.00000000000E+00 0.  1.
</event>
<event>
12    1  0.1348628E-002  0.1985590E+03  0.7818608E-02  0.1150960E+00
         -2   -1    0    0    0  501 -0.00000000000E+00  0.00000000000E+00  0.19752422122E+02  0.19752422122E+02  0.00000000000E+00 0. -1.
          2   -1    0    0  502    0  0.00000000000E+00 -0.00000000000E+00 -0.20778517264E+04  0.20778517264E+04  0.00000000000E+00 0.  1.
          6    2    1    2  502    0  0.10145527382E+03  0.45063777321E+01 -0.81953908703E+03  0.84318613505E+03  0.17030872892E+03 0.  0.
         24    2    3    3    0    0  0.48773505436E+02 -0.46266122313E+02 -0.28400704304E+03  0.30265872999E+03  0.80142981208E+02 0.  0.
         -6    2    1    2    0  501 -0.10145527382E+03 -0.45063777321E+01 -0.12385602172E+04  0.12544180134E+04  0.17093759313E+03 0.  0.
        -24    2    5    5    0    0 -0.51724296561E+01 -0.40986685813E+02 -0.50351784529E+03  0.51218450740E+03  0.84238273097E+02 0.  0.
          5    1    3    3  502    0  0.52681768383E+02  0.50772500046E+02 -0.53553204400E+03  0.54052740507E+03  0.47000000000E+01 0. -1.
        -13    1    4    4    0    0  0.29590928419E+02 -0.14950274125E+01 -0.22121374231E+03  0.22318910802E+03  0.00000000000E+00 0.  1.
         14    1    4    4    0    0  0.19182577017E+02 -0.44771094901E+02 -0.62793300726E+02  0.79469621968E+02  0.00000000000E+00 0. -1.
         -5    1    5    5    0  501 -0.96282844163E+02  0.36480308081E+02 -0.73504237192E+03  0.74223350603E+03  0.47000000000E+01 0.  1.
         11    1    6    6    0    0 -0.52646130026E+01  0.14691997785E+02 -0.19508043063E+02  0.24982687868E+02  0.00000000000E+00 0. -1.
        -12    1    6    6    0    0  0.92183346470E-01 -0.55678683598E+02 -0.48400980222E+03  0.48720181953E+03  0.00000000000E+00 0.  1.
</event>
<event>
12    1  0.1348628E-002  0.4203392E+03  0.7818608E-02  0.1036956E+00
         -2   -1    0    0    0  501 -0.00000000000E+00  0.00000000000E+00  0.26719713067E+03  0.26719713067E+03  0.00000000000E+00 0.  1.
          2   -1    0    0  502    0  0.00000000000E+00 -0.00000000000E+00 -0.66942059580E+03  0.66942059580E+03  0.00000000000E+00 0. -1.
          6    2    1    2  502    0  0.27524861788E+03 -0.26674834160E+03 -0.25296477364E+03  0.49081746693E+03  0.17318813398E+03 0.  0.
         24    2    3    3    0    0  0.52662248905E+02 -0.12171131068E+03 -0.93244789014E+02  0.18079650719E+03  0.80036433737E+02 0.  0.
         -6    2    1    2    0  501 -0.27524861788E+03  0.26674834160E+03 -0.14925869149E+03  0.44580025954E+03  0.17188145634E+03 0.  0.
        -24    2    5    5    0    0 -0.20036136858E+03  0.12127628900E+03 -0.43807501999E+02  0.25108954705E+03  0.79210145272E+02 0.  0.
          5    1    3    3  502    0  0.22258636897E+03 -0.14503703092E+03 -0.15971998462E+03  0.31002095974E+03  0.47000000000E+01 0. -1.
        -11    1    4    4    0    0  0.26700781722E+02 -0.17667553536E+02  0.83402258624E+01  0.33085246863E+02  0.00000000000E+00 0.  1.
         12    1    4    4    0    0  0.25961467183E+02 -0.10404375715E+03 -0.10158501488E+03  0.14771126032E+03  0.00000000000E+00 0. -1.
         -5    1    5    5    0  501 -0.74887249303E+02  0.14547205260E+03 -0.10545118949E+03  0.19471071249E+03  0.47000000000E+01 0.  1.
         11    1    6    6    0    0 -0.18224695122E+03  0.13285269562E+03 -0.37036345100E+02  0.22855082765E+03  0.00000000000E+00 0. -1.
        -12    1    6    6    0    0 -0.18114417362E+02 -0.11576406616E+02 -0.67711568986E+01  0.22538719401E+02  0.00000000000E+00 0.  1.
</event>
<event>
12    1  0.1348628E-002  0.1929095E+03  0.7818608E-02  0.1155863E+00
          1   -1    0    0  502    0  0.00000000000E+00  0.00000000000E+00  0.94907857813E+03  0.94907857813E+03  0.00000000000E+00 0.  1.
         -1   -1    0    0    0  501 -0.00000000000E+00 -0.00000000000E+00 -0.11271283580E+03  0.11271283580E+03  0.00000000000E+00 0. -1.
          6    2    1    2  502    0 -0.79742131932E+02 -0.33706142292E+02 -0.10734445144E+02  0.19294461187E+03  0.17209730766E+03 0.  0.
         24    2    3    3    0    0 -0.21801391702E+02 -0.54782699974E+02  0.46596755212E+02  0.10862197436E+03  0.78428507711E+02 0.  0.
         -6    2    1    2    0  501  0.79742131932E+02  0.33706142292E+02  0.84710018748E+03  0.86884680205E+03  0.17268794451E+03 0.  0.
        -24    2    5    5    0    0  0.37443732267E+02  0.45836706911E+02  0.23576600361E+03  0.25591297237E+03  0.80017524202E+02 0.  0.
          5    1    3    3  502    0 -0.57940740230E+02  0.21076557681E+02 -0.57331200356E+02  0.84322637508E+02  0.47000000000E+01 0. -1.
        -13    1    4    4    0    0  0.56685078476E+01  0.17549318032E+02  0.27698755555E+00  0.18444166197E+02  0.00000000000E+00 0.  1.
         14    1    4    4    0    0 -0.27469899550E+02 -0.72332018005E+02  0.46319767657E+02  0.90177808167E+02  0.00000000000E+00 0. -1.
         -5    1    5    5    0  501  0.42298399665E+02 -0.12130564619E+02  0.61133418386E+03  0.61293382968E+03  0.47000000000E+01 0.  1.
         11    1    6    6    0    0 -0.13056386180E+02  0.12381923496E+02  0.70744974644E+01  0.19334677756E+02  0.00000000000E+00 0. -1.
        -12    1    6    6    0    0  0.50500118447E+02  0.33454783416E+02  0.22869150615E+03  0.23657829461E+03  0.00000000000E+00 0.  1.
</event>
<event>
12    1  0.1348628E-002  0.1876379E+03  0.7818608E-02  0.1160609E+00
         -2   -1    0    0    0  501 -0.00000000000E+00  0.00000000000E+00  0.65720820220E+02  0.65720820220E+02  0.00000000000E+00 0.  1.
          2   -1    0    0  502    0  0.00000000000E+00 -0.00000000000E+00 -0.54469311859E+03  0.54469311859E+03  0.00000000000E+00 0. -1.
          6    2    1    2  502    0  0.71270448197E+02  0.23368110940E+02 -0.19964356213E+03  0.27361083104E+03  0.17140533704E+03 0.  0.
         24    2    3    3    0    0  0.49238593729E+02  0.29993922890E+02 -0.22098825886E+03  0.24187772413E+03  0.79655184085E+02 0.  0.
         -6    2    1    2    0  501 -0.71270448197E+02 -0.23368110940E+02 -0.27932873624E+03  0.33680310777E+03  0.17258692048E+03 0.  0.
        -24    2    5    5    0    0 -0.10732571783E+02 -0.16326927851E+00 -0.42046886039E+02  0.90778585434E+02  0.79734535767E+02 0.  0.
          5    1    3    3  502    0  0.22031854468E+02 -0.66258119502E+01  0.21344696734E+02  0.31733106907E+02  0.47000000000E+01 0. -1.
        -11    1    4    4    0    0  0.46399658084E+02  0.54051164797E+02 -0.13629341169E+03  0.15378670539E+03  0.00000000000E+00 0.  1.
         12    1    4    4    0    0  0.28389356449E+01 -0.24057241907E+02 -0.84694847178E+02  0.88091018738E+02  0.00000000000E+00 0. -1.
         -5    1    5    5    0  501 -0.60537876414E+02 -0.23204841661E+02 -0.23728185020E+03  0.24602452234E+03  0.47000000000E+01 0.  1.
         11    1    6    6    0    0 -0.25012158009E+02 -0.13941071270E+02 -0.58415070326E+02  0.65055990943E+02  0.00000000000E+00 0. -1.
        -12    1    6    6    0    0  0.14279586227E+02  0.13777801991E+02  0.16368184287E+02  0.25722594491E+02  0.00000000000E+00 0.  1.
</event>
<event>
12    1  0.1348628E-002  0.2090610E+03  0.7818608E-02  0.1142312E+00
         -1   -1    0    0    0  501 -0.00000000000E+00  0.00000000000E+00  0.38062588477E+02  0.38062588477E+02  0.00000000000E+00 0.  1.
          1   -1    0    0  502    0  0.00000000000E+00 -0.00000000000E+00 -0.12308557757E+04  0.12308557757E+04  0.00000000000E+00 0. -1.
          6    2    1    2  502    0  0.94402633171E+02  0.78302218746E+02 -0.75564831669E+03  0.78353999125E+03  0.16699534354E+03 0.  0.
         24    2    3    3    0    0  0.18600643318E+02 -0.12158000539E+02 -0.40226472469E+03  0.41093960742E+03  0.80997847536E+02 0.  0.
         -6    2    1    2    0  501 -0.94402633171E+02 -0.78302218746E+02 -0.43714487055E+03  0.48537837295E+03  0.17162002349E+03 0.  0.
        -24    2    5    5    0    0 -0.94101183647E+01 -0.51273270806E+02 -0.34406576241E+03  0.35638185372E+03  0.76871829498E+02 0.  0.
          5    1    3    3  502    0  0.75801989853E+02  0.90460219284E+02 -0.35338359200E+03  0.37260038383E+03  0.47000000000E+01 0. -1.
        -13    1    4    4    0    0  0.12237733227E+02 -0.93766103964E+01 -0.94903667859E+01  0.18103866957E+02  0.00000000000E+00 0.  1.
         14    1    4    4    0    0  0.63629100910E+01 -0.27813901425E+01 -0.39277435790E+03  0.39283574046E+03  0.00000000000E+00 0. -1.
         -5    1    5    5    0  501 -0.84992514807E+02 -0.27028947939E+02 -0.93079108140E+02  0.12899651922E+03  0.47000000000E+01 0.  1.
         11    1    6    6    0    0  0.81167322979E+01  0.18083537483E+02 -0.51131586381E+02  0.54839172103E+02  0.00000000000E+00 0. -1.
        -12    1    6    6    0    0 -0.17526850663E+02 -0.69356808289E+02 -0.29293417603E+03  0.30154268162E+03  0.00000000000E+00 0.  1.
</event>
<event>
12    1  0.1348628E-002  0.1785614E+03  0.7818608E-02  0.1169203E+00
          1   -1    0    0  502    0  0.00000000000E+00  0.00000000000E+00  0.45549803997E+02  0.45549803997E+02  0.00000000000E+00 0. -1.
         -1   -1    0    0    0  501 -0.00000000000E+00 -0.00000000000E+00 -0.70421466741E+03  0.70421466741E+03  0.00000000000E+00 0.  1.
          6    2    1    2  502    0 -0.47340559992E+02  0.18905399772E+01 -0.29994435736E+03  0.34897762664E+03  0.17197111274E+03 0.  0.
         24    2    3    3    0    0  0.22234019863E+02 -0.14236294441E+02 -0.24519061481E+03  0.25886237113E+03  0.78703658631E+02 0.  0.
         -6    2    1    2    0  501  0.47340559992E+02 -0.18905399772E+01 -0.35872050605E+03  0.40078684477E+03  0.17235135832E+03 0.  0.
        -24    2    5    5    0    0  0.82503840769E+02  0.36725293966E+02 -0.29147254585E+03  0.31551072210E+03  0.80219323216E+02 0.  0.
          5    1    3    3  502    0 -0.69574579855E+02  0.16126834419E+02 -0.54753742553E+02  0.90115255501E+02  0.47000000000E+01 0. -1.
        -13    1    4    4    0    0 -0.10825874669E+02 -0.10735701277E+02 -0.20962399502E+03  0.21017772035E+03  0.00000000000E+00 0.  1.
         14    1    4    4    0    0  0.33059894532E+02 -0.35005931647E+01 -0.35566619791E+02  0.48684650787E+02  0.00000000000E+00 0. -1.
         -5    1    5    5    0  501 -0.35163280777E+02 -0.38615833943E+02 -0.67247960201E+02  0.85276122668E+02  0.47000000000E+01 0.  1.
         13    1    6    6    0    0  0.57002044928E+02 -0.49152746482E+01 -0.22997708075E+03  0.23698702648E+03  0.00000000000E+00 0. -1.
        -14    1    6    6    0    0  0.25501795841E+02  0.41640568614E+02 -0.61495465103E+02  0.78523695620E+02  0.00000000000E+00 0.  1.
</event>
<event>
12    1  0.1348628E-002  0.2857868E+03  0.7818608E-02  0.1092570E+00
          2   -1    0    0  502    0  0.00000000000E+00  0.00000000000E+00  0.59947679524E+03  0.59947679524E+03  0.00000000000E+00 0.  1.
         -2   -1    0    0    0  501 -0.00000000000E+00 -0.00000000000E+00 -0.31498522552E+03  0.31498522552E+03  0.00000000000E+00 0. -1.
          6    2    1    2  502    0  0.16805062144E+02  0.22592983576E+03 -0.20168967240E+03  0.35163979734E+03  0.17789075951E+03 0.  0.
         24    2    3    3    0    0 -0.52380909101E+02  0.95008777252E+02 -0.61499839596E+02  0.14767337511E+03  0.79087091560E+02 0.  0.
         -6    2    1    2    0  501 -0.16805062144E+02 -0.22592983576E+03  0.48618124212E+03  0.56282222343E+03  0.17049913253E+03 0.  0.
        -24    2    5    5    0    0  0.36705156498E+02 -0.15067488301E+03  0.21773139212E+03  0.27889606511E+03  0.79535320053E+02 0.  0.
          5    1    3    3  502    0  0.69185971245E+02  0.13092105851E+03 -0.14018983280E+03  0.20396642223E+03  0.47000000000E+01 0. -1.
        -11    1    4    4    0    0 -0.60841010275E+02  0.58892289083E+02 -0.69713330836E+02  0.10968080389E+03  0.00000000000E+00 0.  1.
         12    1    4    4    0    0  0.84601011737E+01  0.36116488169E+02  0.82134912400E+01  0.37992571220E+02  0.00000000000E+00 0. -1.
         -5    1    5    5    0  501 -0.53510218642E+02 -0.75254952752E+02  0.26844984999E+03  0.28392615831E+03  0.47000000000E+01 0.  1.
         13    1    6    6    0    0  0.83042005474E+01  0.30502110321E+01  0.45277220196E+02  0.46133395743E+02  0.00000000000E+00 0. -1.
        -14    1    6    6    0    0  0.28400955951E+02 -0.15372509404E+03  0.17245417193E+03  0.23276266937E+03  0.00000000000E+00 0.  1.
</event>
<event>
12    1  0.1348628E-002  0.2389361E+03  0.7818608E-02  0.1120504E+00
          1   -1    0    0  502    0  0.00000000000E+00  0.00000000000E+00  0.25516698515E+04  0.25516698515E+04  0.00000000000E+00 0. -1.
         -1   -1    0    0    0  501 -0.00000000000E+00 -0.00000000000E+00 -0.34874886624E+02  0.34874886624E+02  0.00000000000E+00 0.  1.
          6    2    1    2  502    0 -0.14338963101E+02  0.15935795893E+03  0.20190831316E+04  0.20327148371E+04  0.17214050007E+03 0.  0.
         24    2    3    3    0    0 -0.38275496051E+02  0.17584479099E+03  0.15123733090E+04  0.15251503510E+04  0.80150878146E+02 0.  0.
         -6    2    1    2    0  501  0.14338963101E+02 -0.15935795893E+03  0.49771183325E+03  0.55382990098E+03  0.18278382131E+03 0.  0.
        -24    2    5    5    0    0 -0.22925546019E+02 -0.14893650803E+03  0.48278784494E+03  0.51209184034E+03  0.80288764128E+02 0.  0.
          5    1    3    3  502    0  0.23936532949E+02 -0.16486832060E+02  0.50670982258E+03  0.50756448609E+03  0.47000000000E+01 0. -1.
        -11    1    4    4    0    0 -0.17284290637E+02  0.17454710394E+03  0.13109293875E+04  0.13226115444E+04  0.00000000000E+00 0.  1.
         12    1    4    4    0    0 -0.20991205413E+02  0.12976870456E+01  0.20144392150E+03  0.20253880666E+03  0.00000000000E+00 0. -1.
         -5    1    5    5    0  501  0.37264509120E+02 -0.10421450902E+02  0.14923988311E+02  0.41738060640E+02  0.47000000000E+01 0.  1.
         11    1    6    6    0    0 -0.26024836601E+02 -0.12412134543E+02  0.44518592936E+02  0.53040157626E+02  0.00000000000E+00 0. -1.
        -12    1    6    6    0    0  0.30992905818E+01 -0.13652437348E+03  0.43826925200E+03  0.45905168272E+03  0.00000000000E+00 0.  1.
</event>
<event>
12    1  0.1348628E-002  0.1832369E+03  0.7818608E-02  0.1164707E+00
         -3   -1    0    0    0  501 -0.00000000000E+00  0.00000000000E+00  0.70993147680E+02  0.70993147680E+02  0.00000000000E+00 0.  1.
          3   -1    0    0  502    0  0.00000000000E+00 -0.00000000000E+00 -0.59150706607E+03  0.59150706607E+03  0.00000000000E+00 0. -1.
          6    2    1    2  502    0  0.18865185957E+02 -0.58100376836E+02 -0.40782865816E+03  0.44684012120E+03  0.17207652503E+03 0.  0.
         24    2    3    3    0    0 -0.18428264898E+02  0.20599548320E+02 -0.12500116434E+03  0.15087059413E+03  0.79829209858E+02 0.  0.
         -6    2    1    2    0  501 -0.18865185957E+02  0.58100376836E+02 -0.11268526023E+03  0.21566009255E+03  0.17343517122E+03 0.  0.
        -24    2    5    5    0    0  0.49734563229E+02  0.28035206255E+02 -0.31578894316E+02  0.10516044250E+03  0.82474193121E+02 0.  0.
          5    1    3    3  502    0  0.37293450856E+02 -0.78699925156E+02 -0.28282749382E+03  0.29596952707E+03  0.47000000000E+01 0. -1.
        -13    1    4    4    0    0 -0.34758945056E+02  0.38875454027E+02 -0.11101096942E+03  0.12264958426E+03  0.00000000000E+00 0.  1.
         14    1    4    4    0    0  0.16330680158E+02 -0.18275905707E+02 -0.13990194920E+02  0.28221009864E+02  0.00000000000E+00 0. -1.
         -5    1    5    5    0  501 -0.68599749186E+02  0.30065170581E+02 -0.81106365913E+02  0.11049965005E+03  0.47000000000E+01 0.  1.
         11    1    6    6    0    0  0.62994458230E+02  0.39624411441E+02 -0.67578449284E+01  0.74726596455E+02  0.00000000000E+00 0. -1.
        -12    1    6    6    0    0 -0.13259895001E+02 -0.11589205186E+02 -0.24821049388E+02  0.30433846043E+02  0.00000000000E+00 0.  1.
</event>
<event>
12    1  0.1348628E-002  0.1773041E+03  0.7818608E-02  0.1170438E+00
          1   -1    0    0  502    0  0.00000000000E+00  0.00000000000E+00  0.67803242111E+03  0.67803242111E+03  0.00000000000E+00 0.  1.
         -1   -1    0    0    0  501 -0.00000000000E+00 -0.00000000000E+00 -0.78957298449E+02  0.78957298449E+02  0.00000000000E+00 0. -1.
          6    2    1    2  502    0 -0.34253592846E+02  0.26060279776E+02  0.56542485545E+02  0.18627675689E+03  0.17219039079E+03 0.  0.
         24    2    3    3    0    0 -0.16867645204E+02  0.28881282447E+02  0.10409579292E+03  0.13534900145E+03  0.79779522172E+02 0.  0.
         -6    2    1    2    0  501  0.34253592846E+02 -0.26060279776E+02  0.54253263712E+03  0.57071296267E+03  0.17181145660E+03 0.  0.
        -24    2    5    5    0    0  0.16121129361E+02  0.39680313998E+02  0.42560358556E+03  0.43526885981E+03  0.80536638554E+02 0.  0.
          5    1    3    3  502    0 -0.17385947643E+02 -0.28210026710E+01 -0.47553307379E+02  0.50927755440E+02  0.47000000000E+01 0. -1.
        -11    1    4    4    0    0 -0.24323207669E+02  0.49715394387E+02  0.97746487564E+02  0.11232815632E+03  0.00000000000E+00 0.  1.
         12    1    4    4    0    0  0.74555624651E+01 -0.20834111940E+02  0.63493053601E+01  0.23020845131E+02  0.00000000000E+00 0. -1.
         -5    1    5    5    0  501  0.18132463485E+02 -0.65740593774E+02  0.11692905156E+03  0.13544410287E+03  0.47000000000E+01 0.  1.
         11    1    6    6    0    0 -0.30183532589E+02  0.32309397913E+02  0.21748270129E+03  0.22193167461E+03  0.00000000000E+00 0. -1.
        -12    1    6    6    0    0  0.46304661950E+02  0.73709160853E+01  0.20812088427E+03  0.21333718520E+03  0.00000000000E+00 0.  1.
</event>
<event>
12    1  0.1348628E-002  0.2534221E+03  0.7818608E-02  0.1111161E+00
         -2   -1    0    0    0  501 -0.00000000000E+00  0.00000000000E+00  0.12534711712E+03  0.12534711712E+03  0.00000000000E+00 0.  1.
          2   -1    0    0  502    0  0.00000000000E+00 -0.00000000000E+00 -0.70608989775E+03  0.70608989775E+03  0.00000000000E+00 0. -1.
          6    2    1    2  502    0  0.17938599663E+03 -0.43215960746E+02 -0.73998340618E+02  0.26558809413E+03  0.17610884781E+03 0.  0.
         24    2    3    3    0    0  0.18176368448E+03  0.11421883991E+02 -0.42347508030E+02  0.20222554461E+03  0.77028326137E+02 0.  0.
         -6    2    1    2    0  501 -0.17938599663E+03  0.43215960746E+02 -0.50674444001E+03  0.56584892075E+03  0.17131292589E+03 0.  0.
        -24    2    5    5    0    0 -0.15354623141E+03 -0.19196795815E+02 -0.28339187008E+03  0.33245760527E+03  0.79196875698E+02 0.  0.
          5    1    3    3  502    0 -0.23776878515E+01 -0.54637844736E+02 -0.31650832589E+02  0.63362549511E+02  0.47000000000E+01 0. -1.
        -13    1    4    4    0    0  0.59574102160E+02  0.40433269067E+02 -0.11575059110E+02  0.72923966493E+02  0.00000000000E+00 0.  1.
         14    1    4    4    0    0  0.12218958232E+03 -0.29011385076E+02 -0.30772448920E+02  0.12930157812E+03  0.00000000000E+00 0. -1.
         -5    1    5    5    0  501 -0.25839765221E+02  0.62412756561E+02 -0.22335256993E+03  0.23339131548E+03  0.47000000000E+01 0.  1.
         11    1    6    6    0    0 -0.61251374918E+02 -0.40618331638E+02 -0.16642043925E+03  0.18192675008E+03  0.00000000000E+00 0. -1.
        -12    1    6    6    0    0 -0.92294856493E+02  0.21421535822E+02 -0.11697143083E+03  0.15053085519E+03  0.00000000000E+00 0.  1.
</event>
<event>
12    1  0.1348628E-002  0.2056569E+03  0.7818608E-02  0.1145052E+00
          3   -1    0    0  502    0  0.00000000000E+00  0.00000000000E+00  0.59330116311E+02  0.59330116311E+02  0.00000000000E+00 0.  1.
         -3   -1    0    0    0  501 -0.00000000000E+00 -0.00000000000E+00 -0.71373944436E+03  0.71373944436E+03  0.00000000000E+00 0. -1.
          6    2    1    2  502    0  0.10090343760E+02 -0.99051945313E+02 -0.32831696258E+03  0.38472312646E+03  0.17408834885E+03 0.  0.
         24    2    3    3    0    0 -0.60891582211E+02 -0.50023373119E+02 -0.16441270460E+03  0.19944244616E+03  0.80843238779E+02 0.  0.
         -6    2    1    2    0  501 -0.10090343760E+02  0.99051945313E+02 -0.32609236547E+03  0.38834643421E+03  0.18591293457E+03 0.  0.
        -24    2    5    5    0    0 -0.51187179430E+02  0.12765590068E+03 -0.26074477935E+03  0.30588715228E+03  0.81626917490E+02 0.  0.
          5    1    3    3  502    0  0.70981925971E+02 -0.49028572195E+02 -0.16390425798E+03  0.18528068029E+03  0.47000000000E+01 0. -1.
        -13    1    4    4    0    0 -0.65637221758E+02 -0.67150211195E+02 -0.12622511240E+03  0.15732188259E+03  0.00000000000E+00 0.  1.
         14    1    4    4    0    0  0.47456395469E+01  0.17126838077E+02 -0.38187592202E+02  0.42120563570E+02  0.00000000000E+00 0. -1.
         -5    1    5    5    0  501  0.41096835669E+02 -0.28603955365E+02 -0.65347586124E+02  0.82459281932E+02  0.47000000000E+01 0.  1.
         11    1    6    6    0    0 -0.11751828759E+02  0.82133870485E+01 -0.10366443761E+03  0.10465123425E+03  0.00000000000E+00 0. -1.
        -12    1    6    6    0    0 -0.39435350670E+02  0.11944251363E+03 -0.15708034174E+03  0.20123591803E+03  0.00000000000E+00 0.  1.
</event>
<event>
12    1  0.1348628E-002  0.2343393E+03  0.7818608E-02  0.1123622E+00
         -1   -1    0    0    0  501 -0.00000000000E+00  0.00000000000E+00  0.60263733088E+02  0.60263733088E+02  0.00000000000E+00 0. -1.
          1   -1    0    0  502    0  0.00000000000E+00 -0.00000000000E+00 -0.93271928822E+03  0.93271928822E+03  0.00000000000E+00 0.  1.
          6    2    1    2  502    0  0.48849124522E+00 -0.15933861346E+03 -0.51200808425E+03  0.56318890836E+03  0.17216397939E+03 0.  0.
         24    2    3    3    0    0  0.66888922431E+02 -0.11332918697E+03 -0.33255499994E+03  0.36633519604E+03  0.79315920884E+02 0.  0.
         -6    2    1    2    0  501 -0.48849124522E+00  0.15933861346E+03 -0.36044747088E+03  0.42979411295E+03  0.17149801135E+03 0.  0.
        -24    2    5    5    0    0 -0.25899941833E+02  0.14511384705E+03 -0.17564491764E+03  0.24265202927E+03  0.79372757421E+02 0.  0.
          5    1    3    3  502    0 -0.66400431186E+02 -0.46009426486E+02 -0.17945308431E+03  0.19685371233E+03  0.47000000000E+01 0. -1.
        -11    1    4    4    0    0  0.22583211483E+02  0.45798359818E+01 -0.91481083806E+02  0.94338565989E+02  0.00000000000E+00 0.  1.
         12    1    4    4    0    0  0.44305710948E+02 -0.11790902295E+03 -0.24107391613E+03  0.27199663005E+03  0.00000000000E+00 0. -1.
         -5    1    5    5    0  501  0.25411450587E+02  0.14224766405E+02 -0.18480255324E+03  0.18714208368E+03  0.47000000000E+01 0.  1.
         13    1    6    6    0    0 -0.95669665533E+01  0.63474232879E+01  0.64178439917E+01  0.13153149924E+02  0.00000000000E+00 0. -1.
        -14    1    6    6    0    0 -0.16332975279E+02  0.13876642377E+03 -0.18206276163E+03  0.22949887934E+03  0.00000000000E+00 0.  1.
</event>
<event>
12    1  0.1348628E-002  0.3227057E+03  0.7818608E-02  0.1074411E+00
         -1   -1    0    0    0  501 -0.00000000000E+00  0.00000000000E+00  0.31414318523E+04  0.31414318523E+04  0.00000000000E+00 0. -1.
          1   -1    0    0  502    0  0.00000000000E+00 -0.00000000000E+00 -0.33150163544E+02  0.33150163544E+02  0.00000000000E+00 0.  1.
          6    2    1    2  502    0 -0.26851220827E+03  0.49541560942E+02  0.15554207958E+04  0.15885779472E+04  0.17231619230E+03 0.  0.
         24    2    3    3    0    0 -0.15285265288E+03  0.55945622312E+02  0.12269664083E+04  0.12402641241E+04  0.79464986690E+02 0.  0.
         -6    2    1    2    0  501  0.26851220827E+03 -0.49541560942E+02  0.15528608930E+04  0.15860040686E+04  0.17169385713E+03 0.  0.
        -24    2    5    5    0    0  0.20947144466E+03  0.21443688083E+02  0.95911578590E+03  0.98510469311E+03  0.78676856389E+02 0.  0.
          5    1    3    3  502    0 -0.11565955539E+03 -0.64040613702E+01  0.32845438746E+03  0.34831382315E+03  0.47000000000E+01 0. -1.
        -13    1    4    4    0    0 -0.12200287135E+03  0.38651693531E+02  0.66605339916E+03  0.67823726274E+03  0.00000000000E+00 0.  1.
         14    1    4    4    0    0 -0.30849781533E+02  0.17293928781E+02  0.56091300919E+03  0.56202686134E+03  0.00000000000E+00 0. -1.
         -5    1    5    5    0  501  0.59040763608E+02 -0.70985249025E+02  0.59374510706E+03  0.60089937552E+03  0.47000000000E+01 0.  1.
         13    1    6    6    0    0  0.12669035851E+03  0.48142756995E+02  0.65033884922E+03  0.66431076372E+03  0.00000000000E+00 0. -1.
        -14    1    6    6    0    0  0.82781086157E+02 -0.26699068912E+02  0.30877693668E+03  0.32079392938E+03  0.00000000000E+00 0.  1.
</event>
<event>
12    1  0.1348628E-002  0.3193955E+03  0.7818608E-02  0.1075928E+00
          2   -1    0    0  502    0  0.00000000000E+00  0.00000000000E+00  0.36302320169E+04  0.36302320169E+04  0.00000000000E+00 0.  1.
         -2   -1    0    0    0  501 -0.00000000000E+00 -0.00000000000E+00 -0.28282190451E+02  0.28282190451E+02  0.00000000000E+00 0. -1.
          6    2    1    2  502    0 -0.12921531301E+03 -0.23646075677E+03  0.16526326488E+04  0.16831466014E+04  0.17081429456E+03 0.  0.
         24    2    3    3    0    0 -0.62523554803E+02 -0.16626053331E+03  0.81243098730E+03  0.83737075402E+03  0.97948510524E+02 0.  0.
         -6    2    1    2    0  501  0.12921531301E+03  0.23646075677E+03  0.19493171777E+04  0.19753676060E+04  0.17213202220E+03 0.  0.
        -24    2    5    5    0    0  0.31282491645E+02  0.13103287742E+03  0.13476783238E+04  0.13567422948E+04  0.79778321928E+02 0.  0.
          5    1    3    3  502    0 -0.66691758204E+02 -0.70200223460E+02  0.84020166148E+03  0.84577584734E+03  0.47000000000E+01 0. -1.
        -11    1    4    4    0    0 -0.98252507433E+01 -0.45989345011E+02  0.76362477669E+02  0.89681566682E+02  0.00000000000E+00 0.  1.
         12    1    4    4    0    0 -0.52698304060E+02 -0.12027118829E+03  0.73606850963E+03  0.74768918733E+03  0.00000000000E+00 0. -1.
         -5    1    5    5    0  501  0.97932821362E+02  0.10542787934E+03  0.60163885385E+03  0.61862531124E+03  0.47000000000E+01 0.  1.
         13    1    6    6    0    0  0.28976539755E+02  0.14109419078E+03  0.11822295142E+04  0.11909718027E+04  0.00000000000E+00 0. -1.
        -14    1    6    6    0    0  0.23059518899E+01 -0.10061313360E+02  0.16544880964E+03  0.16577049210E+03  0.00000000000E+00 0.  1.
</event>
<event>
12    1  0.1348628E-002  0.2740693E+03  0.7818608E-02  0.1098973E+00
          1   -1    0    0  502    0  0.00000000000E+00  0.00000000000E+00  0.22742643606E+03  0.22742643606E+03  0.00000000000E+00 0.  1.
         -1   -1    0    0    0  501 -0.00000000000E+00 -0.00000000000E+00 -0.43540795889E+03  0.43540795889E+03  0.00000000000E+00 0. -1.
          6    2    1    2  502    0  0.20971773776E+03  0.41083359471E+02  0.58821913536E+02  0.28043988961E+03  0.17180553604E+03 0.  0.
         24    2    3    3    0    0  0.16160893332E+03  0.82626279976E+02  0.79280001937E+02  0.21350040432E+03  0.79702913801E+02 0.  0.
         -6    2    1    2    0  501 -0.20971773776E+03 -0.41083359471E+02 -0.26680343637E+03  0.38239450533E+03  0.17138293991E+03 0.  0.
        -24    2    5    5    0    0 -0.12066648124E+03  0.46340396770E+01 -0.23701542453E+03  0.27784967035E+03  0.80263651962E+02 0.  0.
          5    1    3    3  502    0  0.48108804448E+02 -0.41542920504E+02 -0.20458088401E+02  0.66939485287E+02  0.47000000000E+01 0. -1.
        -13    1    4    4    0    0  0.40691815167E+02  0.55144579207E+02  0.53269855355E+02  0.86801071001E+02  0.00000000000E+00 0.  1.
         14    1    4    4    0    0  0.12091711815E+03  0.27481700769E+02  0.26010146582E+02  0.12669933332E+03  0.00000000000E+00 0. -1.
         -5    1    5    5    0  501 -0.89051256524E+02 -0.45717399148E+02 -0.29788011833E+02  0.10454483499E+03  0.47000000000E+01 0.  1.
         13    1    6    6    0    0 -0.19416101601E+00  0.57025812039E+01 -0.78698266475E+02  0.78904843179E+02  0.00000000000E+00 0. -1.
        -14    1    6    6    0    0 -0.12047232022E+03 -0.10685415269E+01 -0.15831715806E+03  0.19894482717E+03  0.00000000000E+00 0.  1.
</event>
<event>
12    1  0.1348628E-002  0.1845783E+03  0.7818608E-02  0.1163444E+00
         -4   -1    0    0    0  501 -0.00000000000E+00  0.00000000000E+00  0.86112433467E+02  0.86112433467E+02  0.00000000000E+00 0.  1.
          4   -1    0    0  502    0  0.00000000000E+00 -0.00000000000E+00 -0.53072859841E+03  0.53072859841E+03  0.00000000000E+00 0. -1.
          6    2    1    2  502    0 -0.38610726069E+02  0.55669456499E+02 -0.66229499390E+02  0.19560245580E+03  0.17112596989E+03 0.  0.
         24    2    3    3    0    0  0.28509027955E+02  0.67281032838E+02 -0.11704162808E+02  0.10822401215E+03  0.78968014564E+02 0.  0.
         -6    2    1    2    0  501  0.38610726069E+02 -0.55669456499E+02 -0.37838666555E+03  0.42123857608E+03  0.17226605224E+03 0.  0.
        -24    2    5    5    0    0  0.41148139309E+02  0.14171884465E+02 -0.32066998027E+03  0.33047758702E+03  0.67023783855E+02 0.  0.
          5    1    3    3  502    0 -0.67119754024E+02 -0.11611576339E+02 -0.54525336582E+02  0.87378443650E+02  0.47000000000E+01 0. -1.
        -11    1    4    4    0    0 -0.15362951386E+02  0.18530834274E+02  0.23626310980E+02  0.33728543768E+02  0.00000000000E+00 0.  1.
         12    1    4    4    0    0  0.43871979341E+02  0.48750198565E+02 -0.35330473788E+02  0.74495468383E+02  0.00000000000E+00 0. -1.
         -5    1    5    5    0  501 -0.25374132398E+01 -0.69841340964E+02 -0.57716685285E+02  0.90760989053E+02  0.47000000000E+01 0.  1.
         11    1    6    6    0    0 -0.35849973734E+01 -0.21670959424E+02 -0.71433325354E+02  0.74734213448E+02  0.00000000000E+00 0. -1.
        -12    1    6    6    0    0  0.44733136682E+02  0.35842843889E+02 -0.24923665491E+03  0.25574337358E+03  0.00000000000E+00 0.  1.
</event>
<event>
12    1  0.1348628E-002  0.2158353E+03  0.7818608E-02  0.1137027E+00
          3   -1    0    0  502    0  0.00000000000E+00  0.00000000000E+00  0.78739753364E+02  0.78739753364E+02  0.00000000000E+00 0.  1.
         -3   -1    0    0    0  501 -0.00000000000E+00 -0.00000000000E+00 -0.68680907632E+03  0.68680907632E+03  0.00000000000E+00 0. -1.
          6    2    1    2  502    0  0.10696950677E+02 -0.11463256624E+03 -0.17225696484E+03  0.28274334630E+03  0.19239617445E+03 0.  0.
         24    2    3    3    0    0 -0.29214649372E+02 -0.12225152002E+03 -0.58034427488E+02  0.16141790661E+03  0.82998891059E+02 0.  0.
         -6    2    1    2    0  501 -0.10696950677E+02  0.11463256624E+03 -0.43581235811E+03  0.48280548338E+03  0.17295569752E+03 0.  0.
        -24    2    5    5    0    0 -0.20727572520E+01 -0.10827624651E+02 -0.14955165982E+03  0.17010448626E+03  0.80301329473E+02 0.  0.
          5    1    3    3  502    0  0.39911600049E+02  0.76189537831E+01 -0.11422253735E+03  0.12132543968E+03  0.47000000000E+01 0. -1.
        -11    1    4    4    0    0  0.52505870251E+01 -0.48738675958E+02  0.15974129940E+02  0.51557734877E+02  0.00000000000E+00 0.  1.
         12    1    4    4    0    0 -0.34465236397E+02 -0.73512844061E+02 -0.74008557427E+02  0.10986017174E+03  0.00000000000E+00 0. -1.
         -5    1    5    5    0  501 -0.86241934252E+01  0.12546019089E+03 -0.28626069829E+03  0.31270099712E+03  0.47000000000E+01 0.  1.
         11    1    6    6    0    0  0.45845057154E+01  0.34053594578E+02 -0.79936563778E+02  0.87008730740E+02  0.00000000000E+00 0. -1.
        -12    1    6    6    0    0 -0.66572629674E+01 -0.44881219229E+02 -0.69615096039E+02  0.83095755525E+02  0.00000000000E+00 0.  1.
</event>
<event>
12    1  0.1348628E-002  0.2097639E+03  0.7818608E-02  0.1141753E+00
         -1   -1    0    0    0  501 -0.00000000000E+00  0.00000000000E+00  0.57657318208E+02  0.57657318208E+02  0.00000000000E+00 0. -1.
          1   -1    0    0  502    0  0.00000000000E+00 -0.00000000000E+00 -0.88819581306E+03  0.88819581306E+03  0.00000000000E+00 0.  1.
          6    2    1    2  502    0 -0.39327234945E+02 -0.11933646429E+03 -0.59997052030E+03  0.63707157667E+03  0.17351583632E+03 0.  0.
         24    2    3    3    0    0  0.84387435547E+01 -0.78847824620E+02 -0.53471573800E+03  0.54651112582E+03  0.80407078954E+02 0.  0.
         -6    2    1    2    0  501  0.39327234945E+02  0.11933646429E+03 -0.23056797456E+03  0.30878155460E+03  0.16247041101E+03 0.  0.
        -24    2    5    5    0    0 -0.38983786723E+02  0.64803797005E+02 -0.87417462468E+02  0.13667522983E+03  0.72931735008E+02 0.  0.
          5    1    3    3  502    0 -0.47765978499E+02 -0.40488639666E+02 -0.65254782301E+02  0.90560450845E+02  0.47000000000E+01 0. -1.
        -13    1    4    4    0    0 -0.35551049595E+02 -0.44724313250E+02 -0.25793678375E+03  0.26418842847E+03  0.00000000000E+00 0.  1.
         14    1    4    4    0    0  0.43989793150E+02 -0.34123511370E+02 -0.27677895424E+03  0.28232269735E+03  0.00000000000E+00 0. -1.
         -5    1    5    5    0  501  0.78311021668E+02  0.54532667281E+02 -0.14315051209E+03  0.17210632477E+03  0.47000000000E+01 0.  1.
         11    1    6    6    0    0 -0.10048313218E+02  0.73830805556E+02 -0.57858049199E+02  0.94337215905E+02  0.00000000000E+00 0. -1.
        -12    1    6    6    0    0 -0.28935473505E+02 -0.90270085509E+01 -0.29559413269E+02  0.42338013925E+02  0.00000000000E+00 0.  1.
</event>
<event>
12    1  0.1348628E-002  0.2145032E+03  0.7818608E-02  0.1138049E+00
         -2   -1    0    0    0  501 -0.00000000000E+00  0.00000000000E+00  0.26692016697E+03  0.26692016697E+03  0.00000000000E+00 0.  1.
          2   -1    0    0  502    0  0.00000000000E+00 -0.00000000000E+00 -0.21656721934E+03  0.21656721934E+03  0.00000000000E+00 0. -1.
          6    2    1    2  502    0 -0.29422059393E+02 -0.12390114955E+03 -0.84080819172E+02  0.22976365349E+03  0.17176903060E+03 0.  0.
         24    2    3    3    0    0  0.17251561629E+02 -0.13729303298E+03 -0.83823156517E+02  0.18097916998E+03  0.81118093632E+02 0.  0.
         -6    2    1    2    0  501  0.29422059393E+02  0.12390114955E+03  0.13443376680E+03  0.25372373283E+03  0.17345357449E+03 0.  0.
        -24    2    5    5    0    0  0.28994502309E+02  0.34261981666E+02 -0.30008713851E-01  0.92051347582E+02  0.80367189445E+02 0.  0.
          5    1    3    3  502    0 -0.46673621022E+02  0.13391883433E+02 -0.25766265526E+00  0.48784483509E+02  0.47000000000E+01 0. -1.
        -13    1    4    4    0    0 -0.98238171398E+01 -0.13076140797E+03 -0.59484323760E+02  0.14399110379E+03  0.00000000000E+00 0.  1.
         14    1    4    4    0    0  0.27075378769E+02 -0.65316250162E+01 -0.24338832757E+02  0.36988066194E+02  0.00000000000E+00 0. -1.
         -5    1    5    5    0  501  0.42755708412E+00  0.89639167885E+02  0.13446377552E+03  0.16167238524E+03  0.47000000000E+01 0.  1.
         11    1    6    6    0    0 -0.25952307040E+02  0.15950091960E+02 -0.12294164552E+02  0.32849264167E+02  0.00000000000E+00 0. -1.
        -12    1    6    6    0    0  0.54946809349E+02  0.18311889706E+02  0.12264155838E+02  0.59202083415E+02  0.00000000000E+00 0.  1.
</event>
<event>
12    1  0.1348628E-002  0.2666430E+03  0.7818608E-02  0.1103216E+00
         -2   -1    0    0    0  501 -0.00000000000E+00  0.00000000000E+00  0.15451783121E+03  0.15451783121E+03  0.00000000000E+00 0.  1.
          2   -1    0    0  502    0  0.00000000000E+00 -0.00000000000E+00 -0.56298276360E+03  0.56298276360E+03  0.00000000000E+00 0. -1.
          6    2    1    2  502    0 -0.10217332665E+03  0.17428750283E+03 -0.35690927994E+03  0.44488983069E+03  0.17241579112E+03 0.  0.
         24    2    3    3    0    0 -0.85526200650E+02  0.20176827196E+03 -0.31718413806E+03  0.39358197191E+03  0.79220102303E+02 0.  0.
         -6    2    1    2    0  501  0.10217332665E+03 -0.17428750283E+03 -0.51555652445E+02  0.27261076411E+03  0.17562209738E+03 0.  0.
        -24    2    5    5    0    0  0.81752555775E+02 -0.34511513110E+02 -0.65672284589E+02  0.13056955710E+03  0.69721125682E+02 0.  0.
          5    1    3    3  502    0 -0.16647126001E+02 -0.27480769127E+02 -0.39725141876E+02  0.51307858784E+02  0.47000000000E+01 0. -1.
        -11    1    4    4    0    0 -0.85136906269E+02  0.12054858579E+03 -0.16718299261E+03  0.22300315550E+03  0.00000000000E+00 0.  1.
         12    1    4    4    0    0 -0.38929438099E+00  0.81219686174E+02 -0.15000114545E+03  0.17057881642E+03  0.00000000000E+00 0. -1.
         -5    1    5    5    0  501  0.20420770875E+02 -0.13977598972E+03  0.14116632143E+02  0.14204120701E+03  0.47000000000E+01 0.  1.
         13    1    6    6    0    0  0.28725238316E+02  0.20850497072E+02 -0.27675286767E+02  0.45008932914E+02  0.00000000000E+00 0. -1.
        -14    1    6    6    0    0  0.53027317459E+02 -0.55362010182E+02 -0.37996997822E+02  0.85560624190E+02  0.00000000000E+00 0.  1.
</event>
<event>
12    1  0.1348628E-002  0.2649661E+03  0.7818608E-02  0.1104196E+00
         -1   -1    0    0    0  501 -0.00000000000E+00  0.00000000000E+00  0.19025540464E+02  0.19025540464E+02  0.00000000000E+00 0.  1.
          1   -1    0    0  502    0  0.00000000000E+00 -0.00000000000E+00 -0.40894054275E+04  0.40894054275E+04  0.00000000000E+00 0. -1.
          6    2    1    2  502    0 -0.10206099228E+03 -0.16956309920E+03 -0.14201531146E+04  0.14453618864E+04  0.18184615174E+03 0.  0.
         24    2    3    3    0    0 -0.10845412326E+03 -0.11905175471E+03 -0.68986921580E+03  0.71329021576E+03  0.83233285731E+02 0.  0.
         -6    2    1    2    0  501  0.10206099228E+03  0.16956309920E+03 -0.26502267724E+04  0.26630690816E+04  0.17049016762E+03 0.  0.
        -24    2    5    5    0    0  0.44557804994E+02  0.16864667801E+03 -0.16354910123E+04  0.16466940478E+04  0.79645061578E+02 0.  0.
          5    1    3    3  502    0  0.63931309791E+01 -0.50511344497E+02 -0.73028389883E+03  0.73207167063E+03  0.47000000000E+01 0. -1.
        -11    1    4    4    0    0 -0.42769499645E+02 -0.75059309117E+02 -0.21200228315E+03  0.22892815040E+03  0.00000000000E+00 0.  1.
         12    1    4    4    0    0 -0.65684623611E+02 -0.43992445590E+02 -0.47786693265E+03  0.48436206537E+03  0.00000000000E+00 0. -1.
         -5    1    5    5    0  501  0.57503187283E+02  0.91642119278E+00 -0.10147357601E+04  0.10163750338E+04  0.47000000000E+01 0.  1.
         11    1    6    6    0    0 -0.64711397472E+01  0.12280292105E+03 -0.10841269116E+04  0.10910790959E+04  0.00000000000E+00 0. -1.
        -12    1    6    6    0    0  0.51028944741E+02  0.45843756965E+02 -0.55136410068E+03  0.55561495190E+03  0.00000000000E+00 0.  1.
</event>
<event>
12    1  0.1348628E-002  0.1931638E+03  0.7818608E-02  0.1155638E+00
         -2   -1    0    0    0  501 -0.00000000000E+00  0.00000000000E+00  0.20053696610E+03  0.20053696610E+03  0.00000000000E+00 0.  1.
          2   -1    0    0  502    0  0.00000000000E+00 -0.00000000000E+00 -0.20631576098E+03  0.20631576098E+03  0.00000000000E+00 0. -1.
          6    2    1    2  502    0 -0.19835328854E+02 -0.87300621757E+02 -0.66614471417E+02  0.20370116110E+03  0.17041665529E+03 0.  0.
         24    2    3    3    0    0 -0.13017004868E+02 -0.62067769684E+02  0.28921272811E+02  0.10454293002E+03  0.77916196945E+02 0.  0.
         -6    2    1    2    0  501  0.19835328854E+02  0.87300621757E+02  0.60835676535E+02  0.20315156598E+03  0.17191492196E+03 0.  0.
        -24    2    5    5    0    0  0.50718193251E+02  0.32913468156E+02  0.92362506979E+02  0.13295366838E+03  0.74095976460E+02 0.  0.
          5    1    3    3  502    0 -0.68183239858E+01 -0.25232852073E+02 -0.95535744228E+02  0.99158231080E+02  0.47000000000E+01 0. -1.
        -13    1    4    4    0    0  0.25474505021E+02 -0.55502725065E+02  0.21847709604E+02  0.64860044023E+02  0.00000000000E+00 0.  1.
         14    1    4    4    0    0 -0.38491509889E+02 -0.65650446190E+01  0.70735632074E+01  0.39682885995E+02  0.00000000000E+00 0. -1.
         -5    1    5    5    0  501 -0.30882864397E+02  0.54387153601E+02 -0.31526830444E+02  0.70197897604E+02  0.47000000000E+01 0.  1.
         11    1    6    6    0    0  0.66487236962E+02  0.14074654297E+02  0.51480713454E+02  0.85257917111E+02  0.00000000000E+00 0. -1.
        -12    1    6    6    0    0 -0.15769043712E+02  0.18838813860E+02  0.40881793525E+02  0.47695751269E+02  0.00000000000E+00 0.  1.
</event>
<event>
12    1  0.1348628E-002  0.1821868E+03  0.7818608E-02  0.1165703E+00
         -2   -1    0    0    0  501 -0.00000000000E+00  0.00000000000E+00  0.20880521110E+03  0.20880521110E+03  0.00000000000E+00 0.  1.
          2   -1    0    0  502    0  0.00000000000E+00 -0.00000000000E+00 -0.16236418864E+03  0.16236418864E+03  0.00000000000E+00 0. -1.
          6    2    1    2  502    0  0.31078894754E+02 -0.52049370074E+02 -0.35948498639E+01  0.18260345561E+03  0.17220936221E+03 0.  0.
         24    2    3    3    0    0  0.70273506080E+02  0.41251833582E+01 -0.26029002281E+02  0.11037341197E+03  0.80928352978E+02 0.  0.
         -6    2    1    2    0  501 -0.31078894754E+02  0.52049370074E+02  0.50035872327E+02  0.18856594413E+03  0.17140155233E+03 0.  0.
        -24    2    5    5    0    0  0.16171499980E+02  0.22774685307E+02  0.87075478501E+02  0.12160603526E+03  0.80160371460E+02 0.  0.
          5    1    3    3  502    0 -0.39194611326E+02 -0.56174553432E+02  0.22434152417E+02  0.72230043645E+02  0.47000000000E+01 0. -1.
        -13    1    4    4    0    0  0.27280502820E+02  0.39195580977E+02 -0.27045296989E+02  0.54881394766E+02  0.00000000000E+00 0.  1.
         14    1    4    4    0    0  0.42993003260E+02 -0.35070397619E+02  0.10162947085E+01  0.55492017204E+02  0.00000000000E+00 0. -1.
         -5    1    5    5    0  501 -0.47250394733E+02  0.29274684767E+02 -0.37039606174E+02  0.66959908873E+02  0.47000000000E+01 0.  1.
         13    1    6    6    0    0  0.44102855901E+01  0.16940931894E+02 -0.12282335418E+02  0.21384610255E+02  0.00000000000E+00 0. -1.
        -14    1    6    6    0    0  0.11761214390E+02  0.58337534127E+01  0.99357813920E+02  0.10022142500E+03  0.00000000000E+00 0.  1.
</event>
<event>
12    1  0.1348628E-002  0.1762599E+03  0.7818608E-02  0.1171473E+00
         -2   -1    0    0    0  501 -0.00000000000E+00  0.00000000000E+00  0.48137709536E+02  0.48137709536E+02  0.00000000000E+00 0.  1.
          2   -1    0    0  502    0  0.00000000000E+00 -0.00000000000E+00 -0.15071225091E+04  0.15071225091E+04  0.00000000000E+00 0. -1.
          6    2    1    2  502    0  0.34208482021E+01  0.37922942500E+02 -0.14356803719E+03  0.22824115394E+03  0.17329856110E+03 0.  0.
         24    2    3    3    0    0 -0.61783858762E+01 -0.38223661893E+02 -0.11752361569E+03  0.14705708810E+03  0.79465502801E+02 0.  0.
         -6    2    1    2    0  501 -0.34208482021E+01 -0.37922942500E+02 -0.13154167624E+04  0.13270190647E+04  0.17090490793E+03 0.  0.
        -24    2    5    5    0    0 -0.54692039739E+02  0.18500069168E+02 -0.78626084137E+03  0.79237865277E+03  0.79525762645E+02 0.  0.
          5    1    3    3  502    0  0.95992340783E+01  0.76146604394E+02 -0.26044421503E+02  0.81184065845E+02  0.47000000000E+01 0. -1.
        -13    1    4    4    0    0  0.21489928441E+02 -0.44285184800E+02 -0.36657726134E+02  0.61374127305E+02  0.00000000000E+00 0.  1.
         14    1    4    4    0    0 -0.27668314317E+02  0.60615229065E+01 -0.80865889555E+02  0.85682960795E+02  0.00000000000E+00 0. -1.
         -5    1    5    5    0  501  0.51271191537E+02 -0.56423011668E+02 -0.52915592100E+03  0.53464041192E+03  0.47000000000E+01 0.  1.
         13    1    6    6    0    0 -0.84960729823E+01  0.44462386220E+02 -0.35515992855E+03  0.35803304581E+03  0.00000000000E+00 0. -1.
        -14    1    6    6    0    0 -0.46195966757E+02 -0.25962317053E+02 -0.43110091282E+03  0.43434560696E+03  0.00000000000E+00 0.  1.
</event>
<event>
12    1  0.1348628E-002  0.2836311E+03  0.7818608E-02  0.1093722E+00
          2   -1    0    0  502    0  0.00000000000E+00  0.00000000000E+00  0.35519292047E+04  0.35519292047E+04  0.00000000000E+00 0. -1.
         -2   -1    0    0    0  501 -0.00000000000E+00 -0.00000000000E+00 -0.23869809728E+02  0.23869809728E+02  0.00000000000E+00 0.  1.
          6    2    1    2  502    0 -0.16261071762E+03  0.15623608889E+03  0.13583756122E+04  0.13876270064E+04  0.17167540376E+03 0.  0.
         24    2    3    3    0    0 -0.12981354195E+03  0.13292517082E+03  0.71665054685E+03  0.74462451568E+03  0.79730836860E+02 0.  0.
         -6    2    1    2    0  501  0.16261071762E+03 -0.15623608889E+03  0.21696837828E+04  0.21881720080E+04  0.17238636349E+03 0.  0.
        -24    2    5    5    0    0  0.13942670024E+03 -0.18590735924E+03  0.18484702452E+04  0.18647247794E+04  0.79717655599E+02 0.  0.
          5    1    3    3  502    0 -0.32797175668E+02  0.23310918065E+02  0.64172506533E+03  0.64300249075E+03  0.47000000000E+01 0. -1.
        -13    1    4    4    0    0 -0.11709481674E+03  0.78298934356E+02  0.58108731621E+03  0.59791670682E+03  0.00000000000E+00 0.  1.
         14    1    4    4    0    0 -0.12718725206E+02  0.54626236468E+02  0.13556323064E+03  0.14670780887E+03  0.00000000000E+00 0. -1.
         -5    1    5    5    0  501  0.23184017375E+02  0.29671270347E+02  0.32121353763E+03  0.32344722862E+03  0.47000000000E+01 0.  1.
         11    1    6    6    0    0  0.91223716645E+02 -0.73740578069E+02  0.11162614157E+04  0.11224076744E+04  0.00000000000E+00 0. -1.
        -12    1    6    6    0    0  0.48202983600E+02 -0.11216678117E+03  0.73220882947E+03  0.74231710500E+03  0.00000000000E+00 0.  1.
</event>
<event>
12    1  0.1348628E-002  0.2209608E+03  0.7818608E-02  0.1133169E+00
         -4   -1    0    0    0  501 -0.00000000000E+00  0.00000000000E+00  0.81088843041E+03  0.81088843041E+03  0.00000000000E+00 0.  1.
          4   -1    0    0  502    0  0.00000000000E+00 -0.00000000000E+00 -0.64765637635E+02  0.64765637635E+02  0.00000000000E+00 0. -1.
          6    2    1    2  502    0 -0.94140602976E+02 -0.10238852238E+03  0.48943758317E+03  0.53707131909E+03  0.17190285432E+03 0.  0.
         24    2    3    3    0    0 -0.12638048862E+03 -0.10883952275E+03  0.37979350832E+03  0.42250719389E+03  0.80319053231E+02 0.  0.
         -6    2    1    2    0  501  0.94140602976E+02  0.10238852238E+03  0.25668520960E+03  0.33858274896E+03  0.17147920696E+03 0.  0.
        -24    2    5    5    0    0  0.10697130326E+03  0.43277607798E+02  0.10455224377E+03  0.17479857272E+03  0.79420137808E+02 0.  0.
          5    1    3    3  502    0  0.32239885642E+02  0.64510003754E+01  0.10964407485E+03  0.11456412520E+03  0.47000000000E+01 0. -1.
        -13    1    4    4    0    0 -0.13433897651E+02 -0.41284427045E+02  0.16486489341E+03  0.17048550262E+03  0.00000000000E+00 0.  1.
         14    1    4    4    0    0 -0.11294659097E+03 -0.67555095708E+02  0.21492861491E+03  0.25202169128E+03  0.00000000000E+00 0. -1.
         -5    1    5    5    0  501 -0.12830700285E+02  0.59110914580E+02  0.15213296583E+03  0.16378417624E+03  0.47000000000E+01 0.  1.
         13    1    6    6    0    0  0.17808068309E+02  0.13966228112E+02 -0.11627248939E+02  0.25443579592E+02  0.00000000000E+00 0. -1.
        -14    1    6    6    0    0  0.89163234952E+02  0.29311379685E+02  0.11617949271E+03  0.14935499313E+03  0.00000000000E+00 0.  1.
</event>
<event>
12    1  0.1348628E-002  0.2381997E+03  0.7818608E-02  0.1120998E+00
          2   -1    0    0  502    0  0.00000000000E+00  0.00000000000E+00  0.23746715454E+03  0.23746715454E+03  0.00000000000E+00 0. -1.
         -2   -1    0    0    0  501 -0.00000000000E+00 -0.00000000000E+00 -0.27155830481E+03  0.27155830481E+03  0.00000000000E+00 0.  1.
          6    2    1    2  502    0  0.15154357094E+03  0.72522173449E+02 -0.10509640142E+03  0.25839893478E+03  0.16583074614E+03 0.  0.
         24    2    3    3    0    0  0.14749584212E+03  0.21433359401E+02 -0.38114035913E+02  0.17392895006E+03  0.81143007069E+02 0.  0.
         -6    2    1    2    0  501 -0.15154357094E+03 -0.72522173449E+02  0.71005251150E+02  0.25062652457E+03  0.17189237793E+03 0.  0.
        -24    2    5    5    0    0 -0.11810100695E+03 -0.10583314875E+03  0.14911930140E+02  0.17716512774E+03  0.77566833190E+02 0.  0.
          5    1    3    3  502    0  0.40477288240E+01  0.51088814048E+02 -0.66982365511E+02  0.84469984722E+02  0.47000000000E+01 0. -1.
        -11    1    4    4    0    0 -0.17790760629E+01  0.13813974004E+02 -0.18531973996E+02  0.23182429760E+02  0.00000000000E+00 0.  1.
         12    1    4    4    0    0  0.14927491818E+03  0.76193853971E+01 -0.19582061917E+02  0.15074652030E+03  0.00000000000E+00 0. -1.
         -5    1    5    5    0  501 -0.33442563999E+02  0.33310975298E+02  0.56093321011E+02  0.73461396830E+02  0.47000000000E+01 0.  1.
         13    1    6    6    0    0 -0.27358380626E+02 -0.28095057063E+01  0.28008300726E+02  0.39253524967E+02  0.00000000000E+00 0. -1.
        -14    1    6    6    0    0 -0.90742626319E+02 -0.10302364304E+03 -0.13096370586E+02  0.13791160277E+03  0.00000000000E+00 0.  1.
</event>
<event>
12    1  0.1348628E-002  0.2806706E+03  0.7818608E-02  0.1095323E+00
         -2   -1    0    0    0  501 -0.00000000000E+00  0.00000000000E+00  0.49944131156E+03  0.49944131156E+03  0.00000000000E+00 0.  1.
          2   -1    0    0  502    0  0.00000000000E+00 -0.00000000000E+00 -0.16385699451E+03  0.16385699451E+03  0.00000000000E+00 0. -1.
          6    2    1    2  502    0  0.11047997086E+03 -0.19301110883E+03  0.23199000582E+03  0.36421289003E+03  0.17138423022E+03 0.  0.
         24    2    3    3    0    0  0.36016491140E+02 -0.16616787554E+03  0.10511352152E+03  0.21459637605E+03  0.78062806212E+02 0.  0.
         -6    2    1    2    0  501 -0.11047997086E+03  0.19301110883E+03  0.10359431124E+03  0.29908541604E+03  0.17105903271E+03 0.  0.
        -24    2    5    5    0    0 -0.12968528366E+03  0.19379720975E+03  0.64446711250E+02  0.25522100473E+03  0.81294227107E+02 0.  0.
          5    1    3    3  502    0  0.74463479721E+02 -0.26843233293E+02  0.12687648430E+03  0.14961651398E+03  0.47000000000E+01 0. -1.
        -13    1    4    4    0    0  0.16770170614E+02 -0.14297911024E+03  0.11349439853E+03  0.18331732893E+03  0.00000000000E+00 0.  1.
         14    1    4    4    0    0  0.19246320526E+02 -0.23188765296E+02 -0.83808770054E+01  0.31279047126E+02  0.00000000000E+00 0. -1.
         -5    1    5    5    0  501  0.19205312802E+02 -0.78610091682E+00  0.39147599988E+02  0.43864411307E+02  0.47000000000E+01 0.  1.
         11    1    6    6    0    0 -0.60125159010E+02  0.76074652785E+02 -0.13382559707E+02  0.97885036889E+02  0.00000000000E+00 0. -1.
        -12    1    6    6    0    0 -0.69560124654E+02  0.11772255696E+03  0.77829270958E+02  0.15733596784E+03  0.00000000000E+00 0.  1.
</event>
<event>
12    1  0.1348628E-002  0.1946870E+03  0.7818608E-02  0.1154301E+00
         -2   -1    0    0    0  501 -0.00000000000E+00  0.00000000000E+00  0.24404273354E+02  0.24404273354E+02  0.00000000000E+00 0. -1.
          2   -1    0    0  502    0  0.00000000000E+00 -0.00000000000E+00 -0.31870162592E+04  0.31870162592E+04  0.00000000000E+00 0.  1.
          6    2    1    2  502    0  0.89583704907E+02  0.18519438061E+02 -0.27325410135E+04  0.27394953391E+04  0.17229658459E+03 0.  0.
         24    2    3    3    0    0  0.37925427899E+02 -0.33375099963E+02 -0.21888220359E+04  0.21908478774E+04  0.79500200186E+02 0.  0.
         -6    2    1    2    0  501 -0.89583704907E+02 -0.18519438061E+02 -0.43007097233E+03  0.47192519337E+03  0.17141801869E+03 0.  0.
        -24    2    5    5    0    0 -0.62011518627E+02 -0.78079981160E+02 -0.30348458272E+03  0.32925814117E+03  0.79787966998E+02 0.  0.
          5    1    3    3  502    0  0.51658277008E+02  0.51894538025E+02 -0.54371897756E+03  0.54864746169E+03  0.47000000000E+01 0. -1.
        -11    1    4    4    0    0  0.19961451899E+02  0.16210842882E+02 -0.14136280059E+04  0.14138618710E+04  0.00000000000E+00 0.  1.
         12    1    4    4    0    0  0.17963976000E+02 -0.49585942845E+02 -0.77519402997E+03  0.77698600648E+03  0.00000000000E+00 0. -1.
         -5    1    5    5    0  501 -0.27572186280E+02  0.59560543098E+02 -0.12658638960E+03  0.14266705220E+03  0.47000000000E+01 0.  1.
         11    1    6    6    0    0 -0.79535426745E+02 -0.64010867194E+02 -0.21568168156E+03  0.23862494209E+03  0.00000000000E+00 0. -1.
        -12    1    6    6    0    0  0.17523908118E+02 -0.14069113966E+02 -0.87802901160E+02  0.90633199081E+02  0.00000000000E+00 0.  1.
</event>
<event>
12    1  0.1348628E-002  0.1742336E+03  0.7818608E-02  0.1173503E+00
         -1   -1    0    0    0  501 -0.00000000000E+00  0.00000000000E+00  0.60832872113E+02  0.60832872113E+02  0.00000000000E+00 0.  1.
          1   -1    0    0  502    0  0.00000000000E+00 -0.00000000000E+00 -0.62813375161E+03  0.62813375161E+03  0.00000000000E+00 0. -1.
          6    2    1    2  502    0  0.11379679655E+02  0.21492893757E+02 -0.44052858975E+03  0.47393414054E+03  0.17308000922E+03 0.  0.
         24    2    3    3    0    0 -0.52986125609E+02 -0.11898543909E+02 -0.30476516833E+03  0.31994796716E+03  0.80844226814E+02 0.  0.
         -6    2    1    2    0  501 -0.11379679655E+02 -0.21492893757E+02 -0.12677228975E+03  0.21503248318E+03  0.17197765490E+03 0.  0.
        -24    2    5    5    0    0  0.59517990598E+02 -0.19394250696E+02 -0.89654744491E+02  0.13484092430E+03  0.78902303459E+02 0.  0.
          5    1    3    3  502    0  0.64365805264E+02  0.33391437665E+02 -0.13576342141E+03  0.15398617337E+03  0.47000000000E+01 0. -1.
        -11    1    4    4    0    0  0.18597214461E+01  0.59243256299E+01  0.29507371814E+01  0.68748125749E+01  0.00000000000E+00 0.  1.
         12    1    4    4    0    0 -0.54845847056E+02 -0.17822869538E+02 -0.30771590552E+03  0.31307315459E+03  0.00000000000E+00 0. -1.
         -5    1    5    5    0  501 -0.70897670253E+02 -0.20986430611E+01 -0.37117545257E+02  0.80191558882E+02  0.47000000000E+01 0.  1.
         11    1    6    6    0    0 -0.12847031860E+02 -0.14916113703E+02 -0.46428747442E+02  0.50429805320E+02  0.00000000000E+00 0. -1.
        -12    1    6    6    0    0  0.72365022459E+02 -0.44781369933E+01 -0.43225997049E+02  0.84411118979E+02  0.00000000000E+00 0.  1.
</event>
<event>
12    1  0.1348628E-002  0.2216272E+03  0.7818608E-02  0.1132676E+00
          1   -1    0    0  502    0  0.00000000000E+00  0.00000000000E+00  0.13266131919E+03  0.13266131919E+03  0.00000000000E+00 0. -1.
         -1   -1    0    0    0  501 -0.00000000000E+00 -0.00000000000E+00 -0.45529487143E+03  0.45529487143E+03  0.00000000000E+00 0.  1.
          6    2    1    2  502    0  0.12251675358E+03 -0.67304236974E+02 -0.28842351956E+03  0.36379740045E+03  0.17210521989E+03 0.  0.
         24    2    3    3    0    0  0.15599146933E+03 -0.43623792236E+02 -0.22653022835E+03  0.28940526676E+03  0.78759699834E+02 0.  0.
         -6    2    1    2    0  501 -0.12251675358E+03  0.67304236974E+02 -0.34210032683E+02  0.22415879017E+03  0.17186221706E+03 0.  0.
        -24    2    5    5    0    0 -0.48718480311E+02  0.36337931267E+02  0.46378385230E+02  0.11048522100E+03  0.79762734847E+02 0.  0.
          5    1    3    3  502    0 -0.33474715756E+02 -0.23680444738E+02 -0.61893291209E+02  0.74392133687E+02  0.47000000000E+01 0. -1.
        -11    1    4    4    0    0  0.12420795196E+03 -0.50606621832E+02 -0.21767969389E+03  0.25568162749E+03  0.00000000000E+00 0.  1.
         12    1    4    4    0    0  0.31783517367E+02  0.69828295955E+01 -0.88505344649E+01  0.33723639272E+02  0.00000000000E+00 0. -1.
         -5    1    5    5    0  501 -0.73798273265E+02  0.30966305708E+02 -0.80588417913E+02  0.11367356917E+03  0.47000000000E+01 0.  1.
         13    1    6    6    0    0 -0.19655623571E+02  0.57903667998E+02  0.15929251213E+02  0.63189550954E+02  0.00000000000E+00 0. -1.
        -14    1    6    6    0    0 -0.29062856740E+02 -0.21565736731E+02  0.30449134017E+02  0.47295670045E+02  0.00000000000E+00 0.  1.
</event>
<event>
12    1  0.1348628E-002  0.1922425E+03  0.7818608E-02  0.1156454E+00
         -2   -1    0    0    0  501 -0.00000000000E+00  0.00000000000E+00  0.13583475943E+02  0.13583475943E+02  0.00000000000E+00 0.  1.
          2   -1    0    0  502    0  0.00000000000E+00 -0.00000000000E+00 -0.30424230658E+04  0.30424230658E+04  0.00000000000E+00 0. -1.
          6    2    1    2  502    0  0.86991570134E+02 -0.48933454514E+01 -0.20093771084E+04  0.20185268362E+04  0.17106357453E+03 0.  0.
         24    2    3    3    0    0 -0.10648558400E+02  0.15177982116E+02 -0.66487250712E+03  0.67032389681E+03  0.83276124825E+02 0.  0.
         -6    2    1    2    0  501 -0.86991570134E+02  0.48933454514E+01 -0.10194624815E+04  0.10374797056E+04  0.17166511074E+03 0.  0.
        -24    2    5    5    0    0 -0.18806050996E+02 -0.61175484179E+01 -0.23610417774E+03  0.25106834577E+03  0.83060457188E+02 0.  0.
          5    1    3    3  502    0  0.97640128534E+02 -0.20071327567E+02 -0.13445046013E+04  0.13482029394E+04  0.47000000000E+01 0. -1.
        -13    1    4    4    0    0 -0.96285805443E+01 -0.10588550955E+02 -0.18273692774E+02  0.23211092655E+02  0.00000000000E+00 0.  1.
         14    1    4    4    0    0 -0.10199778557E+01  0.25766533070E+02 -0.64659881435E+03  0.64711280415E+03  0.00000000000E+00 0. -1.
         -5    1    5    5    0  501 -0.68185519138E+02  0.11010893869E+02 -0.78335830373E+03  0.78641135981E+03  0.47000000000E+01 0.  1.
         11    1    6    6    0    0 -0.15776975254E+02  0.40645732916E+01 -0.23939378798E+03  0.23994753474E+03  0.00000000000E+00 0. -1.
        -12    1    6    6    0    0 -0.30290757417E+01 -0.10182121709E+02  0.32896102425E+01  0.11120811027E+02  0.00000000000E+00 0.  1.
</event>
<event>
12    1  0.1348628E-002  0.1857464E+03  0.7818608E-02  0.1162355E+00
         -2   -1    0    0    0  501 -0.00000000000E+00  0.00000000000E+00  0.40480560533E+03  0.40480560533E+03  0.00000000000E+00 0.  1.
          2   -1    0    0  502    0  0.00000000000E+00 -0.00000000000E+00 -0.88554946193E+02  0.88554946193E+02  0.00000000000E+00 0. -1.
          6    2    1    2  502    0 -0.60516178449E+02 -0.34068022467E+02  0.20603308111E+03  0.27749236791E+03  0.17242257893E+03 0.  0.
         24    2    3    3    0    0 -0.18581585872E+02 -0.75017937848E+02  0.18214112403E+03  0.21402331058E+03  0.81594252724E+02 0.  0.
         -6    2    1    2    0  501  0.60516178449E+02  0.34068022467E+02  0.11021757803E+03  0.21586818362E+03  0.17212878953E+03 0.  0.
        -24    2    5    5    0    0 -0.13841257348E+02  0.26726685327E+02  0.19414224658E+00  0.82788621285E+02  0.77123420629E+02 0.  0.
          5    1    3    3  502    0 -0.41934592577E+02  0.40949915381E+02  0.23891957080E+02  0.63469057323E+02  0.47000000000E+01 0. -1.
        -13    1    4    4    0    0 -0.20109977903E+02  0.50081491761E+01  0.88225952646E+02  0.90627321983E+02  0.00000000000E+00 0.  1.
         14    1    4    4    0    0  0.15283920308E+01 -0.80026087024E+02  0.93915171383E+02  0.12339598860E+03  0.00000000000E+00 0. -1.
         -5    1    5    5    0  501  0.74357435797E+02  0.73413371400E+01  0.11002343578E+03  0.13307956233E+03  0.47000000000E+01 0.  1.
         11    1    6    6    0    0  0.19744071290E+02 -0.16107493428E+01 -0.25185817947E+02  0.32042913261E+02  0.00000000000E+00 0. -1.
        -12    1    6    6    0    0 -0.33585328639E+02  0.28337434670E+02  0.25379960194E+02  0.50745708024E+02  0.00000000000E+00 0.  1.
</event>
<event>
12    1  0.1348628E-002  0.1899000E+03  0.7818608E-02  0.1158552E+00
          1   -1    0    0  502    0  0.00000000000E+00  0.00000000000E+00  0.12910189135E+03  0.12910189135E+03  0.00000000000E+00 0.  1.
         -1   -1    0    0    0  501 -0.00000000000E+00 -0.00000000000E+00 -0.32900801633E+03  0.32900801633E+03  0.00000000000E+00 0. -1.
          6    2    1    2  502    0  0.56304589552E+01 -0.69834197692E+02 -0.95365068408E+01  0.18681567230E+03  0.17291799565E+03 0.  0.
         24    2    3    3    0    0 -0.48719234780E+02 -0.13006696979E+02 -0.40126838593E+02  0.10231056924E+03  0.79464151660E+02 0.  0.
         -6    2    1    2    0  501 -0.56304589552E+01  0.69834197692E+02 -0.19036961814E+03  0.27129423539E+03  0.18014286943E+03 0.  0.
        -24    2    5    5    0    0  0.40776782588E+02  0.10162514044E+03 -0.14881187151E+03  0.20119835524E+03  0.79657955548E+02 0.  0.
          5    1    3    3  502    0  0.54349693735E+02 -0.56827500713E+02  0.30590331752E+02  0.84505103060E+02  0.47000000000E+01 0. -1.
        -11    1    4    4    0    0 -0.19972138640E+02  0.26105491922E+02  0.81349371738E+01  0.33860895339E+02  0.00000000000E+00 0.  1.
         12    1    4    4    0    0 -0.28747096140E+02 -0.39112188900E+02 -0.48261775767E+02  0.68449673901E+02  0.00000000000E+00 0. -1.
         -5    1    5    5    0  501 -0.46407241543E+02 -0.31790942746E+02 -0.41557746631E+02  0.70095880146E+02  0.47000000000E+01 0.  1.
         11    1    6    6    0    0  0.55516764422E+02  0.31806091851E+02 -0.67139104811E+02  0.92743722190E+02  0.00000000000E+00 0. -1.
        -12    1    6    6    0    0 -0.14739981834E+02  0.69819048588E+02 -0.81672766697E+02  0.10845463305E+03  0.00000000000E+00 0.  1.
</event>
<event>
12    1  0.1348628E-002  0.2292550E+03  0.7818608E-02  0.1127165E+00
         -1   -1    0    0    0  501 -0.00000000000E+00  0.00000000000E+00  0.10697831448E+03  0.10697831448E+03  0.00000000000E+00 0.  1.
          1   -1    0    0  502    0  0.00000000000E+00 -0.00000000000E+00 -0.57579881796E+03  0.57579881796E+03  0.00000000000E+00 0. -1.
          6    2    1    2  502    0 -0.10549252416E+03 -0.10887044386E+03 -0.10370926970E+03  0.25170785604E+03  0.17210399755E+03 0.  0.
         24    2    3    3    0    0 -0.55962403816E+02 -0.13385445274E+03 -0.46233305342E+02  0.17168904576E+03  0.79314593561E+02 0.  0.
         -6    2    1    2    0  501  0.10549252416E+03  0.10887044386E+03 -0.36511123379E+03  0.43106927640E+03  0.17185186008E+03 0.  0.
        -24    2    5    5    0    0  0.11137243255E+03  0.10062743465E+03 -0.37778387733E+03  0.41418122092E+03  0.79345613980E+02 0.  0.
          5    1    3    3  502    0 -0.49530120342E+02  0.24984008879E+02 -0.57475964354E+02  0.80018810284E+02  0.47000000000E+01 0. -1.
        -11    1    4    4    0    0 -0.18515830062E+02 -0.86670374080E+02 -0.63498484947E+02  0.10902590195E+03  0.00000000000E+00 0.  1.
         12    1    4    4    0    0 -0.37446573754E+02 -0.47184078658E+02  0.17265179605E+02  0.62663143805E+02  0.00000000000E+00 0. -1.
         -5    1    5    5    0  501 -0.58799083939E+01  0.82430092094E+01  0.12672643537E+02  0.16888055476E+02  0.47000000000E+01 0.  1.
         11    1    6    6    0    0  0.92834320931E+02  0.44001205850E+02 -0.17606005644E+03  0.20384175415E+03  0.00000000000E+00 0. -1.
        -12    1    6    6    0    0  0.18538111622E+02  0.56626228799E+02 -0.20172382088E+03  0.21033946677E+03  0.00000000000E+00 0.  1.
</event>
<event>
12    1  0.1348628E-002  0.2091080E+03  0.7818608E-02  0.1142274E+00
         -2   -1    0    0    0  501 -0.00000000000E+00  0.00000000000E+00  0.14513950055E+02  0.14513950055E+02  0.00000000000E+00 0. -1.
          2   -1    0    0  502    0  0.00000000000E+00 -0.00000000000E+00 -0.32590958186E+04  0.32590958186E+04  0.00000000000E+00 0.  1.
          6    2    1    2  502    0 -0.11035458872E+03 -0.45924173456E+02 -0.11733850946E+04  0.11919000574E+04  0.17177311152E+03 0.  0.
         24    2    3    3    0    0 -0.74835282580E+01  0.29160736271E+02 -0.55343415494E+03  0.55898501078E+03  0.72584617483E+02 0.  0.
         -6    2    1    2    0  501  0.11035458872E+03  0.45924173456E+02 -0.20711967740E+04  0.20817097112E+04  0.17138284694E+03 0.  0.
        -24    2    5    5    0    0  0.79543767197E+02  0.83484094711E+02 -0.10202868656E+04  0.10296670410E+04  0.77020271563E+02 0.  0.
          5    1    3    3  502    0 -0.10287106046E+03 -0.75084909727E+02 -0.61995093962E+03  0.63291504666E+03  0.47000000000E+01 0. -1.
        -13    1    4    4    0    0  0.14305221862E+02  0.21087879272E+02 -0.62415371244E+02  0.67416738220E+02  0.00000000000E+00 0.  1.
         14    1    4    4    0    0 -0.21788750120E+02  0.80728569995E+01 -0.49101878369E+03  0.49156827256E+03  0.00000000000E+00 0. -1.
         -5    1    5    5    0  501  0.30810821523E+02 -0.37559921256E+02 -0.10509099084E+04  0.10520426703E+04  0.47000000000E+01 0.  1.
         13    1    6    6    0    0  0.16088326253E+02  0.72447439241E+02 -0.53268475303E+03  0.53782944491E+03  0.00000000000E+00 0. -1.
        -14    1    6    6    0    0  0.63455440944E+02  0.11036655470E+02 -0.48760211254E+03  0.49183759607E+03  0.00000000000E+00 0.  1.
</event>
<event>
12    1  0.1348628E-002  0.2405768E+03  0.7818608E-02  0.1119409E+00
          2   -1    0    0  502    0  0.00000000000E+00  0.00000000000E+00  0.13528676516E+03  0.13528676516E+03  0.00000000000E+00 0. -1.
         -2   -1    0    0    0  501 -0.00000000000E+00 -0.00000000000E+00 -0.61599281528E+03  0.61599281528E+03  0.00000000000E+00 0.  1.
          6    2    1    2  502    0  0.17035511163E+03 -0.36195176492E+02 -0.35391341988E+02  0.24688188764E+03  0.17136850497E+03 0.  0.
         24    2    3    3    0    0  0.19148156357E+03 -0.29448809674E+02 -0.56274690239E+02  0.21605909297E+03  0.77345131188E+02 0.  0.
         -6    2    1    2    0  501 -0.17035511163E+03  0.36195176492E+02 -0.44531470813E+03  0.50439769280E+03  0.16056428111E+03 0.  0.
        -24    2    5    5    0    0 -0.50476305467E+02 -0.21065970102E+02 -0.25079725530E+03  0.26879443193E+03  0.79746792179E+02 0.  0.
          5    1    3    3  502    0 -0.21126451938E+02 -0.67463668185E+01  0.20883348251E+02  0.30822794664E+02  0.47000000000E+01 0. -1.
        -13    1    4    4    0    0  0.12980160331E+03  0.14034987752E+02 -0.51802603982E+02  0.14045976962E+03  0.00000000000E+00 0.  1.
         14    1    4    4    0    0  0.61679960257E+02 -0.43483797426E+02 -0.44720862572E+01  0.75599323352E+02  0.00000000000E+00 0. -1.
         -5    1    5    5    0  501 -0.11987880616E+03  0.57261146594E+02 -0.19451745284E+03  0.23560326087E+03  0.47000000000E+01 0.  1.
         13    1    6    6    0    0 -0.71254452313E+01 -0.25236187570E+01 -0.19746023445E+03  0.19760487041E+03  0.00000000000E+00 0. -1.
        -14    1    6    6    0    0 -0.43350860236E+02 -0.18542351345E+02 -0.53337020849E+02  0.71189561521E+02  0.00000000000E+00 0.  1.
</event>
<event>
12    1  0.1348628E-002  0.2157155E+03  0.7818608E-02  0.1137118E+00
         -2   -1    0    0    0  501 -0.00000000000E+00  0.00000000000E+00  0.92145255401E+02  0.92145255401E+02  0.00000000000E+00 0. -1.
          2   -1    0    0  502    0  0.00000000000E+00 -0.00000000000E+00 -0.73371466728E+03  0.73371466728E+03  0.00000000000E+00 0.  1.
          6    2    1    2  502    0  0.12900938969E+03  0.92482609393E+01 -0.55055613237E+03  0.59103357870E+03  0.17169648600E+03 0.  0.
         24    2    3    3    0    0  0.13762295005E+03 -0.59311614456E+01 -0.54894216106E+03  0.57288686579E+03  0.88806586178E+02 0.  0.
         -6    2    1    2    0  501 -0.12900938969E+03 -0.92482609393E+01 -0.91013279513E+02  0.23482634398E+03  0.17358295372E+03 0.  0.
        -24    2    5    5    0    0 -0.14808418525E+02  0.42412252046E+02 -0.33722121626E+02  0.96931321633E+02  0.78996273606E+02 0.  0.
          5    1    3    3  502    0 -0.86135603572E+01  0.15179422385E+02 -0.16139713052E+01  0.18146712907E+02  0.47000000000E+01 0. -1.
        -13    1    4    4    0    0  0.49292471958E+02 -0.76155233929E+01 -0.36975747202E+03  0.37310632814E+03  0.00000000000E+00 0.  1.
         14    1    4    4    0    0  0.88330478090E+02  0.16843619473E+01 -0.17918468905E+03  0.19978053765E+03  0.00000000000E+00 0. -1.
         -5    1    5    5    0  501 -0.11420097117E+03 -0.51660512985E+02 -0.57291157887E+02  0.13789502235E+03  0.47000000000E+01 0.  1.
         13    1    6    6    0    0 -0.24981346297E+02  0.50760460797E+02  0.42592224687E+01  0.56734760237E+02  0.00000000000E+00 0. -1.
        -14    1    6    6    0    0  0.10172927771E+02 -0.83482087513E+01 -0.37981344095E+02  0.40196561396E+02  0.00000000000E+00 0.  1.
</event>
<event>
12    1  0.1348628E-002  0.2632782E+03  0.7818608E-02  0.1105189E+00
          2   -1    0    0  502    0  0.00000000000E+00  0.00000000000E+00  0.14997669483E+04  0.14997669483E+04  0.00000000000E+00 0.  1.
         -2   -1    0    0    0  501 -0.00000000000E+00 -0.00000000000E+00 -0.49941407052E+02  0.49941407052E+02  0.00000000000E+00 0. -1.
          6    2    1    2  502    0 -0.87418909455E+02 -0.17852230048E+03  0.93576349558E+03  0.97201691860E+03  0.17219550774E+03 0.  0.
         24    2    3    3    0    0 -0.15578341257E+02 -0.75962375655E+02  0.65026168834E+03  0.66022696149E+03  0.83942897965E+02 0.  0.
         -6    2    1    2    0  501  0.87418909455E+02  0.17852230048E+03  0.51406204564E+03  0.57769143672E+03  0.17307608673E+03 0.  0.
        -24    2    5    5    0    0  0.90269168688E+02  0.39526113906E+02  0.25044880554E+03  0.27962752711E+03  0.75869053133E+02 0.  0.
          5    1    3    3  502    0 -0.71840568198E+02 -0.10255992483E+03  0.28550180723E+03  0.31178995711E+03  0.47000000000E+01 0. -1.
        -13    1    4    4    0    0 -0.20072654821E+01 -0.86309729967E+02  0.39163679022E+03  0.40103961657E+03  0.00000000000E+00 0.  1.
         14    1    4    4    0    0 -0.13571075775E+02  0.10347354312E+02  0.25862489812E+03  0.25918734492E+03  0.00000000000E+00 0. -1.
         -5    1    5    5    0  501 -0.28502592329E+01  0.13899618658E+03  0.26361324009E+03  0.29806390961E+03  0.47000000000E+01 0.  1.
         11    1    6    6    0    0  0.58542851836E+02 -0.40513961772E+01  0.70229714447E+02  0.91519900041E+02  0.00000000000E+00 0. -1.
        -12    1    6    6    0    0  0.31726316852E+02  0.43577510083E+02  0.18021909109E+03  0.18810762707E+03  0.00000000000E+00 0.  1.
</event>
<event>
12    1  0.1348628E-002  0.3653832E+03  0.7818608E-02  0.1056472E+00
         -1   -1    0    0    0  501 -0.00000000000E+00  0.00000000000E+00  0.57926057144E+02  0.57926057144E+02  0.00000000000E+00 0.  1.
          1   -1    0    0  502    0  0.00000000000E+00 -0.00000000000E+00 -0.26206780690E+04  0.26206780690E+04  0.00000000000E+00 0. -1.
          6    2    1    2  502    0  0.29098887392E+03  0.13817414235E+03 -0.81682833484E+03  0.89488792561E+03  0.17276936201E+03 0.  0.
         24    2    3    3    0    0  0.15043394168E+03  0.25249893611E+01 -0.36619042567E+03  0.40371280729E+03  0.79068682371E+02 0.  0.
         -6    2    1    2    0  501 -0.29098887392E+03 -0.13817414235E+03 -0.17459236770E+04  0.17837162005E+04  0.17212605766E+03 0.  0.
        -24    2    5    5    0    0 -0.13665486702E+03 -0.12276469769E+03 -0.11806813295E+04  0.11975614104E+04  0.79995037120E+02 0.  0.
          5    1    3    3  502    0  0.14055493224E+03  0.13564915299E+03 -0.45063790917E+03  0.49117511833E+03  0.47000000000E+01 0. -1.
        -11    1    4    4    0    0  0.12795169389E+03  0.14981959595E+02 -0.21727530133E+03  0.25259582667E+03  0.00000000000E+00 0.  1.
         12    1    4    4    0    0  0.22482247791E+02 -0.12456970234E+02 -0.14891512434E+03  0.15111698061E+03  0.00000000000E+00 0. -1.
         -5    1    5    5    0  501 -0.15433400690E+03 -0.15409444656E+02 -0.56524234742E+03  0.58615479013E+03  0.47000000000E+01 0.  1.
         13    1    6    6    0    0 -0.64631161778E+02 -0.32182322993E+02 -0.67275991962E+03  0.67662308447E+03  0.00000000000E+00 0. -1.
        -14    1    6    6    0    0 -0.72023705238E+02 -0.90582374698E+02 -0.50792140993E+03  0.52093832589E+03  0.00000000000E+00 0.  1.
</event>
<event>
12    1  0.1348628E-002  0.2115088E+03  0.7818608E-02  0.1140377E+00
         -2   -1    0    0    0  501 -0.00000000000E+00  0.00000000000E+00  0.71751406034E+03  0.71751406034E+03  0.00000000000E+00 0. -1.
          2   -1    0    0  502    0  0.00000000000E+00 -0.00000000000E+00 -0.62381396870E+02  0.62381396870E+02  0.00000000000E+00 0.  1.
          6    2    1    2  502    0 -0.90262681582E+02 -0.82949460626E+02  0.31651692782E+03  0.37971831323E+03  0.17022064241E+03 0.  0.
         24    2    3    3    0    0 -0.22912250555E+02  0.70818925301E+00  0.21355486871E+03  0.23086281767E+03  0.84655099523E+02 0.  0.
         -6    2    1    2    0  501  0.90262681582E+02  0.82949460626E+02  0.33861573564E+03  0.40017714397E+03  0.17450835347E+03 0.  0.
        -24    2    5    5    0    0  0.57738633984E+02  0.38552616300E+02  0.32717738693E+03  0.34376952676E+03  0.79450556542E+02 0.  0.
          5    1    3    3  502    0 -0.67350431027E+02 -0.83657649879E+02  0.10296205912E+03  0.14885549557E+03  0.47000000000E+01 0. -1.
        -11    1    4    4    0    0 -0.52190189809E+02 -0.13541015339E+02  0.11377466884E+03  0.12590413130E+03  0.00000000000E+00 0.  1.
         12    1    4    4    0    0  0.29277939254E+02  0.14249204592E+02  0.99780199870E+02  0.10495868637E+03  0.00000000000E+00 0. -1.
         -5    1    5    5    0  501  0.32524047598E+02  0.44396844326E+02  0.11438348715E+02  0.56407617212E+02  0.47000000000E+01 0.  1.
         13    1    6    6    0    0 -0.52261829182E+01  0.36034130938E+02  0.69053529992E+02  0.78065111188E+02  0.00000000000E+00 0. -1.
        -14    1    6    6    0    0  0.62964816902E+02  0.25184853617E+01  0.25812385693E+03  0.26570441557E+03  0.00000000000E+00 0.  1.
</event>
<event>
12    1  0.1348628E-002  0.1928986E+03  0.7818608E-02  0.1155873E+00
         -4   -1    0    0    0  501 -0.00000000000E+00  0.00000000000E+00  0.16015746498E+03  0.16015746498E+03  0.00000000000E+00 0.  1.
          4   -1    0    0  502    0  0.00000000000E+00 -0.00000000000E+00 -0.38833042738E+03  0.38833042738E+03  0.00000000000E+00 0. -1.
          6    2    1    2  502    0  0.17682980753E+02  0.84930897815E+02  0.59546290107E+02  0.20237792000E+03  0.17287312292E+03 0.  0.
         24    2    3    3    0    0  0.32771364543E+01 -0.24473104027E+02  0.24621160650E+02  0.86539158631E+02  0.79203232135E+02 0.  0.
         -6    2    1    2    0  501 -0.17682980753E+02 -0.84930897815E+02 -0.28771925251E+03  0.34610997236E+03  0.17170847240E+03 0.  0.
        -24    2    5    5    0    0 -0.28004904814E+02  0.13283965917E+02 -0.17673218267E+03  0.19747309522E+03  0.82465874768E+02 0.  0.
          5    1    3    3  502    0  0.14405844298E+02  0.10940400184E+03  0.34925129456E+02  0.11583876137E+03  0.47000000000E+01 0. -1.
        -13    1    4    4    0    0 -0.37411083724E+02 -0.98944853714E+01  0.18481157381E+02  0.42884067022E+02  0.00000000000E+00 0.  1.
         14    1    4    4    0    0  0.40688220179E+02 -0.14578618656E+02  0.61400032694E+01  0.43655091609E+02  0.00000000000E+00 0. -1.
         -5    1    5    5    0  501  0.10321924061E+02 -0.98214863732E+02 -0.11098706983E+03  0.14863687714E+03  0.47000000000E+01 0.  1.
         11    1    6    6    0    0 -0.25861250421E+02 -0.44284657515E+01 -0.17767949302E+03  0.17960628558E+03  0.00000000000E+00 0. -1.
        -12    1    6    6    0    0 -0.21436543923E+01  0.17712431669E+02  0.94731034698E+00  0.17866809639E+02  0.00000000000E+00 0.  1.
</event>
<event>
12    1  0.1348628E-002  0.2528667E+03  0.7818608E-02  0.1111506E+00
          1   -1    0    0  502    0  0.00000000000E+00  0.00000000000E+00  0.64133178939E+03  0.64133178939E+03  0.00000000000E+00 0.  1.
         -1   -1    0    0    0  501 -0.00000000000E+00 -0.00000000000E+00 -0.11465995288E+03  0.11465995288E+03  0.00000000000E+00 0. -1.
          6    2    1    2  502    0 -0.45896417872E+02 -0.17971870333E+03  0.12624960808E+03  0.28207956092E+03  0.17095210337E+03 0.  0.
         24    2    3    3    0    0 -0.88661173700E+02 -0.16622216014E+03  0.87058275572E+02  0.22233818863E+03  0.79777920094E+02 0.  0.
         -6    2    1    2    0  501  0.45896417872E+02  0.17971870333E+03  0.40042222843E+03  0.47391218135E+03  0.17277008166E+03 0.  0.
        -24    2    5    5    0    0  0.29656530696E+02  0.20338126472E+03  0.32143982868E+03  0.38974591604E+03  0.79591877478E+02 0.  0.
          5    1    3    3  502    0  0.42764755828E+02 -0.13496543196E+02  0.39191332507E+02  0.59741372289E+02  0.47000000000E+01 0. -1.
        -11    1    4    4    0    0 -0.24603921389E+02 -0.10595710827E+02  0.39004770277E+02  0.47318010736E+02  0.00000000000E+00 0.  1.
         12    1    4    4    0    0 -0.64057252311E+02 -0.15562644931E+03  0.48053505295E+02  0.17502017789E+03  0.00000000000E+00 0. -1.
         -5    1    5    5    0  501  0.16239887176E+02 -0.23662561384E+02  0.78982399747E+02  0.84166265312E+02  0.47000000000E+01 0.  1.
         13    1    6    6    0    0 -0.23498374735E+01  0.18149204827E+03  0.25980159912E+03  0.31692547425E+03  0.00000000000E+00 0. -1.
        -14    1    6    6    0    0  0.32006368169E+02  0.21889216442E+02  0.61638229560E+02  0.72820441795E+02  0.00000000000E+00 0.  1.
</event>
<event>
12    1  0.1348628E-002  0.1972200E+03  0.7818608E-02  0.1152106E+00
          2   -1    0    0  502    0  0.00000000000E+00  0.00000000000E+00  0.71295910635E+03  0.71295910635E+03  0.00000000000E+00 0. -1.
         -2   -1    0    0    0  501 -0.00000000000E+00 -0.00000000000E+00 -0.59662171520E+02  0.59662171520E+02  0.00000000000E+00 0.  1.
          6    2    1    2  502    0 -0.84476515426E+02  0.43259295509E+02  0.44126037753E+03  0.48376424263E+03  0.17409616124E+03 0.  0.
         24    2    3    3    0    0 -0.70018715134E+02 -0.41364595785E+02  0.25552335494E+03  0.27909240155E+03  0.77373984206E+02 0.  0.
         -6    2    1    2    0  501  0.84476515426E+02 -0.43259295509E+02  0.21203655730E+03  0.28885703525E+03  0.17167188725E+03 0.  0.
        -24    2    5    5    0    0  0.10007452803E+03 -0.63054517439E+02  0.21920218363E+03  0.26223777513E+03  0.82026032860E+02 0.  0.
          5    1    3    3  502    0 -0.14457800292E+02  0.84623891294E+02  0.18573702260E+03  0.20467184108E+03  0.47000000000E+01 0. -1.
        -11    1    4    4    0    0 -0.33935414938E+02  0.18423435844E+02  0.58831082984E+02  0.70371384102E+02  0.00000000000E+00 0.  1.
         12    1    4    4    0    0 -0.36083300196E+02 -0.59788031629E+02  0.19669227195E+03  0.20872101745E+03  0.00000000000E+00 0. -1.
         -5    1    5    5    0  501 -0.15598012601E+02  0.19795221930E+02 -0.71656263306E+01  0.26619260115E+02  0.47000000000E+01 0.  1.
         13    1    6    6    0    0  0.28418255315E+02  0.99237741296E+01  0.10361003275E+03  0.10789401010E+03  0.00000000000E+00 0. -1.
        -14    1    6    6    0    0  0.71656272712E+02 -0.72978291569E+02  0.11559215088E+03  0.15434376503E+03  0.00000000000E+00 0.  1.
</event>
<event>
12    1  0.1348628E-002  0.2015071E+03  0.7818608E-02  0.1148474E+00
          2   -1    0    0  502    0  0.00000000000E+00  0.00000000000E+00  0.12621584240E+04  0.12621584240E+04  0.00000000000E+00 0. -1.
         -2   -1    0    0    0  501 -0.00000000000E+00 -0.00000000000E+00 -0.33896669958E+02  0.33896669958E+02  0.00000000000E+00 0.  1.
          6    2    1    2  502    0  0.84128178884E+02  0.62613742356E+02  0.46700407698E+03  0.50849746219E+03  0.17169400082E+03 0.  0.
         24    2    3    3    0    0  0.15349245434E+02  0.55171821753E+02  0.12144014332E+03  0.15604541422E+03  0.79516876435E+02 0.  0.
         -6    2    1    2    0  501 -0.84128178884E+02 -0.62613742356E+02  0.76125767703E+03  0.78755763174E+03  0.17244054414E+03 0.  0.
        -24    2    5    5    0    0 -0.70515200053E+02 -0.56637609959E+02  0.24384960534E+03  0.26991467564E+03  0.72187878493E+02 0.  0.
          5    1    3    3  502    0  0.68778933449E+02  0.74419206028E+01  0.34556393366E+03  0.35245204797E+03  0.47000000000E+01 0. -1.
        -11    1    4    4    0    0  0.41816723950E+02  0.24200287477E+02  0.32528222043E+02  0.58244120262E+02  0.00000000000E+00 0.  1.
         12    1    4    4    0    0 -0.26467478515E+02  0.30971534276E+02  0.88911921274E+02  0.97801293953E+02  0.00000000000E+00 0. -1.
         -5    1    5    5    0  501 -0.13612978831E+02 -0.59761323973E+01  0.51740807170E+03  0.51764295611E+03  0.47000000000E+01 0.  1.
         13    1    6    6    0    0 -0.55580849847E+02 -0.42336144069E+02  0.23854630752E+03  0.24856773884E+03  0.00000000000E+00 0. -1.
        -14    1    6    6    0    0 -0.14934350206E+02 -0.14301465890E+02  0.53032978193E+01  0.21346936793E+02  0.00000000000E+00 0.  1.
</event>
<event>
12    1  0.1348628E-002  0.2042175E+03  0.7818608E-02  0.1146229E+00
          2   -1    0    0  502    0  0.00000000000E+00  0.00000000000E+00  0.13208025355E+04  0.13208025355E+04  0.00000000000E+00 0.  1.
         -2   -1    0    0    0  501 -0.00000000000E+00 -0.00000000000E+00 -0.37826519700E+02  0.37826519700E+02  0.00000000000E+00 0. -1.
          6    2    1    2  502    0  0.97221824548E+02 -0.53081074356E+02  0.91360938815E+03  0.93582589138E+03  0.16975953949E+03 0.  0.
         24    2    3    3    0    0  0.23606741871E+02  0.31305973983E+02  0.35198256259E+03  0.36312428015E+03  0.80188379439E+02 0.  0.
         -6    2    1    2    0  501 -0.97221824548E+02  0.53081074356E+02  0.36936662762E+03  0.42280316378E+03  0.17338144677E+03 0.  0.
        -24    2    5    5    0    0 -0.19088390482E+02  0.74066267133E+02  0.12632494111E+03  0.16660682655E+03  0.77134073704E+02 0.  0.
          5    1    3    3  502    0  0.73615082677E+02 -0.84387048338E+02  0.56162682555E+03  0.57270161123E+03  0.47000000000E+01 0. -1.
        -13    1    4    4    0    0  0.40290750839E+02 -0.20510849588E+01  0.27074480277E+03  0.27373399456E+03  0.00000000000E+00 0.  1.
         14    1    4    4    0    0 -0.16684008968E+02  0.33357058941E+02  0.81237759825E+02  0.89390285590E+02  0.00000000000E+00 0. -1.
         -5    1    5    5    0  501 -0.78133434066E+02 -0.20985192778E+02  0.24304168650E+03  0.25619633724E+03  0.47000000000E+01 0.  1.
         11    1    6    6    0    0 -0.41821825778E+02  0.30330543207E+02  0.95190105951E+02  0.10830587811E+03  0.00000000000E+00 0. -1.
        -12    1    6    6    0    0  0.22733435296E+02  0.43735723926E+02  0.31134835163E+02  0.58300948434E+02  0.00000000000E+00 0.  1.
</event>
<event>
12    1  0.1348628E-002  0.2385938E+03  0.7818608E-02  0.1120733E+00
          2   -1    0    0  502    0  0.00000000000E+00  0.00000000000E+00  0.21113238948E+04  0.21113238948E+04  0.00000000000E+00 0. -1.
         -2   -1    0    0    0  501 -0.00000000000E+00 -0.00000000000E+00 -0.31037277749E+02  0.31037277749E+02  0.00000000000E+00 0.  1.
          6    2    1    2  502    0 -0.10911732816E+03 -0.12557572057E+03  0.14240204164E+04  0.14436874486E+04  0.16947993992E+03 0.  0.
         24    2    3    3    0    0  0.56909164263E+01 -0.34392974086E+02  0.67861054247E+03  0.68398145519E+03  0.78122336718E+02 0.  0.
         -6    2    1    2    0  501  0.10911732816E+03  0.12557572057E+03  0.65626620064E+03  0.69867372393E+03  0.17257981779E+03 0.  0.
        -24    2    5    5    0    0  0.77132054102E+02  0.83216443490E+02  0.22553435805E+03  0.26465831368E+03  0.79397393558E+02 0.  0.
          5    1    3    3  502    0 -0.11480824459E+03 -0.91182746489E+02  0.74540987396E+03  0.75970599345E+03  0.47000000000E+01 0. -1.
        -11    1    4    4    0    0 -0.11228139230E+01 -0.21789387359E+02  0.43085312807E+02  0.48294743941E+02  0.00000000000E+00 0.  1.
         12    1    4    4    0    0  0.68137303493E+01 -0.12603586727E+02  0.63552522967E+03  0.63568671125E+03  0.00000000000E+00 0. -1.
         -5    1    5    5    0  501  0.31985274058E+02  0.42359277085E+02  0.43073184259E+03  0.43401541025E+03  0.47000000000E+01 0.  1.
         13    1    6    6    0    0  0.19492673086E+02 -0.90091272055E+00  0.10490442432E+03  0.10670386211E+03  0.00000000000E+00 0. -1.
        -14    1    6    6    0    0  0.57639381017E+02  0.84117356210E+02  0.12062993373E+03  0.15795445157E+03  0.00000000000E+00 0.  1.
</event>
<event>
12    1  0.1348628E-002  0.2926135E+03  0.7818608E-02  0.1088992E+00
          2   -1    0    0  502    0  0.00000000000E+00  0.00000000000E+00  0.73665508045E+03  0.73665508045E+03  0.00000000000E+00 0. -1.
         -2   -1    0    0    0  501 -0.00000000000E+00 -0.00000000000E+00 -0.14565863880E+03  0.14565863880E+03  0.00000000000E+00 0.  1.
          6    2    1    2  502    0 -0.22756964005E+03  0.66381484433E+02  0.49395136075E+03  0.57422167149E+03  0.17189572032E+03 0.  0.
         24    2    3    3    0    0 -0.21001053466E+03  0.21633729498E+02  0.46644354980E+03  0.51863881966E+03  0.82729663284E+02 0.  0.
         -6    2    1    2    0  501  0.22756964005E+03 -0.66381484433E+02  0.97045080897E+02  0.30809204776E+03  0.17119731195E+03 0.  0.
        -24    2    5    5    0    0  0.90892239894E+02 -0.49394267325E+02 -0.12798593617E+02  0.13186208411E+03  0.80762691319E+02 0.  0.
          5    1    3    3  502    0 -0.17559105392E+02  0.44747754935E+02  0.27507810956E+02  0.55582851829E+02  0.47000000000E+01 0. -1.
        -13    1    4    4    0    0 -0.55438986980E+02  0.40396010907E+02  0.10948734046E+03  0.12920060641E+03  0.00000000000E+00 0.  1.
         14    1    4    4    0    0 -0.15457154768E+03 -0.18762281408E+02  0.35695620934E+03  0.38943821325E+03  0.00000000000E+00 0. -1.
         -5    1    5    5    0  501  0.13667740016E+03 -0.16987217109E+02  0.10984367451E+03  0.17622996366E+03  0.47000000000E+01 0.  1.
         13    1    6    6    0    0  0.91832861862E+01 -0.26863665955E+02  0.26136292689E+02  0.38588794867E+02  0.00000000000E+00 0. -1.
        -14    1    6    6    0    0  0.81708953708E+02 -0.22530601370E+02 -0.38934886306E+02  0.93273289241E+02  0.00000000000E+00 0.  1.
</event>
<event>
12    1  0.1348628E-002  0.2274318E+03  0.7818608E-02  0.1128461E+00
          2   -1    0    0  502    0  0.00000000000E+00  0.00000000000E+00  0.16690418887E+04  0.16690418887E+04  0.00000000000E+00 0.  1.
         -2   -1    0    0    0  501 -0.00000000000E+00 -0.00000000000E+00 -0.31425617746E+02  0.31425617746E+02  0.00000000000E+00 0. -1.
          6    2    1    2  502    0 -0.14360742184E+03 -0.31878009893E+02  0.72606741473E+03  0.76144678193E+03  0.17603412130E+03 0.  0.
         24    2    3    3    0    0 -0.10679891183E+03 -0.71776348327E+02  0.35318115143E+03  0.38460066059E+03  0.81381144298E+02 0.  0.
         -6    2    1    2    0  501  0.14360742184E+03  0.31878009893E+02  0.91154885625E+03  0.93902072454E+03  0.17087804032E+03 0.  0.
        -24    2    5    5    0    0  0.14740603848E+02  0.38463148026E+02  0.48148193942E+03  0.48998880611E+03  0.81039946701E+02 0.  0.
          5    1    3    3  502    0 -0.36808510005E+02  0.39898338434E+02  0.37288626330E+03  0.37684612135E+03  0.47000000000E+01 0. -1.
        -13    1    4    4    0    0 -0.52073988432E+02 -0.25201698137E+02  0.26300981390E+03  0.26929721140E+03  0.00000000000E+00 0.  1.
         14    1    4    4    0    0 -0.54724923400E+02 -0.46574650190E+02  0.90171337534E+02  0.11530344919E+03  0.00000000000E+00 0. -1.
         -5    1    5    5    0  501  0.12886681799E+03 -0.65851381333E+01  0.43006691682E+03  0.44903191843E+03  0.47000000000E+01 0.  1.
         11    1    6    6    0    0  0.20410988552E+02  0.10361734549E+02  0.30690966015E+02  0.38287196182E+02  0.00000000000E+00 0. -1.
        -12    1    6    6    0    0 -0.56703847042E+01  0.28101413477E+02  0.45079097341E+03  0.45170160992E+03  0.00000000000E+00 0.  1.
</event>
<event>
12    1  0.1348628E-002  0.2390726E+03  0.7818608E-02  0.1120412E+00
          2   -1    0    0  502    0  0.00000000000E+00  0.00000000000E+00  0.11660072870E+04  0.11660072870E+04  0.00000000000E+00 0.  1.
         -2   -1    0    0    0  501 -0.00000000000E+00 -0.00000000000E+00 -0.72698908657E+02  0.72698908657E+02  0.00000000000E+00 0. -1.
          6    2    1    2  502    0 -0.11090714368E+03 -0.11346139505E+03  0.89117970553E+03  0.92126300184E+03  0.17131949199E+03 0.  0.
         24    2    3    3    0    0 -0.85346271418E+01 -0.93630388228E+02  0.58549196427E+03  0.59824522195E+03  0.79101301491E+02 0.  0.
         -6    2    1    2    0  501  0.11090714368E+03  0.11346139505E+03  0.20212867282E+03  0.31744319382E+03  0.18638749486E+03 0.  0.
        -24    2    5    5    0    0  0.90860610215E+02  0.47372185589E+02  0.32178531870E+02  0.13393627972E+03  0.80023088272E+02 0.  0.
          5    1    3    3  502    0 -0.10237251654E+03 -0.19831006826E+02  0.30568774125E+03  0.32301777989E+03  0.47000000000E+01 0. -1.
        -11    1    4    4    0    0 -0.26325890073E+02 -0.95030168334E+02  0.54700235371E+03  0.55581953937E+03  0.00000000000E+00 0.  1.
         12    1    4    4    0    0  0.17791262931E+02  0.13997801059E+01  0.38489610557E+02  0.42425682574E+02  0.00000000000E+00 0. -1.
         -5    1    5    5    0  501  0.20046533465E+02  0.66089209465E+02  0.16995014095E+03  0.18350691410E+03  0.47000000000E+01 0.  1.
         13    1    6    6    0    0 -0.11764845444E+02 -0.71862211722E+01  0.35602979201E+01  0.14238296399E+02  0.00000000000E+00 0. -1.
        -14    1    6    6    0    0  0.10262545566E+03  0.54558406761E+02  0.28618233950E+02  0.11969798332E+03  0.00000000000E+00 0.  1.
</event>
<event>
12    1  0.1348628E-002  0.2060718E+03  0.7818608E-02  0.1144715E+00
         -1   -1    0    0    0  501 -0.00000000000E+00  0.00000000000E+00  0.69006970147E+02  0.69006970147E+02  0.00000000000E+00 0. -1.
          1   -1    0    0  502    0  0.00000000000E+00 -0.00000000000E+00 -0.66694183441E+03  0.66694183441E+03  0.00000000000E+00 0.  1.
          6    2    1    2  502    0  0.64193868721E+02 -0.94232981909E+02 -0.39956318858E+03  0.44899701916E+03  0.17013780850E+03 0.  0.
         24    2    3    3    0    0  0.88951619043E+02 -0.11643502080E+03 -0.36327541687E+03  0.39955241270E+03  0.78762918896E+02 0.  0.
         -6    2    1    2    0  501 -0.64193868721E+02  0.94232981909E+02 -0.19837167568E+03  0.28695178540E+03  0.17317418332E+03 0.  0.
        -24    2    5    5    0    0 -0.19991697101E+02  0.11920391353E+03 -0.17146417348E+03  0.22930212732E+03  0.92575708766E+02 0.  0.
          5    1    3    3  502    0 -0.24757750322E+02  0.22202038892E+02 -0.36287771713E+02  0.49444606459E+02  0.47000000000E+01 0. -1.
        -13    1    4    4    0    0  0.11369831775E+02  0.60752610569E+01 -0.82911004411E+02  0.83907189942E+02  0.00000000000E+00 0.  1.
         14    1    4    4    0    0  0.77581787268E+02 -0.12251028186E+03 -0.28036441246E+03  0.31564522276E+03  0.00000000000E+00 0. -1.
         -5    1    5    5    0  501 -0.44202171620E+02 -0.24970931617E+02 -0.26907502201E+02  0.57649658078E+02  0.47000000000E+01 0.  1.
         13    1    6    6    0    0 -0.50366015797E+02  0.38161085168E+02 -0.52308601137E+02  0.82031662919E+02  0.00000000000E+00 0. -1.
        -14    1    6    6    0    0  0.30374318696E+02  0.81042828359E+02 -0.11915557234E+03  0.14727046440E+03  0.00000000000E+00 0.  1.
</event>
<event>
12    1  0.1348628E-002  0.1861801E+03  0.7818608E-02  0.1161952E+00
          2   -1    0    0  502    0  0.00000000000E+00  0.00000000000E+00  0.10244610967E+04  0.10244610967E+04  0.00000000000E+00 0.  1.
         -2   -1    0    0    0  501 -0.00000000000E+00 -0.00000000000E+00 -0.33844267407E+02  0.33844267407E+02  0.00000000000E+00 0. -1.
          6    2    1    2  502    0  0.42576899289E+02 -0.55248658783E+02  0.48404480227E+03  0.51813472071E+03  0.17116954037E+03 0.  0.
         24    2    3    3    0    0 -0.40789710374E+01  0.29098675112E+02  0.27196531947E+03  0.28513034307E+03  0.80441324273E+02 0.  0.
         -6    2    1    2    0  501 -0.42576899289E+02  0.55248658783E+02  0.50657202700E+03  0.54017064338E+03  0.17408015043E+03 0.  0.
        -24    2    5    5    0    0 -0.14475494461E+02  0.26143157108E+02  0.48812526427E+03  0.49545831581E+03  0.79496317428E+02 0.  0.
          5    1    3    3  502    0  0.46655870326E+02 -0.84347333894E+02  0.21207948280E+03  0.23300437764E+03  0.47000000000E+01 0. -1.
        -13    1    4    4    0    0 -0.24599835602E+02  0.25546861103E+02  0.45402372858E+02  0.57612233814E+02  0.00000000000E+00 0.  1.
         14    1    4    4    0    0  0.20520864564E+02  0.35518140081E+01  0.22656294661E+03  0.22751810926E+03  0.00000000000E+00 0. -1.
         -5    1    5    5    0  501 -0.28101404828E+02  0.29105501675E+02  0.18446762733E+02  0.44712327566E+02  0.47000000000E+01 0.  1.
         11    1    6    6    0    0 -0.31674877719E+02 -0.11477963629E+01  0.79850115593E+02  0.85910745982E+02  0.00000000000E+00 0. -1.
        -12    1    6    6    0    0  0.17199383259E+02  0.27290953471E+02  0.40827514867E+03  0.40954756983E+03  0.00000000000E+00 0.  1.
</event>
<event>
12    1  0.1348628E-002  0.3980024E+03  0.7818608E-02  0.1044474E+00
         -2   -1    0    0    0  501 -0.00000000000E+00  0.00000000000E+00  0.25885673683E+03  0.25885673683E+03  0.00000000000E+00 0.  1.
          2   -1    0    0  502    0  0.00000000000E+00 -0.00000000000E+00 -0.75756390173E+03  0.75756390173E+03  0.00000000000E+00 0. -1.
          6    2    1    2  502    0  0.29811994203E+03  0.20006116141E+03 -0.47232773379E+03  0.61786016468E+03  0.17250428068E+03 0.  0.
         24    2    3    3    0    0  0.65180859461E+02  0.37026603258E+02 -0.17547570395E+03  0.20678340669E+03  0.79675220845E+02 0.  0.
         -6    2    1    2    0  501 -0.29811994203E+03 -0.20006116141E+03 -0.26379431110E+02  0.39856047388E+03  0.17103978723E+03 0.  0.
        -24    2    5    5    0    0 -0.19945033905E+03 -0.46694955989E+02 -0.24736611686E+02  0.21612782228E+03  0.64331010732E+02 0.  0.
          5    1    3    3  502    0  0.23293908257E+03  0.16303455815E+03 -0.29685202984E+03  0.41107675799E+03  0.47000000000E+01 0. -1.
        -11    1    4    4    0    0  0.40544081762E+02  0.57752491093E+02 -0.14985731285E+03  0.16563932808E+03  0.00000000000E+00 0.  1.
         12    1    4    4    0    0  0.24636777699E+02 -0.20725887835E+02 -0.25618391103E+02  0.41144078609E+02  0.00000000000E+00 0. -1.
         -5    1    5    5    0  501 -0.98669602977E+02 -0.15336620542E+03 -0.16428194241E+01  0.18243265161E+03  0.47000000000E+01 0.  1.
         11    1    6    6    0    0 -0.56705420991E+01 -0.44907448101E+00 -0.15702862145E+02  0.16701395005E+02  0.00000000000E+00 0. -1.
        -12    1    6    6    0    0 -0.19377979695E+03 -0.46245881508E+02 -0.90337495415E+01  0.19942642727E+03  0.00000000000E+00 0.  1.
</event>
<event>
12    1  0.1348628E-002  0.2032178E+03  0.7818608E-02  0.1147052E+00
         -1   -1    0    0    0  501 -0.00000000000E+00  0.00000000000E+00  0.33923339102E+02  0.33923339102E+02  0.00000000000E+00 0. -1.
          1   -1    0    0  502    0  0.00000000000E+00 -0.00000000000E+00 -0.12588659045E+04  0.12588659045E+04  0.00000000000E+00 0.  1.
          6    2    1    2  502    0 -0.10261365680E+03  0.34248114809E+02 -0.49246311620E+03  0.53239370152E+03  0.17094044773E+03 0.  0.
         24    2    3    3    0    0 -0.96233973233E+02  0.26367893199E+02 -0.50183772745E+03  0.51780700926E+03  0.79540874701E+02 0.  0.
         -6    2    1    2    0  501  0.10261365680E+03 -0.34248114809E+02 -0.73247944919E+03  0.76039554208E+03  0.17312637291E+03 0.  0.
        -24    2    5    5    0    0  0.55813529195E+02 -0.84171554922E+02 -0.38284185532E+03  0.40409350888E+03  0.80769282725E+02 0.  0.
          5    1    3    3  502    0 -0.63796835622E+01  0.78802216096E+01  0.93746112507E+01  0.14586692259E+02  0.47000000000E+01 0. -1.
        -11    1    4    4    0    0  0.44508929475E+01  0.13424398691E+02 -0.17492664681E+03  0.17549745495E+03  0.00000000000E+00 0.  1.
         12    1    4    4    0    0 -0.10068486618E+03  0.12943494508E+02 -0.32691108064E+03  0.34230955431E+03  0.00000000000E+00 0. -1.
         -5    1    5    5    0  501  0.46800127600E+02  0.49923440113E+02 -0.34963759387E+03  0.35630203320E+03  0.47000000000E+01 0.  1.
         11    1    6    6    0    0 -0.14572668654E+02 -0.29788567035E+02 -0.53435693232E+02  0.62889543716E+02  0.00000000000E+00 0. -1.
        -12    1    6    6    0    0  0.70386197849E+02 -0.54382987887E+02 -0.32940616209E+03  0.34120396516E+03  0.00000000000E+00 0.  1.
</event>
<event>
12    1  0.1348628E-002  0.1744404E+03  0.7818608E-02  0.1173295E+00
          1   -1    0    0  502    0  0.00000000000E+00  0.00000000000E+00  0.26908071459E+03  0.26908071459E+03  0.00000000000E+00 0. -1.
         -1   -1    0    0    0  501 -0.00000000000E+00 -0.00000000000E+00 -0.16135518577E+03  0.16135518577E+03  0.00000000000E+00 0.  1.
          6    2    1    2  502    0  0.22161379445E+02  0.20389625012E+02 -0.63749379855E+02  0.18615054970E+03  0.17228226889E+03 0.  0.
         24    2    3    3    0    0  0.11485032297E+02  0.53968733865E+02  0.15117919213E+02  0.99642273778E+02  0.81581254222E+02 0.  0.
         -6    2    1    2    0  501 -0.22161379445E+02 -0.20389625012E+02  0.17147490867E+03  0.24428535066E+03  0.17136167802E+03 0.  0.
        -24    2    5    5    0    0  0.15847969065E+02 -0.26580552753E+02  0.18411944673E+03  0.20348078592E+03  0.80912147839E+02 0.  0.
          5    1    3    3  502    0  0.10676347147E+02 -0.33579108853E+02 -0.78867299069E+02  0.86508275917E+02  0.47000000000E+01 0. -1.
        -11    1    4    4    0    0  0.29870371082E+02  0.45870332713E+02 -0.20743202885E+02  0.58537227110E+02  0.00000000000E+00 0.  1.
         12    1    4    4    0    0 -0.18385338785E+02  0.80984011525E+01  0.35861122099E+02  0.41105046669E+02  0.00000000000E+00 0. -1.
         -5    1    5    5    0  501 -0.38009348510E+02  0.61909277409E+01 -0.12644538057E+02  0.40804564734E+02  0.47000000000E+01 0.  1.
         11    1    6    6    0    0 -0.12712662741E+02 -0.46922410474E+02  0.79968167185E+02  0.93585427079E+02  0.00000000000E+00 0. -1.
        -12    1    6    6    0    0  0.28560631806E+02  0.20341857721E+02  0.10415127954E+03  0.10989535884E+03  0.00000000000E+00 0.  1.
</event>
<event>
12    1  0.1348628E-002  0.2582609E+03  0.7818608E-02  0.1108193E+00
          2   -1    0    0  502    0  0.00000000000E+00  0.00000000000E+00  0.12459676214E+04  0.12459676214E+04  0.00000000000E+00 0. -1.
         -2   -1    0    0    0  501 -0.00000000000E+00 -0.00000000000E+00 -0.57148594507E+02  0.57148594507E+02  0.00000000000E+00 0.  1.
          6    2    1    2  502    0  0.17348285023E+03 -0.82738434434E+02  0.75840769514E+03  0.80118700603E+03  0.17255850812E+03 0.  0.
         24    2    3    3    0    0  0.61339905252E+02 -0.17852814163E+02  0.17031886048E+03  0.19897711631E+03  0.80635424157E+02 0.  0.
         -6    2    1    2    0  501 -0.17348285023E+03  0.82738434434E+02  0.43041133178E+03  0.50192920990E+03  0.17244439502E+03 0.  0.
        -24    2    5    5    0    0 -0.11750008962E+03  0.10863207458E+03  0.38713107405E+03  0.42643205238E+03  0.79791153066E+02 0.  0.
          5    1    3    3  502    0  0.11214294498E+03 -0.64885620271E+02  0.58808883466E+03  0.60220988972E+03  0.47000000000E+01 0. -1.
        -13    1    4    4    0    0 -0.17983703355E+02 -0.15094470405E+02  0.37056808531E+02  0.43868709597E+02  0.00000000000E+00 0.  1.
         14    1    4    4    0    0  0.79323608607E+02 -0.27583437583E+01  0.13326205195E+03  0.15510840671E+03  0.00000000000E+00 0. -1.
         -5    1    5    5    0  501 -0.55982760609E+02 -0.25893640150E+02  0.43280257724E+02  0.75497157525E+02  0.47000000000E+01 0.  1.
         13    1    6    6    0    0 -0.64598949447E+01 -0.44567603774E+01  0.84024621756E+02  0.84390343151E+02  0.00000000000E+00 0. -1.
        -14    1    6    6    0    0 -0.11104019468E+03  0.11308883496E+03  0.30310645230E+03  0.34204170923E+03  0.00000000000E+00 0.  1.
</event>
<event>
12    1  0.1348628E-002  0.3445615E+03  0.7818608E-02  0.1064870E+00
          2   -1    0    0  502    0  0.00000000000E+00  0.00000000000E+00  0.43304333331E+03  0.43304333331E+03  0.00000000000E+00 0. -1.
         -2   -1    0    0    0  501 -0.00000000000E+00 -0.00000000000E+00 -0.27515442410E+03  0.27515442410E+03  0.00000000000E+00 0.  1.
          6    2    1    2  502    0  0.27950662192E+02 -0.29613799608E+03  0.57682516067E+02  0.34952255563E+03  0.17424061523E+03 0.  0.
         24    2    3    3    0    0  0.63037972126E+02 -0.23616181827E+03  0.89592123071E+02  0.27291593554E+03  0.81915621321E+02 0.  0.
         -6    2    1    2    0  501 -0.27950662192E+02  0.29613799608E+03  0.10020639315E+03  0.35867520178E+03  0.17357311689E+03 0.  0.
        -24    2    5    5    0    0 -0.23974752753E+02  0.26730206197E+03  0.13696261007E+03  0.31155377954E+03  0.79257932613E+02 0.  0.
          5    1    3    3  502    0 -0.35087309934E+02 -0.59976177808E+02 -0.31909607004E+02  0.76606620092E+02  0.47000000000E+01 0. -1.
        -13    1    4    4    0    0 -0.66991635241E+01 -0.12897543304E+03  0.55530530933E+02  0.14058158124E+03  0.00000000000E+00 0.  1.
         14    1    4    4    0    0  0.69737135650E+02 -0.10718638523E+03  0.34061592138E+02  0.13233435430E+03  0.00000000000E+00 0. -1.
         -5    1    5    5    0  501 -0.39759094399E+01  0.28835934105E+02 -0.36756216924E+02  0.47121422243E+02  0.47000000000E+01 0.  1.
         13    1    6    6    0    0 -0.13310903319E+02  0.17174357145E+03  0.43952027592E+02  0.17777743167E+03  0.00000000000E+00 0. -1.
        -14    1    6    6    0    0 -0.10663849434E+02  0.95558490524E+02  0.93010582481E+02  0.13377634787E+03  0.00000000000E+00 0.  1.
</event>
<event>
12    1  0.1348628E-002  0.2057536E+03  0.7818608E-02  0.1144973E+00
         -2   -1    0    0    0  501 -0.00000000000E+00  0.00000000000E+00  0.17406461491E+03  0.17406461491E+03  0.00000000000E+00 0. -1.
          2   -1    0    0  502    0  0.00000000000E+00 -0.00000000000E+00 -0.25816467247E+03  0.25816467247E+03  0.00000000000E+00 0.  1.
          6    2    1    2  502    0 -0.65061539704E+02  0.91517271297E+02 -0.93872643259E+02  0.22530992531E+03  0.17130112199E+03 0.  0.
         24    2    3    3    0    0 -0.34045557332E+01  0.22149475687E+02  0.14396429903E+02  0.82629313646E+02  0.78218642322E+02 0.  0.
         -6    2    1    2    0  501  0.65061539704E+02 -0.91517271297E+02  0.97725856991E+01  0.20691936207E+03  0.17352724303E+03 0.  0.
        -24    2    5    5    0    0  0.75313810197E+02 -0.10585967280E+02  0.43194505131E+02  0.11863516349E+03  0.80151756269E+02 0.  0.
          5    1    3    3  502    0 -0.61656983970E+02  0.69367795611E+02 -0.10826907316E+03  0.14268061166E+03  0.47000000000E+01 0. -1.
        -11    1    4    4    0    0 -0.14095918863E+02  0.44290642402E+02 -0.10486537049E+02  0.47647910681E+02  0.00000000000E+00 0.  1.
         12    1    4    4    0    0  0.10691363130E+02 -0.22141166715E+02  0.24882966952E+02  0.34981402965E+02  0.00000000000E+00 0. -1.
         -5    1    5    5    0  501 -0.10252270494E+02 -0.80931304017E+02 -0.33421919432E+02  0.88284198579E+02  0.47000000000E+01 0.  1.
         13    1    6    6    0    0 -0.15785640771E+02  0.68519439678E+01  0.26660360686E+01  0.17413883513E+02  0.00000000000E+00 0. -1.
        -14    1    6    6    0    0  0.91099450969E+02 -0.17437911248E+02  0.40528469063E+02  0.10122127998E+03  0.00000000000E+00 0.  1.
</event>
<event>
12    1  0.1348628E-002  0.2517398E+03  0.7818608E-02  0.1112210E+00
         -4   -1    0    0    0  501 -0.00000000000E+00  0.00000000000E+00  0.18614717944E+03  0.18614717944E+03  0.00000000000E+00 0.  1.
          4   -1    0    0  502    0  0.00000000000E+00 -0.00000000000E+00 -0.43917971027E+03  0.43917971027E+03  0.00000000000E+00 0. -1.
          6    2    1    2  502    0 -0.14479029149E+03 -0.11156823761E+03 -0.27470457769E+03  0.37250224193E+03  0.17286877997E+03 0.  0.
         24    2    3    3    0    0 -0.12734080215E+03 -0.12525892686E+03 -0.28810124849E+03  0.34616822516E+03  0.70175722887E+02 0.  0.
         -6    2    1    2    0  501  0.14479029149E+03  0.11156823761E+03  0.21672046864E+02  0.25282464778E+03  0.17331741042E+03 0.  0.
        -24    2    5    5    0    0  0.17530081771E+03  0.10497885139E+03  0.25002189229E+02  0.22108363222E+03  0.80634527596E+02 0.  0.
          5    1    3    3  502    0 -0.17449489345E+02  0.13690689243E+02  0.13396670806E+02  0.26334016766E+02  0.47000000000E+01 0. -1.
        -11    1    4    4    0    0 -0.69126742767E+01 -0.45335537087E+02 -0.89191474728E+02  0.10029065337E+03  0.00000000000E+00 0.  1.
         12    1    4    4    0    0 -0.12042812787E+03 -0.79923389770E+02 -0.19890977376E+03  0.24587757180E+03  0.00000000000E+00 0. -1.
         -5    1    5    5    0  501 -0.30510526214E+02  0.65893862232E+01 -0.33301423649E+01  0.31741015561E+02  0.47000000000E+01 0.  1.
         11    1    6    6    0    0 -0.51904630095E+01  0.10461403483E+02  0.12278178821E+02  0.16945074336E+02  0.00000000000E+00 0. -1.
        -12    1    6    6    0    0  0.18049128071E+03  0.94517447907E+02  0.12724010408E+02  0.20413855788E+03  0.00000000000E+00 0.  1.
</event>
<event>
12    1  0.1348628E-002  0.1766079E+03  0.7818608E-02  0.1171127E+00
         -2   -1    0    0    0  501 -0.00000000000E+00  0.00000000000E+00  0.31864621873E+02  0.31864621873E+02  0.00000000000E+00 0.  1.
          2   -1    0    0  502    0  0.00000000000E+00 -0.00000000000E+00 -0.12296315955E+04  0.12296315955E+04  0.00000000000E+00 0. -1.
          6    2    1    2  502    0  0.12785412489E+02 -0.37519472573E+02 -0.31406180236E+03  0.36031885808E+03  0.17211532817E+03 0.  0.
         24    2    3    3    0    0 -0.49496562947E+02  0.12185389922E+01 -0.11449124653E+03  0.14764498860E+03  0.78989888887E+02 0.  0.
         -6    2    1    2    0  501 -0.12785412489E+02  0.37519472573E+02 -0.88370517126E+03  0.90117735929E+03  0.17208900484E+03 0.  0.
        -24    2    5    5    0    0  0.24083195436E+02 -0.38204214882E+00 -0.21889675291E+03  0.23425296914E+03  0.79865630006E+02 0.  0.
          5    1    3    3  502    0  0.62281975436E+02 -0.38738011565E+02 -0.19957055582E+03  0.21267386947E+03  0.47000000000E+01 0. -1.
        -13    1    4    4    0    0 -0.66196001805E+02 -0.15456515057E+02 -0.71858953190E+02  0.98916751191E+02  0.00000000000E+00 0.  1.
         14    1    4    4    0    0  0.16699438857E+02  0.16675054049E+02 -0.42632293343E+02  0.48728237413E+02  0.00000000000E+00 0. -1.
         -5    1    5    5    0  501 -0.36868607925E+02  0.37901514721E+02 -0.66480841835E+03  0.66692439015E+03  0.47000000000E+01 0.  1.
         13    1    6    6    0    0 -0.27126801758E+02  0.11923607759E+02 -0.98007870150E+02  0.10238934714E+03  0.00000000000E+00 0. -1.
        -14    1    6    6    0    0  0.51209997194E+02 -0.12305649907E+02 -0.12088888276E+03  0.13186362200E+03  0.00000000000E+00 0.  1.
</event>
<event>
12    1  0.1348628E-002  0.1705414E+03  0.7818608E-02  0.1177284E+00
         -2   -1    0    0    0  501 -0.00000000000E+00  0.00000000000E+00  0.15258655418E+03  0.15258655418E+03  0.00000000000E+00 0. -1.
          2   -1    0    0  502    0  0.00000000000E+00 -0.00000000000E+00 -0.25667257073E+03  0.25667257073E+03  0.00000000000E+00 0.  1.
          6    2    1    2  502    0 -0.44341518770E+01  0.33053406280E+01 -0.15544264423E+03  0.22947244461E+03  0.16871455245E+03 0.  0.
         24    2    3    3    0    0  0.24399547065E+02  0.37872242320E+02 -0.30888822889E+02  0.96950758465E+02  0.80097974708E+02 0.  0.
         -6    2    1    2    0  501  0.44341518770E+01 -0.33053406280E+01  0.51356627683E+02  0.17978668030E+03  0.17220673688E+03 0.  0.
        -24    2    5    5    0    0  0.12705138366E+02  0.53383624750E+02  0.69790764926E+02  0.11942149638E+03  0.79871841078E+02 0.  0.
          5    1    3    3  502    0 -0.28833698942E+02 -0.34566901692E+02 -0.12455382134E+03  0.13252168614E+03  0.47000000000E+01 0. -1.
        -13    1    4    4    0    0  0.13371577952E+02 -0.18294447144E+02 -0.32581352639E+02  0.39686653085E+02  0.00000000000E+00 0.  1.
         14    1    4    4    0    0  0.11027969113E+02  0.56166689464E+02  0.16925297508E+01  0.57264105381E+02  0.00000000000E+00 0. -1.
         -5    1    5    5    0  501 -0.82709864889E+01 -0.56688965378E+02 -0.18434137243E+02  0.60365183914E+02  0.47000000000E+01 0.  1.
         13    1    6    6    0    0  0.97320237667E+01 -0.66558292995E+01  0.56682660193E+02  0.57895909327E+02  0.00000000000E+00 0. -1.
        -14    1    6    6    0    0  0.29731145992E+01  0.60039454050E+02  0.13108104733E+02  0.61525587057E+02  0.00000000000E+00 0.  1.
</event>
<event>
12    1  0.1348628E-002  0.2006211E+03  0.7818608E-02  0.1149216E+00
         -2   -1    0    0    0  501 -0.00000000000E+00  0.00000000000E+00  0.28049398191E+02  0.28049398191E+02  0.00000000000E+00 0.  1.
          2   -1    0    0  502    0  0.00000000000E+00 -0.00000000000E+00 -0.14353090575E+04  0.14353090575E+04  0.00000000000E+00 0. -1.
          6    2    1    2  502    0 -0.64129550816E+02 -0.81085864058E+02 -0.69689348852E+03  0.72553964282E+03  0.17337739855E+03 0.  0.
         24    2    3    3    0    0 -0.36132866674E+02 -0.12151437848E+03 -0.40123735895E+03  0.42578488297E+03  0.65038604824E+02 0.  0.
         -6    2    1    2    0  501  0.64129550816E+02  0.81085864058E+02 -0.71036617082E+03  0.73781881290E+03  0.17049629728E+03 0.  0.
        -24    2    5    5    0    0  0.27578961885E+02 -0.18502817952E+02 -0.41686277380E+03  0.42569674512E+03  0.79625330207E+02 0.  0.
          5    1    3    3  502    0 -0.27996684143E+02  0.40428514422E+02 -0.29565612957E+03  0.29975475985E+03  0.47000000000E+01 0. -1.
        -13    1    4    4    0    0 -0.53379993437E+02 -0.80986019585E+02 -0.30246311600E+03  0.31763516117E+03  0.00000000000E+00 0.  1.
         14    1    4    4    0    0  0.17247126764E+02 -0.40528358895E+02 -0.98774242952E+02  0.10814972181E+03  0.00000000000E+00 0. -1.
         -5    1    5    5    0  501  0.36550588932E+02  0.99588682009E+02 -0.29350339701E+03  0.31212206778E+03  0.47000000000E+01 0.  1.
         13    1    6    6    0    0  0.40273845860E+02  0.76120160719E+01 -0.10872763173E+03  0.11619648596E+03  0.00000000000E+00 0. -1.
        -14    1    6    6    0    0 -0.12694883975E+02 -0.26114834024E+02 -0.30813514208E+03  0.30950025916E+03  0.00000000000E+00 0.  1.
</event>
<event>
12    1  0.1348628E-002  0.2131969E+03  0.7818608E-02  0.1139059E+00
         -2   -1    0    0    0  501 -0.00000000000E+00  0.00000000000E+00  0.15731890260E+03  0.15731890260E+03  0.00000000000E+00 0. -1.
          2   -1    0    0  502    0  0.00000000000E+00 -0.00000000000E+00 -0.29289523490E+03  0.29289523490E+03  0.00000000000E+00 0.  1.
          6    2    1    2  502    0 -0.47320923588E+02 -0.11909229176E+03 -0.94008988047E+02  0.23301193727E+03  0.17039550848E+03 0.  0.
         24    2    3    3    0    0 -0.11939864260E+02  0.71272985645E+01 -0.28620611227E+02  0.86448182659E+02  0.80379040519E+02 0.  0.
         -6    2    1    2    0  501  0.47320923588E+02  0.11909229176E+03 -0.41567344255E+02  0.21720220024E+03  0.17037226275E+03 0.  0.
        -24    2    5    5    0    0 -0.40310834093E+01  0.86873716548E+02  0.31046170569E+02  0.12249276171E+03  0.80481797343E+02 0.  0.
          5    1    3    3  502    0 -0.35381059328E+02 -0.12621959033E+03 -0.65388376820E+02  0.14656375461E+03  0.47000000000E+01 0. -1.
        -13    1    4    4    0    0 -0.15724952092E+02 -0.35192606022E+02 -0.86722265973E+01  0.39509507098E+02  0.00000000000E+00 0.  1.
         14    1    4    4    0    0  0.37850878328E+01  0.42319904587E+02 -0.19948384630E+02  0.46938675562E+02  0.00000000000E+00 0. -1.
         -5    1    5    5    0  501  0.51352006997E+02  0.32218575216E+02 -0.72613514823E+02  0.94709438530E+02  0.47000000000E+01 0.  1.
         11    1    6    6    0    0 -0.23301592599E+02  0.75103663077E+02 -0.62608875216E+01  0.78884238842E+02  0.00000000000E+00 0. -1.
        -12    1    6    6    0    0  0.19270509189E+02  0.11770053471E+02  0.37307058090E+02  0.43608522865E+02  0.00000000000E+00 0.  1.
</event>
<event>
12    1  0.1348628E-002  0.1820904E+03  0.7818608E-02  0.1165795E+00
          2   -1    0    0  502    0  0.00000000000E+00  0.00000000000E+00  0.76402289504E+03  0.76402289504E+03  0.00000000000E+00 0.  1.
         -2   -1    0    0    0  501 -0.00000000000E+00 -0.00000000000E+00 -0.68499485910E+02  0.68499485910E+02  0.00000000000E+00 0. -1.
          6    2    1    2  502    0 -0.26425421814E+02  0.23651140660E+02  0.99063446098E+02  0.20965345785E+03  0.18133760410E+03 0.  0.
         24    2    3    3    0    0  0.19145904393E+01 -0.50299002702E+02  0.87372054646E+02  0.12946269384E+03  0.81197646728E+02 0.  0.
         -6    2    1    2    0  501  0.26425421814E+02 -0.23651140660E+02  0.59645996304E+03  0.62286892311E+03  0.17590772722E+03 0.  0.
        -24    2    5    5    0    0 -0.10590833632E+02 -0.25217466940E+02  0.13451926813E+03  0.15942102727E+03  0.81065060547E+02 0.  0.
          5    1    3    3  502    0 -0.28340012254E+02  0.73950143362E+02  0.11691391451E+02  0.80190764006E+02  0.47000000000E+01 0. -1.
        -13    1    4    4    0    0 -0.30144223250E+02 -0.45053680417E+02  0.26216527549E+02  0.60214737657E+02  0.00000000000E+00 0.  1.
         14    1    4    4    0    0  0.32058813689E+02 -0.52453222856E+01  0.61155527098E+02  0.69247956184E+02  0.00000000000E+00 0. -1.
         -5    1    5    5    0  501  0.37016255446E+02  0.15663262802E+01  0.46194069491E+03  0.46344789584E+03  0.47000000000E+01 0.  1.
         11    1    6    6    0    0 -0.44260329280E+02 -0.21064065311E+02  0.59518983345E+02  0.77104999668E+02  0.00000000000E+00 0. -1.
        -12    1    6    6    0    0  0.33669495648E+02 -0.41534016294E+01  0.75000284782E+02  0.82316027599E+02  0.00000000000E+00 0.  1.
</event>
<event>
12    1  0.1348628E-002  0.1843921E+03  0.7818608E-02  0.1163619E+00
         -2   -1    0    0    0  501 -0.00000000000E+00  0.00000000000E+00  0.10883772569E+03  0.10883772569E+03  0.00000000000E+00 0. -1.
          2   -1    0    0  502    0  0.00000000000E+00 -0.00000000000E+00 -0.62053229771E+03  0.62053229771E+03  0.00000000000E+00 0.  1.
          6    2    1    2  502    0  0.62791958955E+02  0.25060387886E+02 -0.51235993087E+03  0.54430335151E+03  0.17082911508E+03 0.  0.
         24    2    3    3    0    0 -0.11769568945E+02  0.47886604055E+01 -0.39845938384E+03  0.40658701628E+03  0.79885337902E+02 0.  0.
         -6    2    1    2    0  501 -0.62791958955E+02 -0.25060387886E+02  0.66535884340E+00  0.18506667189E+03  0.17227413385E+03 0.  0.
        -24    2    5    5    0    0 -0.60999143329E+02 -0.36791847809E+02  0.64291559789E+02  0.12017272158E+03  0.72343229127E+02 0.  0.
          5    1    3    3  502    0  0.74561527900E+02  0.20271727480E+02 -0.11390054702E+03  0.13771633523E+03  0.47000000000E+01 0. -1.
        -13    1    4    4    0    0  0.20410699585E+02  0.31628048013E+02 -0.22575709974E+03  0.22887376031E+03  0.00000000000E+00 0.  1.
         14    1    4    4    0    0 -0.32180268531E+02 -0.26839387608E+02 -0.17270228411E+03  0.17771325596E+03  0.00000000000E+00 0. -1.
         -5    1    5    5    0  501 -0.17928156265E+01  0.11731459924E+02 -0.63626200946E+02  0.64893950308E+02  0.47000000000E+01 0.  1.
         11    1    6    6    0    0  0.49868876962E+01  0.48947822429E+01  0.36744973163E+02  0.37403489073E+02  0.00000000000E+00 0. -1.
        -12    1    6    6    0    0 -0.65986031025E+02 -0.41686630052E+02  0.27546586626E+02  0.82769232510E+02  0.00000000000E+00 0.  1.
</event>
<event>
12    1  0.1348628E-002  0.2003373E+03  0.7818608E-02  0.1149455E+00
          2   -1    0    0  502    0  0.00000000000E+00  0.00000000000E+00  0.50965934671E+03  0.50965934671E+03  0.00000000000E+00 0.  1.
         -2   -1    0    0    0  501 -0.00000000000E+00 -0.00000000000E+00 -0.88890189437E+02  0.88890189437E+02  0.00000000000E+00 0. -1.
          6    2    1    2  502    0 -0.89844392430E+01  0.10281143175E+03  0.10941680409E+03  0.22838166144E+03  0.17185818461E+03 0.  0.
         24    2    3    3    0    0 -0.25151268402E+02  0.11562661576E+03  0.13457454411E+03  0.19550922330E+03  0.78175750077E+02 0.  0.
         -6    2    1    2    0  501  0.89844392430E+01 -0.10281143175E+03  0.31135235318E+03  0.37016787471E+03  0.17156065106E+03 0.  0.
        -24    2    5    5    0    0 -0.62004964803E+01 -0.99935827637E+02  0.11118859045E+03  0.16935335013E+03  0.79322372327E+02 0.  0.
          5    1    3    3  502    0  0.16166829159E+02 -0.12815184012E+02 -0.25157740015E+02  0.32872438135E+02  0.47000000000E+01 0. -1.
        -13    1    4    4    0    0 -0.22627166524E+02  0.11658934431E+02  0.66517869670E+02  0.71221811283E+02  0.00000000000E+00 0.  1.
         14    1    4    4    0    0 -0.25241018786E+01  0.10396768133E+03  0.68056674439E+02  0.12428741202E+03  0.00000000000E+00 0. -1.
         -5    1    5    5    0  501  0.15184935723E+02 -0.28756041083E+01  0.20016376274E+03  0.20081452459E+03  0.47000000000E+01 0.  1.
         13    1    6    6    0    0  0.27857865432E+02 -0.74658886558E+02  0.47299124261E+02  0.92667238895E+02  0.00000000000E+00 0. -1.
        -14    1    6    6    0    0 -0.34058361913E+02 -0.25276941080E+02  0.63889466186E+02  0.76686111233E+02  0.00000000000E+00 0.  1.
</event>
<event>
12    1  0.1348628E-002  0.2986155E+03  0.7818608E-02  0.1085935E+00
         -2   -1    0    0    0  501 -0.00000000000E+00  0.00000000000E+00  0.73445134127E+03  0.73445134127E+03  0.00000000000E+00 0.  1.
          2   -1    0    0  502    0  0.00000000000E+00 -0.00000000000E+00 -0.15491351644E+03  0.15491351644E+03  0.00000000000E+00 0. -1.
          6    2    1    2  502    0  0.21914675033E+03 -0.10812016978E+03  0.49667619045E+03  0.57961007420E+03  0.17188755237E+03 0.  0.
         24    2    3    3    0    0  0.21632139560E+03 -0.52754110153E+02  0.43658375293E+03  0.49771639779E+03  0.86823366535E+02 0.  0.
         -6    2    1    2    0  501 -0.21914675033E+03  0.10812016978E+03  0.82861634382E+02  0.30975478350E+03  0.17136716767E+03 0.  0.
        -24    2    5    5    0    0 -0.12394537800E+03  0.38464026972E+02 -0.18805760284E+02  0.15395481989E+03  0.80662828163E+02 0.  0.
          5    1    3    3  502    0  0.28253547321E+01 -0.55366059632E+02  0.60092437517E+02  0.81893676406E+02  0.47000000000E+01 0. -1.
        -11    1    4    4    0    0  0.85282806753E+00 -0.20682773068E+02  0.47164367075E+02  0.51507105715E+02  0.00000000000E+00 0.  1.
         12    1    4    4    0    0  0.21546856753E+03 -0.32071337085E+02  0.38941938586E+03  0.44620929208E+03  0.00000000000E+00 0. -1.
         -5    1    5    5    0  501 -0.95201372329E+02  0.69656142812E+02  0.10166739467E+03  0.15579996362E+03  0.47000000000E+01 0.  1.
         13    1    6    6    0    0 -0.13343799858E+03  0.26240100960E+02 -0.22988093324E+02  0.13792278564E+03  0.00000000000E+00 0. -1.
        -14    1    6    6    0    0  0.94926205758E+01  0.12223926012E+02  0.41823330399E+01  0.16032034250E+02  0.00000000000E+00 0.  1.
</event>
<event>
12    1  0.1348628E-002  0.1913204E+03  0.7818608E-02  0.1157276E+00
         -2   -1    0    0    0  501 -0.00000000000E+00  0.00000000000E+00  0.36112477076E+03  0.36112477076E+03  0.00000000000E+00 0.  1.
          2   -1    0    0  502    0  0.00000000000E+00 -0.00000000000E+00 -0.19922121415E+03  0.19922121415E+03  0.00000000000E+00 0. -1.
          6    2    1    2  502    0  0.78240438689E+02 -0.31482327576E+02 -0.11534010282E+03  0.22368832633E+03  0.17210585354E+03 0.  0.
         24    2    3    3    0    0  0.30909543862E+02 -0.84594397430E+02 -0.78192285600E+02  0.14329457102E+03  0.79420958050E+02 0.  0.
         -6    2    1    2    0  501 -0.78240438689E+02  0.31482327576E+02  0.27724365943E+03  0.33665765858E+03  0.17135235391E+03 0.  0.
        -24    2    5    5    0    0  0.13787066839E+02  0.28952367033E+02  0.19408119023E+03  0.21250634462E+03  0.80393503066E+02 0.  0.
          5    1    3    3  502    0  0.47330894827E+02  0.53112069854E+02 -0.37147817220E+02  0.80393755314E+02  0.47000000000E+01 0. -1.
        -13    1    4    4    0    0  0.10183053030E+02 -0.12090149657E+02  0.16096374370E+02  0.22560131994E+02  0.00000000000E+00 0.  1.
         14    1    4    4    0    0  0.20726490831E+02 -0.72504247773E+02 -0.94288659970E+02  0.12073443902E+03  0.00000000000E+00 0. -1.
         -5    1    5    5    0  501 -0.92027505527E+02  0.25299605430E+01  0.83162469202E+02  0.12415131396E+03  0.47000000000E+01 0.  1.
         11    1    6    6    0    0  0.12890676303E+02  0.37985775862E+02  0.19842766433E+03  0.20244166240E+03  0.00000000000E+00 0. -1.
        -12    1    6    6    0    0  0.89639053548E+00 -0.90334088284E+01 -0.43464741046E+01  0.10064682220E+02  0.00000000000E+00 0.  1.
</event>
<event>
12    1  0.1348628E-002  0.1885940E+03  0.7818608E-02  0.1159736E+00
         -2   -1    0    0    0  501 -0.00000000000E+00  0.00000000000E+00  0.40253999257E+03  0.40253999257E+03  0.00000000000E+00 0. -1.
          2   -1    0    0  502    0  0.00000000000E+00 -0.00000000000E+00 -0.89169883838E+02  0.89169883838E+02  0.00000000000E+00 0.  1.
          6    2    1    2  502    0 -0.26761967968E+02  0.65771312626E+02  0.13222032472E+03  0.22926756187E+03  0.17331858574E+03 0.  0.
         24    2    3    3    0    0 -0.76996626223E+02  0.21276607228E+02  0.51011299525E+02  0.12381475028E+03  0.79666587995E+02 0.  0.
         -6    2    1    2    0  501  0.26761967968E+02 -0.65771312626E+02  0.18114978401E+03  0.26244231454E+03  0.17612113933E+03 0.  0.
        -24    2    5    5    0    0  0.22696022625E+02 -0.36621457905E+00  0.17790181510E+03  0.19666239310E+03  0.80695709230E+02 0.  0.
          5    1    3    3  502    0  0.50234658255E+02  0.44494705398E+02  0.81209025197E+02  0.10545281159E+03  0.47000000000E+01 0. -1.
        -11    1    4    4    0    0 -0.44033133010E+00  0.11163810492E+02 -0.17380423143E+02  0.20661647200E+02  0.00000000000E+00 0.  1.
         12    1    4    4    0    0 -0.76556294893E+02  0.10112796736E+02  0.68391722668E+02  0.10315310308E+03  0.00000000000E+00 0. -1.
         -5    1    5    5    0  501  0.40659453431E+01 -0.65405098047E+02  0.32479689059E+01  0.65779921435E+02  0.47000000000E+01 0.  1.
         11    1    6    6    0    0  0.40478431938E+02 -0.22171502174E+02  0.61404145451E+02  0.76815024828E+02  0.00000000000E+00 0. -1.
        -12    1    6    6    0    0 -0.17782409313E+02  0.21805287595E+02  0.11649766965E+03  0.11984736827E+03  0.00000000000E+00 0.  1.
</event>
<event>
12    1  0.1348628E-002  0.1712863E+03  0.7818608E-02  0.1176513E+00
          2   -1    0    0  502    0  0.00000000000E+00  0.00000000000E+00  0.29515214641E+04  0.29515214641E+04  0.00000000000E+00 0.  1.
         -2   -1    0    0    0  501 -0.00000000000E+00 -0.00000000000E+00 -0.15488031853E+02  0.15488031853E+02  0.00000000000E+00 0. -1.
          6    2    1    2  502    0  0.70079284607E+01 -0.29412592897E+02  0.23695496045E+04  0.23759172393E+04  0.17118174067E+03 0.  0.
         24    2    3    3    0    0 -0.33800132527E+02 -0.22346546774E+02  0.68010033837E+03  0.68595388481E+03  0.79714771019E+02 0.  0.
         -6    2    1    2    0  501 -0.70079284607E+01  0.29412592897E+02  0.56648382773E+03  0.59109225659E+03  0.16604793597E+03 0.  0.
        -24    2    5    5    0    0 -0.64843880484E+02  0.33818021742E+02  0.32326427878E+03  0.34100778258E+03  0.80237936259E+02 0.  0.
          5    1    3    3  502    0  0.40808060988E+02 -0.70660461229E+01  0.16894492661E+04  0.16899633545E+04  0.47000000000E+01 0. -1.
        -11    1    4    4    0    0 -0.34030282912E+02 -0.45346910886E+02  0.59832667255E+03  0.60100682988E+03  0.00000000000E+00 0.  1.
         12    1    4    4    0    0  0.23015038416E+00  0.23000364112E+02  0.81773665824E+02  0.84947054927E+02  0.00000000000E+00 0. -1.
         -5    1    5    5    0  501  0.57835952023E+02 -0.44054288453E+01  0.24321954896E+03  0.25008447402E+03  0.47000000000E+01 0.  1.
         13    1    6    6    0    0 -0.91637901900E+00  0.40441225957E+02  0.83551499702E+02  0.92828797309E+02  0.00000000000E+00 0. -1.
        -14    1    6    6    0    0 -0.63927501465E+02 -0.66232042145E+01  0.23971277907E+03  0.24817898527E+03  0.00000000000E+00 0.  1.
</event>
<event>
12    1  0.1348628E-002  0.2402699E+03  0.7818608E-02  0.1119613E+00
          1   -1    0    0  502    0  0.00000000000E+00  0.00000000000E+00  0.29762560993E+03  0.29762560993E+03  0.00000000000E+00 0. -1.
         -1   -1    0    0    0  501 -0.00000000000E+00 -0.00000000000E+00 -0.42686144597E+03  0.42686144597E+03  0.00000000000E+00 0.  1.
          6    2    1    2  502    0 -0.10099976156E+02 -0.16454521961E+03 -0.33195228689E+03  0.40871043963E+03  0.17226364643E+03 0.  0.
         24    2    3    3    0    0 -0.83144991555E+01 -0.17568273738E+03 -0.22928349136E+03  0.30531699784E+03  0.98559599494E+02 0.  0.
         -6    2    1    2    0  501  0.10099976156E+02  0.16454521961E+03  0.20271645085E+03  0.31577661627E+03  0.17732392146E+03 0.  0.
        -24    2    5    5    0    0  0.63299700710E+02  0.12859199559E+03  0.18620623908E+03  0.24931217388E+03  0.83312922943E+02 0.  0.
          5    1    3    3  502    0 -0.17854770001E+01  0.11137517771E+02 -0.10266879552E+03  0.10339344179E+03  0.47000000000E+01 0. -1.
        -11    1    4    4    0    0  0.13620955506E+02 -0.14672018669E+03 -0.22468902775E+03  0.26869593001E+03  0.00000000000E+00 0.  1.
         12    1    4    4    0    0 -0.21935454662E+02 -0.28962550691E+02 -0.45944636128E+01  0.36621067839E+02  0.00000000000E+00 0. -1.
         -5    1    5    5    0  501 -0.53199724555E+02  0.35953224017E+02  0.16510211763E+02  0.66464442391E+02  0.47000000000E+01 0.  1.
         13    1    6    6    0    0  0.58077562314E+02  0.39162671132E+02  0.11595123739E+03  0.13546736694E+03  0.00000000000E+00 0. -1.
        -14    1    6    6    0    0  0.52221383964E+01  0.89429324457E+02  0.70255001694E+02  0.11384480693E+03  0.00000000000E+00 0.  1.
</event>
<event>
12    1  0.1348628E-002  0.2193361E+03  0.7818608E-02  0.1134379E+00
          1   -1    0    0  502    0  0.00000000000E+00  0.00000000000E+00  0.73303551944E+02  0.73303551944E+02  0.00000000000E+00 0. -1.
         -1   -1    0    0    0  501 -0.00000000000E+00 -0.00000000000E+00 -0.78595954043E+03  0.78595954043E+03  0.00000000000E+00 0.  1.
          6    2    1    2  502    0  0.77631899954E+02 -0.11055253147E+03 -0.52973864524E+03  0.57304445546E+03  0.17177992191E+03 0.  0.
         24    2    3    3    0    0  0.84222280726E+02 -0.13503868163E+03 -0.36266860255E+03  0.40399566419E+03  0.79719152626E+02 0.  0.
         -6    2    1    2    0  501 -0.77631899954E+02  0.11055253147E+03 -0.18291734324E+03  0.28621863691E+03  0.17382111365E+03 0.  0.
        -24    2    5    5    0    0 -0.10516622871E+03  0.61342396193E+02 -0.73829963513E+02  0.16332875494E+03  0.80016207407E+02 0.  0.
          5    1    3    3  502    0 -0.65903807724E+01  0.24486150163E+02 -0.16707004269E+03  0.16904879128E+03  0.47000000000E+01 0. -1.
        -11    1    4    4    0    0 -0.43611201858E+01 -0.36176445604E+02 -0.14089320533E+03  0.14552886276E+03  0.00000000000E+00 0.  1.
         12    1    4    4    0    0  0.88583400912E+02 -0.98862236025E+02 -0.22177539722E+03  0.25846680143E+03  0.00000000000E+00 0. -1.
         -5    1    5    5    0  501  0.27534328753E+02  0.49210135274E+02 -0.10908737973E+03  0.12288988196E+03  0.47000000000E+01 0.  1.
         13    1    6    6    0    0 -0.46248487331E+02  0.70341932215E+02 -0.30089492399E+02  0.89399594859E+02  0.00000000000E+00 0. -1.
        -14    1    6    6    0    0 -0.58917741375E+02 -0.89995360221E+01 -0.43740471115E+02  0.73929160084E+02  0.00000000000E+00 0.  1.
</event>
<event>
12    1  0.1348628E-002  0.1835751E+03  0.7818608E-02  0.1164387E+00
         -1   -1    0    0    0  501 -0.00000000000E+00  0.00000000000E+00  0.29985398253E+02  0.29985398253E+02  0.00000000000E+00 0. -1.
          1   -1    0    0  502    0  0.00000000000E+00 -0.00000000000E+00 -0.12067780530E+04  0.12067780530E+04  0.00000000000E+00 0.  1.
          6    2    1    2  502    0  0.13602865788E+02  0.62509450835E+02 -0.75104742724E+03  0.77320270897E+03  0.17227223164E+03 0.  0.
         24    2    3    3    0    0 -0.10874477921E+02  0.30912531106E+02 -0.71181316779E+03  0.71699841371E+03  0.79592088615E+02 0.  0.
         -6    2    1    2    0  501 -0.13602865788E+02 -0.62509450835E+02 -0.42574522754E+03  0.46356074231E+03  0.17186359021E+03 0.  0.
        -24    2    5    5    0    0  0.41921998591E+02 -0.16588072784E+02 -0.85600031602E+02  0.11583581102E+03  0.63702053179E+02 0.  0.
          5    1    3    3  502    0  0.24477343709E+02  0.31596919728E+02 -0.39234259444E+02  0.56204295258E+02  0.47000000000E+01 0. -1.
        -13    1    4    4    0    0  0.25206162465E+02 -0.79260763144E+01 -0.38575862162E+03  0.38666249814E+03  0.00000000000E+00 0.  1.
         14    1    4    4    0    0 -0.36080640386E+02  0.38838607421E+02 -0.32605454617E+03  0.33033591557E+03  0.00000000000E+00 0. -1.
         -5    1    5    5    0  501 -0.55524864378E+02 -0.45921378051E+02 -0.34014519594E+03  0.34772493130E+03  0.47000000000E+01 0.  1.
         11    1    6    6    0    0  0.34815513507E+02 -0.40306792514E+02 -0.57192610415E+02  0.78152109310E+02  0.00000000000E+00 0. -1.
        -12    1    6    6    0    0  0.71064850835E+01  0.23718719730E+02 -0.28407421188E+02  0.37683701708E+02  0.00000000000E+00 0.  1.
</event>
<event>
12    1  0.1348628E-002  0.2520496E+03  0.7818608E-02  0.1112016E+00
         -1   -1    0    0    0  501 -0.00000000000E+00  0.00000000000E+00  0.49874306797E+02  0.49874306797E+02  0.00000000000E+00 0.  1.
          1   -1    0    0  502    0  0.00000000000E+00 -0.00000000000E+00 -0.17372326539E+04  0.17372326539E+04  0.00000000000E+00 0. -1.
          6    2    1    2  502    0 -0.18340548969E+03  0.79470273376E+01 -0.13032175390E+04  0.13272152421E+04  0.17153313385E+03 0.  0.
         24    2    3    3    0    0 -0.15637866853E+03 -0.28302230868E+02 -0.67553816942E+03  0.69789184449E+03  0.73796368591E+02 0.  0.
         -6    2    1    2    0  501  0.18340548969E+03 -0.79470273376E+01 -0.38414080810E+03  0.45989171860E+03  0.17388359179E+03 0.  0.
        -24    2    5    5    0    0  0.10450369253E+03 -0.49468796519E+02 -0.28147934917E+03  0.32383652369E+03  0.11077583891E+03 0.  0.
          5    1    3    3  502    0 -0.27026821162E+02  0.36249258205E+02 -0.62767936958E+03  0.62932339761E+03  0.47000000000E+01 0. -1.
        -13    1    4    4    0    0 -0.65696677952E+02  0.10377603569E+02 -0.39440265448E+03  0.39997150149E+03  0.00000000000E+00 0.  1.
         14    1    4    4    0    0 -0.90681990575E+02 -0.38679834437E+02 -0.28113551494E+03  0.29792034299E+03  0.00000000000E+00 0. -1.
         -5    1    5    5    0  501  0.78901797158E+02  0.41521769181E+02 -0.10266145893E+03  0.13605519490E+03  0.47000000000E+01 0.  1.
         13    1    6    6    0    0  0.29331127800E+02  0.34993959025E+02 -0.62678320288E+02  0.77546528358E+02  0.00000000000E+00 0. -1.
        -14    1    6    6    0    0  0.75172564731E+02 -0.84462755544E+02 -0.21880102888E+03  0.24628999533E+03  0.00000000000E+00 0.  1.
</event>
<event>
12    1  0.1348628E-002  0.1742517E+03  0.7818608E-02  0.1173485E+00
         -2   -1    0    0    0  501 -0.00000000000E+00  0.00000000000E+00  0.25590680765E+03  0.25590680765E+03  0.00000000000E+00 0.  1.
          2   -1    0    0  502    0  0.00000000000E+00 -0.00000000000E+00 -0.11876957567E+03  0.11876957567E+03  0.00000000000E+00 0. -1.
          6    2    1    2  502    0  0.18485104198E+02  0.25534270222E+02  0.62605724307E+02  0.18503184456E+03  0.17124137570E+03 0.  0.
         24    2    3    3    0    0  0.75277140478E+02  0.17329513863E+02  0.55616150567E+02  0.12703531403E+03  0.84129987984E+02 0.  0.
         -6    2    1    2    0  501 -0.18485104198E+02 -0.25534270222E+02  0.74531507669E+02  0.18964453877E+03  0.17151212032E+03 0.  0.
        -24    2    5    5    0    0 -0.58369468442E+02  0.29893030299E+02  0.58203373085E+02  0.11927660478E+03  0.80862152481E+02 0.  0.
          5    1    3    3  502    0 -0.56792036280E+02  0.82047563596E+01  0.69895737398E+01  0.57996530524E+02  0.47000000000E+01 0. -1.
        -13    1    4    4    0    0  0.47878000087E+02  0.30637856698E+02  0.72564894001E+02  0.92177247717E+02  0.00000000000E+00 0.  1.
         14    1    4    4    0    0  0.27399140391E+02 -0.13308342836E+02 -0.16948743434E+02  0.34858066315E+02  0.00000000000E+00 0. -1.
         -5    1    5    5    0  501  0.39884364244E+02 -0.55427300521E+02  0.16328134584E+02  0.70367933984E+02  0.47000000000E+01 0.  1.
         13    1    6    6    0    0  0.85762727925E+01  0.13850824205E+02 -0.12545981973E+02  0.20562087681E+02  0.00000000000E+00 0. -1.
        -14    1    6    6    0    0 -0.66945741234E+02  0.16042206094E+02  0.70749355058E+02  0.98714517103E+02  0.00000000000E+00 0.  1.
</event>
<event>
12    1  0.1348628E-002  0.1762858E+03  0.7818608E-02  0.1171447E+00
          1   -1    0    0  502    0  0.00000000000E+00  0.00000000000E+00  0.18031289848E+03  0.18031289848E+03  0.00000000000E+00 0. -1.
         -1   -1    0    0    0  501 -0.00000000000E+00 -0.00000000000E+00 -0.21558875245E+03  0.21558875245E+03  0.00000000000E+00 0.  1.
          6    2    1    2  502    0 -0.32780417834E+02  0.16924878120E+02  0.71037295510E+02  0.18978315488E+03  0.17207655630E+03 0.  0.
         24    2    3    3    0    0 -0.85277939172E+02  0.29816897013E+01  0.25358543013E+02  0.11865622130E+03  0.78453972286E+02 0.  0.
         -6    2    1    2    0  501  0.32780417834E+02 -0.16924878120E+02 -0.10631314947E+03  0.20611849605E+03  0.17268856758E+03 0.  0.
        -24    2    5    5    0    0  0.33793362593E+02  0.27299402828E+02 -0.12758556687E+03  0.15680907683E+03  0.80148368380E+02 0.  0.
          5    1    3    3  502    0  0.52497521338E+02  0.13943188418E+02  0.45678752497E+02  0.71126933573E+02  0.47000000000E+01 0. -1.
        -11    1    4    4    0    0 -0.71911896816E+02 -0.25867245565E+02  0.36856855469E+02  0.84846114182E+02  0.00000000000E+00 0.  1.
         12    1    4    4    0    0 -0.13366042356E+02  0.28848935266E+02 -0.11498312455E+02  0.33810107122E+02  0.00000000000E+00 0. -1.
         -5    1    5    5    0  501 -0.10129447583E+01 -0.44224280948E+02  0.21272417391E+02  0.49309419223E+02  0.47000000000E+01 0.  1.
         11    1    6    6    0    0  0.41911787329E+02  0.15662092627E+02 -0.21252565991E+02  0.49533530298E+02  0.00000000000E+00 0. -1.
        -12    1    6    6    0    0 -0.81184247364E+01  0.11637310201E+02 -0.10633300087E+03  0.10727554653E+03  0.00000000000E+00 0.  1.
</event>
<event>
12    1  0.1348628E-002  0.3156450E+03  0.7818608E-02  0.1077671E+00
         -2   -1    0    0    0  501 -0.00000000000E+00  0.00000000000E+00  0.60807063379E+03  0.60807063379E+03  0.00000000000E+00 0. -1.
          2   -1    0    0  502    0  0.00000000000E+00 -0.00000000000E+00 -0.24086602351E+03  0.24086602351E+03  0.00000000000E+00 0.  1.
          6    2    1    2  502    0 -0.24564533786E+03  0.10268742981E+03  0.42407049098E+03  0.52932881455E+03  0.17165917493E+03 0.  0.
         24    2    3    3    0    0 -0.33303426460E+02  0.34630082336E+02  0.12213436162E+03  0.15395112995E+03  0.80472276642E+02 0.  0.
         -6    2    1    2    0  501  0.24564533786E+03 -0.10268742981E+03 -0.56865880704E+02  0.31960784275E+03  0.16741894907E+03 0.  0.
        -24    2    5    5    0    0  0.13647091974E+03 -0.26234415296E+02  0.26863899686E+02  0.16213758167E+03  0.79084573738E+02 0.  0.
          5    1    3    3  502    0 -0.21234191140E+03  0.68057347477E+02  0.30193612937E+03  0.37537768460E+03  0.47000000000E+01 0. -1.
        -13    1    4    4    0    0  0.27308362758E+01  0.27867884305E+02  0.11265415227E+03  0.11608201611E+03  0.00000000000E+00 0.  1.
         14    1    4    4    0    0 -0.36034262736E+02  0.67621980314E+01  0.94802093501E+01  0.37869113833E+02  0.00000000000E+00 0. -1.
         -5    1    5    5    0  501  0.10917441812E+03 -0.76453014517E+02 -0.83729780390E+02  0.15747026108E+03  0.47000000000E+01 0.  1.
         11    1    6    6    0    0  0.27293133421E+02 -0.22960566141E+02  0.38274014358E+02  0.52316373197E+02  0.00000000000E+00 0. -1.
        -12    1    6    6    0    0  0.10917778632E+03 -0.32738491551E+01 -0.11410114672E+02  0.10982120848E+03  0.00000000000E+00 0.  1.
</event>
<event>
12    1  0.1348628E-002  0.1745068E+03  0.7818608E-02  0.1173228E+00
         -2   -1    0    0    0  501 -0.00000000000E+00  0.00000000000E+00  0.24092344246E+02  0.24092344246E+02  0.00000000000E+00 0.  1.
          2   -1    0    0  502    0  0.00000000000E+00 -0.00000000000E+00 -0.12641663948E+04  0.12641663948E+04  0.00000000000E+00 0. -1.
          6    2    1    2  502    0  0.33386850541E+02 -0.25073744521E+02 -0.62286086888E+03  0.64733171256E+03  0.17128721390E+03 0.  0.
         24    2    3    3    0    0  0.81677568048E+02  0.95468154353E+01 -0.45298713375E+03  0.46730462444E+03  0.80086839560E+02 0.  0.
         -6    2    1    2    0  501 -0.33386850541E+02  0.25073744521E+02 -0.61721318168E+03  0.64092702650E+03  0.16760658460E+03 0.  0.
        -24    2    5    5    0    0  0.39638446003E+02  0.39236739071E+02 -0.31269086385E+03  0.32741591599E+03  0.79466204256E+02 0.  0.
          5    1    3    3  502    0 -0.48290717507E+02 -0.34620559957E+02 -0.16987373513E+03  0.18002708812E+03  0.47000000000E+01 0. -1.
        -13    1    4    4    0    0 -0.44009963580E+00 -0.45420623381E+01  0.18317988188E+01  0.49172659970E+01  0.00000000000E+00 0.  1.
         14    1    4    4    0    0  0.82117667684E+02  0.14088877773E+02 -0.45481893257E+03  0.46238735844E+03  0.00000000000E+00 0. -1.
         -5    1    5    5    0  501 -0.73025296544E+02 -0.14162994550E+02 -0.30452231784E+03  0.31351111051E+03  0.47000000000E+01 0.  1.
         13    1    6    6    0    0 -0.11589304939E+02  0.44002556345E+02 -0.13821918989E+03  0.14551660183E+03  0.00000000000E+00 0. -1.
        -14    1    6    6    0    0  0.51227750942E+02 -0.47658172738E+01 -0.17447167395E+03  0.18189931416E+03  0.00000000000E+00 0.  1.
</event>
<event>
12    1  0.1348628E-002  0.1854911E+03  0.7818608E-02  0.1162592E+00
         -1   -1    0    0    0  501 -0.00000000000E+00  0.00000000000E+00  0.75709947253E+03  0.75709947253E+03  0.00000000000E+00 0.  1.
          1   -1    0    0  502    0  0.00000000000E+00 -0.00000000000E+00 -0.47687893186E+02  0.47687893186E+02  0.00000000000E+00 0. -1.
          6    2    1    2  502    0 -0.45887875304E+02 -0.20372345562E+01  0.42646280522E+03  0.46212639076E+03  0.17198961996E+03 0.  0.
         24    2    3    3    0    0  0.88790067979E+01  0.43784163756E+01  0.38404215783E+03  0.39239710511E+03  0.79931857344E+02 0.  0.
         -6    2    1    2    0  501  0.45887875304E+02  0.20372345562E+01  0.28294877412E+03  0.34266097495E+03  0.18774101192E+03 0.  0.
        -24    2    5    5    0    0 -0.48070328562E+02 -0.18075878120E+02  0.16430843682E+03  0.18991837772E+03  0.80213676685E+02 0.  0.
          5    1    3    3  502    0 -0.54766882102E+02 -0.64156509318E+01  0.42420647398E+02  0.69729285653E+02  0.47000000000E+01 0. -1.
        -11    1    4    4    0    0 -0.30898883197E+02  0.47017781053E+01  0.82136045896E+02  0.87881612045E+02  0.00000000000E+00 0.  1.
         12    1    4    4    0    0  0.39777889995E+02 -0.32336172974E+00  0.30190611193E+03  0.30451549306E+03  0.00000000000E+00 0. -1.
         -5    1    5    5    0  501  0.93958203867E+02  0.20113112676E+02  0.11864033730E+03  0.15274259723E+03  0.47000000000E+01 0.  1.
         13    1    6    6    0    0 -0.64644236196E+02  0.62782244597E+01  0.10082922527E+03  0.11993675852E+03  0.00000000000E+00 0. -1.
        -14    1    6    6    0    0  0.16573907633E+02 -0.24354102579E+02  0.63479211557E+02  0.69981619205E+02  0.00000000000E+00 0.  1.
</event>
<event>
12    1  0.1348628E-002  0.2645437E+03  0.7818608E-02  0.1104444E+00
          1   -1    0    0  502    0  0.00000000000E+00  0.00000000000E+00  0.18988079173E+03  0.18988079173E+03  0.00000000000E+00 0.  1.
         -1   -1    0    0    0  501 -0.00000000000E+00 -0.00000000000E+00 -0.38776952571E+03  0.38776952571E+03  0.00000000000E+00 0. -1.
          6    2    1    2  502    0 -0.19687494132E+03  0.44433151076E+02 -0.35096849279E+02  0.26802482247E+03  0.17283364602E+03 0.  0.
         24    2    3    3    0    0 -0.17764383282E+03 -0.20627892504E+02 -0.39303678850E+02  0.19988847137E+03  0.80173440300E+02 0.  0.
         -6    2    1    2    0  501  0.19687494132E+03 -0.44433151076E+02 -0.16279188470E+03  0.30962549498E+03  0.16921200306E+03 0.  0.
        -24    2    5    5    0    0  0.97308950574E+02  0.28220134748E+02 -0.57780240325E+02  0.14763345224E+03  0.90507857021E+02 0.  0.
          5    1    3    3  502    0 -0.19231108501E+02  0.65061043580E+02  0.42068295709E+01  0.68136351098E+02  0.47000000000E+01 0. -1.
        -11    1    4    4    0    0 -0.15220574354E+03  0.14056035080E+02 -0.27757713342E+02  0.15535331068E+03  0.00000000000E+00 0.  1.
         12    1    4    4    0    0 -0.25438089281E+02 -0.34683927584E+02 -0.11545965508E+02  0.44535160698E+02  0.00000000000E+00 0. -1.
         -5    1    5    5    0  501  0.99565990745E+02 -0.72653285824E+02 -0.10501164437E+03  0.16199204273E+03  0.47000000000E+01 0.  1.
         13    1    6    6    0    0  0.39505252256E+02  0.10985984765E+02 -0.74501745502E+02  0.85040383935E+02  0.00000000000E+00 0. -1.
        -14    1    6    6    0    0  0.57803698319E+02  0.17234149983E+02  0.16721505177E+02  0.62593068309E+02  0.00000000000E+00 0.  1.
</event>
<event>
12    1  0.1348628E-002  0.2335270E+03  0.7818608E-02  0.1124182E+00
         -2   -1    0    0    0  501 -0.00000000000E+00  0.00000000000E+00  0.13509888846E+03  0.13509888846E+03  0.00000000000E+00 0.  1.
          2   -1    0    0  502    0  0.00000000000E+00 -0.00000000000E+00 -0.61430883949E+03  0.61430883949E+03  0.00000000000E+00 0. -1.
          6    2    1    2  502    0 -0.98076118108E+02 -0.12678910528E+03 -0.45997702175E+03  0.51651483278E+03  0.17179729272E+03 0.  0.
         24    2    3    3    0    0 -0.36190972996E+02 -0.24668740560E+02 -0.31887211850E+03  0.33160668315E+03  0.79782398258E+02 0.  0.
         -6    2    1    2    0  501  0.98076118108E+02  0.12678910528E+03 -0.19232929285E+02  0.23289289517E+03  0.16785348638E+03 0.  0.
        -24    2    5    5    0    0  0.22826206863E+02  0.13159465009E+03 -0.79526747423E+00  0.15512606563E+03  0.78900419101E+02 0.  0.
          5    1    3    3  502    0 -0.61885145111E+02 -0.10212036472E+03 -0.14110490325E+03  0.18490814963E+03  0.47000000000E+01 0. -1.
        -11    1    4    4    0    0 -0.27796959126E+02 -0.21486201849E+01 -0.27214286916E+02  0.38960299250E+02  0.00000000000E+00 0.  1.
         12    1    4    4    0    0 -0.83940138705E+01 -0.22520120375E+02 -0.29165783158E+03  0.29264638390E+03  0.00000000000E+00 0. -1.
         -5    1    5    5    0  501  0.75249911245E+02 -0.48055448152E+01 -0.18437661811E+02  0.77766829538E+02  0.47000000000E+01 0.  1.
         13    1    6    6    0    0  0.51392617564E+01  0.55805858963E+02  0.38451478073E+02  0.67964859096E+02  0.00000000000E+00 0. -1.
        -14    1    6    6    0    0  0.17686945106E+02  0.75788791131E+02 -0.39246745547E+02  0.87161206534E+02  0.00000000000E+00 0.  1.
</event>
<event>
12    1  0.1348628E-002  0.1783540E+03  0.7818608E-02  0.1169406E+00
          2   -1    0    0  502    0  0.00000000000E+00  0.00000000000E+00  0.54747562745E+03  0.54747562745E+03  0.00000000000E+00 0. -1.
         -2   -1    0    0    0  501 -0.00000000000E+00 -0.00000000000E+00 -0.77461618838E+02  0.77461618838E+02  0.00000000000E+00 0.  1.
          6    2    1    2  502    0  0.39493342811E+02  0.30502311178E+02  0.79321458288E+02  0.19567680802E+03  0.17177719388E+03 0.  0.
         24    2    3    3    0    0 -0.21458039364E+02 -0.30794467356E+02  0.57441081447E+02  0.10638399230E+03  0.81297781687E+02 0.  0.
         -6    2    1    2    0  501 -0.39493342811E+02 -0.30502311178E+02  0.39069255033E+03  0.42926043827E+03  0.17068608576E+03 0.  0.
        -24    2    5    5    0    0  0.26487153250E+02 -0.10340624226E+02  0.79696714112E+02  0.11066913327E+03  0.71327365165E+02 0.  0.
          5    1    3    3  502    0  0.60951382176E+02  0.61296778534E+02  0.21880376841E+02  0.89292815716E+02  0.47000000000E+01 0. -1.
        -11    1    4    4    0    0 -0.61989511973E+01 -0.38624190289E+02 -0.69648346834E+01  0.39733663229E+02  0.00000000000E+00 0.  1.
         12    1    4    4    0    0 -0.15259088167E+02  0.78297229331E+01  0.64405916130E+02  0.66650329073E+02  0.00000000000E+00 0. -1.
         -5    1    5    5    0  501 -0.65980496062E+02 -0.20161686952E+02  0.31099583622E+03  0.31859130500E+03  0.47000000000E+01 0.  1.
         11    1    6    6    0    0  0.40419331715E+02  0.16630740569E+02  0.32151057396E+02  0.54258588259E+02  0.00000000000E+00 0. -1.
        -12    1    6    6    0    0 -0.13932178465E+02 -0.26971364795E+02  0.47545656716E+02  0.56410545010E+02  0.00000000000E+00 0.  1.
</event>
<event>
12    1  0.1348628E-002  0.1787966E+03  0.7818608E-02  0.1168973E+00
          2   -1    0    0  502    0  0.00000000000E+00  0.00000000000E+00  0.37343151567E+03  0.37343151567E+03  0.00000000000E+00 0. -1.
         -2   -1    0    0    0  501 -0.00000000000E+00 -0.00000000000E+00 -0.88741597172E+02  0.88741597172E+02  0.00000000000E+00 0.  1.
          6    2    1    2  502    0  0.23094392010E+02 -0.46443187941E+02  0.18508715710E+03  0.25673333458E+03  0.17018939072E+03 0.  0.
         24    2    3    3    0    0  0.28924324821E+02 -0.56714045983E+02  0.20542148950E+03  0.23275305694E+03  0.89010659950E+02 0.  0.
         -6    2    1    2    0  501 -0.23094392010E+02  0.46443187941E+02  0.99602761406E+02  0.20543977826E+03  0.17203043848E+03 0.  0.
        -24    2    5    5    0    0  0.38350916704E+02  0.27935314925E+01  0.93669508130E+02  0.12968945176E+03  0.81035674332E+02 0.  0.
          5    1    3    3  502    0 -0.58299328112E+01  0.10270858042E+02 -0.20334332408E+02  0.23980277646E+02  0.47000000000E+01 0. -1.
        -13    1    4    4    0    0  0.15362343697E+01 -0.68795500917E+02  0.88746577861E+02  0.11229931453E+03  0.00000000000E+00 0.  1.
         14    1    4    4    0    0  0.27388090452E+02  0.12081454935E+02  0.11667491164E+03  0.12045374240E+03  0.00000000000E+00 0. -1.
         -5    1    5    5    0  501 -0.61445308714E+02  0.43649656448E+02  0.59332532762E+01  0.75750326504E+02  0.47000000000E+01 0.  1.
         11    1    6    6    0    0  0.61064803044E+02  0.59910567828E+01  0.85712263306E+02  0.10541060200E+03  0.00000000000E+00 0. -1.
        -12    1    6    6    0    0 -0.22713886341E+02 -0.31975252904E+01  0.79572448241E+01  0.24278849764E+02  0.00000000000E+00 0.  1.
</event>
<event>
12    1  0.1348628E-002  0.4847402E+03  0.7818608E-02  0.1017841E+00
          1   -1    0    0  502    0  0.00000000000E+00  0.00000000000E+00  0.98217413559E+03  0.98217413559E+03  0.00000000000E+00 0. -1.
         -1   -1    0    0    0  501 -0.00000000000E+00 -0.00000000000E+00 -0.24857822881E+03  0.24857822881E+03  0.00000000000E+00 0.  1.
          6    2    1    2  502    0  0.45370761824E+03  0.46982275206E+01  0.24716037121E+03  0.54368535895E+03  0.16921242345E+03 0.  0.
         24    2    3    3    0    0  0.22933261591E+03  0.59523898879E+02  0.97312139422E+02  0.26831909653E+03  0.79930856527E+02 0.  0.
         -6    2    1    2    0  501 -0.45370761824E+03 -0.46982275206E+01  0.48643553558E+03  0.68706700545E+03  0.17195599297E+03 0.  0.
        -24    2    5    5    0    0 -0.35499054455E+03  0.57440473479E+02  0.36275685766E+03  0.51699412645E+03  0.79829156913E+02 0.  0.
          5    1    3    3  502    0  0.22437500233E+03 -0.54825671358E+02  0.14984823178E+03  0.27536626242E+03  0.47000000000E+01 0. -1.
        -11    1    4    4    0    0  0.18256797213E+03  0.31437063282E+02  0.40643765167E+02  0.18966093177E+03  0.00000000000E+00 0.  1.
         12    1    4    4    0    0  0.46764643785E+02  0.28086835597E+02  0.56668374255E+02  0.78658164756E+02  0.00000000000E+00 0. -1.
         -5    1    5    5    0  501 -0.98717073695E+02 -0.62138701000E+02  0.12367867792E+03  0.17007287900E+03  0.47000000000E+01 0.  1.
         13    1    6    6    0    0 -0.31217221983E+03  0.22527795541E+02  0.31314869179E+03  0.44274270132E+03  0.00000000000E+00 0. -1.
        -14    1    6    6    0    0 -0.42818324718E+02  0.34912677939E+02  0.49608165873E+02  0.74251425130E+02  0.00000000000E+00 0.  1.
</event>
<event>
12    1  0.1348628E-002  0.2139391E+03  0.7818608E-02  0.1138484E+00
          2   -1    0    0  502    0  0.00000000000E+00  0.00000000000E+00  0.96771147993E+03  0.96771147993E+03  0.00000000000E+00 0. -1.
         -2   -1    0    0    0  501 -0.00000000000E+00 -0.00000000000E+00 -0.79729904432E+02  0.79729904432E+02  0.00000000000E+00 0.  1.
          6    2    1    2  502    0  0.96522889889E+02  0.77242966604E+02  0.11140487711E+03  0.24224161735E+03  0.17603070860E+03 0.  0.
         24    2    3    3    0    0  0.12520695834E+03  0.92718961673E+02  0.58680867198E+02  0.18007898044E+03  0.68639687855E+02 0.  0.
         -6    2    1    2    0  501 -0.96522889889E+02 -0.77242966604E+02  0.77657669839E+03  0.80519976701E+03  0.17318242452E+03 0.  0.
        -24    2    5    5    0    0 -0.10969626174E+03 -0.65989622017E+02  0.77209404025E+03  0.78669680200E+03  0.79842039260E+02 0.  0.
          5    1    3    3  502    0 -0.28684068453E+02 -0.15475995069E+02  0.52724009916E+02  0.62162636914E+02  0.47000000000E+01 0. -1.
        -13    1    4    4    0    0  0.59102989069E+02  0.64670272502E+02  0.42307677279E+00  0.87610424359E+02  0.00000000000E+00 0.  1.
         14    1    4    4    0    0  0.66103969273E+02  0.28048689171E+02  0.58257790425E+02  0.92468556077E+02  0.00000000000E+00 0. -1.
         -5    1    5    5    0  501  0.13173371855E+02 -0.11253344587E+02  0.44826581387E+01  0.18502965017E+02  0.47000000000E+01 0.  1.
         11    1    6    6    0    0 -0.47909151683E+02  0.13584800500E+02  0.23152536247E+03  0.23682024214E+03  0.00000000000E+00 0. -1.
        -12    1    6    6    0    0 -0.61787110061E+02 -0.79574422518E+02  0.54056867778E+03  0.54987655986E+03  0.00000000000E+00 0.  1.
</event>
<event>
12    1  0.1348628E-002  0.1778393E+03  0.7818608E-02  0.1169911E+00
         -3   -1    0    0    0  501 -0.00000000000E+00  0.00000000000E+00  0.41055938222E+02  0.41055938222E+02  0.00000000000E+00 0.  1.
          3   -1    0    0  502    0  0.00000000000E+00 -0.00000000000E+00 -0.86819351318E+03  0.86819351318E+03  0.00000000000E+00 0. -1.
          6    2    1    2  502    0 -0.71622996667E+01 -0.56465567950E+02 -0.26508798935E+03  0.32032419476E+03  0.17057634288E+03 0.  0.
         24    2    3    3    0    0 -0.82766995507E+01 -0.66723203300E+02 -0.28161010422E+03  0.30028595008E+03  0.79667505315E+02 0.  0.
         -6    2    1    2    0  501  0.71622996667E+01  0.56465567950E+02 -0.56204958561E+03  0.58892525665E+03  0.16641382855E+03 0.  0.
        -24    2    5    5    0    0 -0.53964688317E+02  0.51215297985E+02 -0.42104504806E+03  0.43507973801E+03  0.80500009929E+02 0.  0.
          5    1    3    3  502    0  0.11143998840E+01  0.10257635350E+02  0.16522114868E+02  0.20038244678E+02  0.47000000000E+01 0. -1.
        -13    1    4    4    0    0 -0.38436672665E+02 -0.38512347943E+02 -0.21610454976E+03  0.22284917585E+03  0.00000000000E+00 0.  1.
         14    1    4    4    0    0  0.30159973114E+02 -0.28210855357E+02 -0.65505554455E+02  0.77436774227E+02  0.00000000000E+00 0. -1.
         -5    1    5    5    0  501  0.61126987984E+02  0.52502699659E+01 -0.14100453755E+03  0.15384551864E+03  0.47000000000E+01 0.  1.
         13    1    6    6    0    0  0.20341771215E+01 -0.11988436662E+02 -0.16546325830E+03  0.16590946428E+03  0.00000000000E+00 0. -1.
        -14    1    6    6    0    0 -0.55998865439E+02  0.63203734647E+02 -0.25558178976E+03  0.26917027373E+03  0.00000000000E+00 0.  1.
</event>
<event>
12    1  0.1348628E-002  0.1731702E+03  0.7818608E-02  0.1174582E+00
          2   -1    0    0  502    0  0.00000000000E+00  0.00000000000E+00  0.97264057682E+03  0.97264057682E+03  0.00000000000E+00 0.  1.
         -2   -1    0    0    0  501 -0.00000000000E+00 -0.00000000000E+00 -0.56683069230E+02  0.56683069230E+02  0.00000000000E+00 0. -1.
          6    2    1    2  502    0  0.34688610789E+01  0.32693529148E+02  0.79753802944E+03  0.81501777330E+03  0.16463949263E+03 0.  0.
         24    2    3    3    0    0 -0.14462060770E+02  0.75110187404E+02  0.69234724095E+03  0.70009221983E+03  0.70240463835E+02 0.  0.
         -6    2    1    2    0  501 -0.34688610789E+01 -0.32693529148E+02  0.11841947815E+03  0.21430587276E+03  0.17556461616E+03 0.  0.
        -24    2    5    5    0    0  0.34078192350E+02 -0.78943950321E+02  0.84753736303E+02  0.14571757307E+03  0.81590102328E+02 0.  0.
          5    1    3    3  502    0  0.17930921849E+02 -0.42416658256E+02  0.10519078849E+03  0.11492555346E+03  0.47000000000E+01 0. -1.
        -13    1    4    4    0    0  0.66306878232E+01 -0.64538778731E+01  0.22646000747E+03  0.22664896546E+03  0.00000000000E+00 0.  1.
         14    1    4    4    0    0 -0.21092748593E+02  0.81564065277E+02  0.46588723348E+03  0.47344325437E+03  0.00000000000E+00 0. -1.
         -5    1    5    5    0  501 -0.37547053429E+02  0.46250421174E+02  0.33665741847E+02  0.68588299688E+02  0.47000000000E+01 0.  1.
         11    1    6    6    0    0 -0.23573759813E+02 -0.43981717266E+02  0.46439649960E+02  0.68167108592E+02  0.00000000000E+00 0. -1.
        -12    1    6    6    0    0  0.57651952164E+02 -0.34962233055E+02  0.38314086343E+02  0.77550464478E+02  0.00000000000E+00 0.  1.
</event>
<event>
12    1  0.1348628E-002  0.1733485E+03  0.7818608E-02  0.1174400E+00
         -1   -1    0    0    0  501 -0.00000000000E+00  0.00000000000E+00  0.10369545597E+03  0.10369545597E+03  0.00000000000E+00 0.  1.
          1   -1    0    0  502    0  0.00000000000E+00 -0.00000000000E+00 -0.40986030818E+03  0.40986030818E+03  0.00000000000E+00 0. -1.
          6    2    1    2  502    0  0.10806610300E+02  0.61938792790E+02 -0.28608966795E+03  0.33020057364E+03  0.15242022127E+03 0.  0.
         24    2    3    3    0    0  0.39004769008E+02  0.86195197849E+02 -0.24631837313E+03  0.27554387019E+03  0.79376944518E+02 0.  0.
         -6    2    1    2    0  501 -0.10806610300E+02 -0.61938792790E+02 -0.20075184269E+02  0.18335519050E+03  0.17106406982E+03 0.  0.
        -24    2    5    5    0    0 -0.50606454209E+02 -0.13320109409E+02  0.31319817467E+02  0.10204504260E+03  0.81815776172E+02 0.  0.
          5    1    3    3  502    0 -0.28198158707E+02 -0.24256405059E+02 -0.39771294812E+02  0.54656703449E+02  0.47000000000E+01 0. -1.
        -11    1    4    4    0    0  0.56342830511E+02  0.30064584893E+02 -0.11174541152E+03  0.12870676288E+03  0.00000000000E+00 0.  1.
         12    1    4    4    0    0 -0.17338061504E+02  0.56130612956E+02 -0.13457296161E+03  0.14683710732E+03  0.00000000000E+00 0. -1.
         -5    1    5    5    0  501  0.39799843909E+02 -0.48618683381E+02 -0.51395001736E+02  0.81310147904E+02  0.47000000000E+01 0.  1.
         11    1    6    6    0    0  0.19830222611E+02  0.38426071556E+01  0.20438313885E+02  0.28735483867E+02  0.00000000000E+00 0. -1.
        -12    1    6    6    0    0 -0.70436676820E+02 -0.17162716565E+02  0.10881503582E+02  0.73309558733E+02  0.00000000000E+00 0.  1.
</event>
<event>
12    1  0.1348628E-002  0.1904667E+03  0.7818608E-02  0.1158041E+00
          2   -1    0    0  502    0  0.00000000000E+00  0.00000000000E+00  0.22600761523E+03  0.22600761523E+03  0.00000000000E+00 0.  1.
         -2   -1    0    0    0  501 -0.00000000000E+00 -0.00000000000E+00 -0.17999200503E+03  0.17999200503E+03  0.00000000000E+00 0. -1.
          6    2    1    2  502    0  0.39469546893E+02  0.71647486649E+02 -0.43673546200E+02  0.19623065129E+03  0.17293895568E+03 0.  0.
         24    2    3    3    0    0  0.35678847249E+02  0.91648299028E+02  0.22153087384E+02  0.12716808843E+03  0.77514982928E+02 0.  0.
         -6    2    1    2    0  501 -0.39469546893E+02 -0.71647486649E+02  0.89689156402E+02  0.20976896897E+03  0.17107795910E+03 0.  0.
        -24    2    5    5    0    0 -0.52511998389E+02 -0.95381102963E+02  0.11261651670E+03  0.17397589793E+03  0.75697215609E+02 0.  0.
          5    1    3    3  502    0  0.37906996441E+01 -0.20000812378E+02 -0.65826633584E+02  0.69062562859E+02  0.47000000000E+01 0. -1.
        -13    1    4    4    0    0 -0.99902559988E+01  0.69880847920E+01  0.28264205747E+02  0.30781550813E+02  0.00000000000E+00 0.  1.
         14    1    4    4    0    0  0.45669103248E+02  0.84660214236E+02 -0.61111183625E+01  0.96386537616E+02  0.00000000000E+00 0. -1.
         -5    1    5    5    0  501  0.13042451496E+02  0.23733616314E+02 -0.22927360294E+02  0.35793071039E+02  0.47000000000E+01 0.  1.
         13    1    6    6    0    0 -0.45300293208E+02 -0.95490982625E+01  0.35108913627E+02  0.58102819712E+02  0.00000000000E+00 0. -1.
        -14    1    6    6    0    0 -0.72117051807E+01 -0.85832004701E+02  0.77507603069E+02  0.11587307822E+03  0.00000000000E+00 0.  1.
</event>
<event>
12    1  0.1348628E-002  0.2880133E+03  0.7818608E-02  0.1091391E+00
          2   -1    0    0  502    0  0.00000000000E+00  0.00000000000E+00  0.53057824663E+03  0.53057824663E+03  0.00000000000E+00 0.  1.
         -2   -1    0    0    0  501 -0.00000000000E+00 -0.00000000000E+00 -0.29277304988E+03  0.29277304988E+03  0.00000000000E+00 0. -1.
          6    2    1    2  502    0 -0.20247988985E+03  0.10982034754E+03  0.39986407087E+03  0.49262101241E+03  0.17241105579E+03 0.  0.
         24    2    3    3    0    0 -0.21590176518E+03  0.12353349020E+03  0.33319029549E+03  0.42308196336E+03  0.78156761042E+02 0.  0.
         -6    2    1    2    0  501  0.20247988985E+03 -0.10982034754E+03 -0.16205887413E+03  0.33073028411E+03  0.17338058605E+03 0.  0.
        -24    2    5    5    0    0  0.14969502356E+03 -0.51337705689E+02 -0.34081015291E+02  0.18037442670E+03  0.79556634537E+02 0.  0.
          5    1    3    3  502    0  0.13421875333E+02 -0.13713142659E+02  0.66673775382E+02  0.69539049050E+02  0.47000000000E+01 0. -1.
        -13    1    4    4    0    0 -0.18616628594E+03  0.76590512595E+02  0.28840811715E+03  0.35171470637E+03  0.00000000000E+00 0.  1.
         14    1    4    4    0    0 -0.29735479239E+02  0.46942977606E+02  0.44782178344E+02  0.71367256983E+02  0.00000000000E+00 0. -1.
         -5    1    5    5    0  501  0.52784866291E+02 -0.58482641852E+02 -0.12797785883E+03  0.15035585742E+03  0.47000000000E+01 0.  1.
         13    1    6    6    0    0  0.10467343932E+03 -0.27680110839E+02 -0.59471746557E+02  0.12352977808E+03  0.00000000000E+00 0. -1.
        -14    1    6    6    0    0  0.45021584241E+02 -0.23657594850E+02  0.25390731266E+02  0.56844648612E+02  0.00000000000E+00 0.  1.
</event>
<event>
12    1  0.1348628E-002  0.1854030E+03  0.7818608E-02  0.1162674E+00
         -2   -1    0    0    0  501 -0.00000000000E+00  0.00000000000E+00  0.49359786683E+02  0.49359786683E+02  0.00000000000E+00 0.  1.
          2   -1    0    0  502    0  0.00000000000E+00 -0.00000000000E+00 -0.70017880535E+03  0.70017880535E+03  0.00000000000E+00 0. -1.
          6    2    1    2  502    0  0.56927507771E+02  0.41361919302E+02 -0.29731498464E+03  0.35021121245E+03  0.17117284750E+03 0.  0.
         24    2    3    3    0    0  0.76390224979E+02 -0.25953734899E+02 -0.19046045734E+03  0.22234341092E+03  0.81561901292E+02 0.  0.
         -6    2    1    2    0  501 -0.56927507771E+02 -0.41361919302E+02 -0.35350403402E+03  0.39932737959E+03  0.17188863984E+03 0.  0.
        -24    2    5    5    0    0 -0.11307058092E+02 -0.66333137604E+02 -0.11572812587E+03  0.15588486138E+03  0.79869619897E+02 0.  0.
          5    1    3    3  502    0 -0.19462717208E+02  0.67315654202E+02 -0.10685452731E+03  0.12786780153E+03  0.47000000000E+01 0. -1.
        -11    1    4    4    0    0  0.23278942083E+02 -0.57051280159E+01 -0.40602824478E+00  0.23971284678E+02  0.00000000000E+00 0.  1.
         12    1    4    4    0    0  0.53111282896E+02 -0.20248606883E+02 -0.19005442909E+03  0.19837212624E+03  0.00000000000E+00 0. -1.
         -5    1    5    5    0  501 -0.45620449679E+02  0.24971218302E+02 -0.23777590816E+03  0.24344251821E+03  0.47000000000E+01 0.  1.
         13    1    6    6    0    0 -0.39367730514E+02 -0.60777777284E+02 -0.99295025595E+02  0.12289531531E+03  0.00000000000E+00 0. -1.
        -14    1    6    6    0    0  0.28060672421E+02 -0.55553603202E+01 -0.16433100270E+02  0.32989546064E+02  0.00000000000E+00 0.  1.
</event>
<event>
12    1  0.1348628E-002  0.2697395E+03  0.7818608E-02  0.1101429E+00
          2   -1    0    0  502    0  0.00000000000E+00  0.00000000000E+00  0.28137685862E+04  0.28137685862E+04  0.00000000000E+00 0.  1.
         -2   -1    0    0    0  501 -0.00000000000E+00 -0.00000000000E+00 -0.53632643961E+02  0.53632643961E+02  0.00000000000E+00 0. -1.
          6    2    1    2  502    0 -0.63786812066E+02  0.19771013558E+03  0.24120619383E+04  0.24271094452E+04  0.17221907479E+03 0.  0.
         24    2    3    3    0    0 -0.58120751952E+02  0.32652643753E+02  0.91357670312E+03  0.91954313824E+03  0.80578990161E+02 0.  0.
         -6    2    1    2    0  501  0.63786812066E+02 -0.19771013558E+03  0.34807400401E+03  0.44029178502E+03  0.17188161212E+03 0.  0.
        -24    2    5    5    0    0  0.56771937142E+02 -0.29519445400E+02  0.12006014546E+03  0.15683151192E+03  0.78020728659E+02 0.  0.
          5    1    3    3  502    0 -0.56660601143E+01  0.16505749183E+03  0.14984852351E+04  0.15075663069E+04  0.47000000000E+01 0. -1.
        -11    1    4    4    0    0 -0.17568793536E+02 -0.25304002745E+02  0.38918237725E+03  0.39039963860E+03  0.00000000000E+00 0.  1.
         12    1    4    4    0    0 -0.40551958416E+02  0.57956646497E+02  0.52439432587E+03  0.52914349964E+03  0.00000000000E+00 0. -1.
         -5    1    5    5    0  501  0.70148749243E+01 -0.16819069018E+03  0.22801385855E+03  0.28346027310E+03  0.47000000000E+01 0.  1.
         13    1    6    6    0    0  0.54491534522E+02 -0.32225824700E+00  0.11480017556E+03  0.12707679369E+03  0.00000000000E+00 0. -1.
        -14    1    6    6    0    0  0.22804026201E+01 -0.29197187153E+02  0.52599698941E+01  0.29754718231E+02  0.00000000000E+00 0.  1.
</event>
<event>
12    1  0.1348628E-002  0.2005131E+03  0.7818608E-02  0.1149307E+00
         -2   -1    0    0    0  501 -0.00000000000E+00  0.00000000000E+00  0.22627205042E+03  0.22627205042E+03  0.00000000000E+00 0. -1.
          2   -1    0    0  502    0  0.00000000000E+00 -0.00000000000E+00 -0.17768951600E+03  0.17768951600E+03  0.00000000000E+00 0.  1.
          6    2    1    2  502    0  0.98373403275E+02 -0.29531791854E+02  0.24921516918E+02  0.20265769587E+03  0.17291502679E+03 0.  0.
         24    2    3    3    0    0  0.12497040387E+03 -0.17181030978E+02  0.55260695528E+02  0.16020186596E+03  0.81841943521E+02 0.  0.
         -6    2    1    2    0  501 -0.98373403275E+02  0.29531791854E+02  0.23661017500E+02  0.20130387055E+03  0.17150496013E+03 0.  0.
        -24    2    5    5    0    0 -0.11951491806E+03  0.62624791911E+02  0.63676548247E+01  0.15813836704E+03  0.82228437304E+02 0.  0.
          5    1    3    3  502    0 -0.26597000591E+02 -0.12350760876E+02 -0.30339178610E+02  0.42455829911E+02  0.47000000000E+01 0. -1.
        -13    1    4    4    0    0  0.61760561321E+02  0.23644651382E+02 -0.11747835237E+01  0.66142396312E+02  0.00000000000E+00 0.  1.
         14    1    4    4    0    0  0.63209842545E+02 -0.40825682360E+02  0.56435479052E+02  0.94059469649E+02  0.00000000000E+00 0. -1.
         -5    1    5    5    0  501  0.21141514790E+02 -0.33093000057E+02  0.17293362675E+02  0.43165503507E+02  0.47000000000E+01 0.  1.
         13    1    6    6    0    0 -0.78235764279E+02  0.68899404671E+02  0.32115724312E+02  0.10908429091E+03  0.00000000000E+00 0. -1.
        -14    1    6    6    0    0 -0.41279153786E+02 -0.62746127598E+01 -0.25748069488E+02  0.49054076129E+02  0.00000000000E+00 0.  1.
</event>
<event>
12    1  0.1348628E-002  0.1836864E+03  0.7818608E-02  0.1164282E+00
         -2   -1    0    0    0  501 -0.00000000000E+00  0.00000000000E+00  0.12862875214E+02  0.12862875214E+02  0.00000000000E+00 0. -1.
          2   -1    0    0  502    0  0.00000000000E+00 -0.00000000000E+00 -0.27712802369E+04  0.27712802369E+04  0.00000000000E+00 0.  1.
          6    2    1    2  502    0 -0.10944361866E+02 -0.56975236420E+02 -0.17249606241E+04  0.17350921589E+04  0.17801597793E+03 0.  0.
         24    2    3    3    0    0 -0.58459347535E+02 -0.42883076317E+02 -0.64391143603E+03  0.65289730585E+03  0.79978128184E+02 0.  0.
         -6    2    1    2    0  501  0.10944361866E+02  0.56975236420E+02 -0.10334567376E+04  0.10490509533E+04  0.17061394273E+03 0.  0.
        -24    2    5    5    0    0 -0.19859346919E+02  0.82122844572E+02 -0.93998664702E+03  0.94736507174E+03  0.82384023413E+02 0.  0.
          5    1    3    3  502    0  0.47514985669E+02 -0.14092160103E+02 -0.10810491881E+04  0.10821948530E+04  0.47000000000E+01 0. -1.
        -13    1    4    4    0    0  0.86564406513E+01  0.16233748375E+02 -0.99084003129E+02  0.10077751846E+03  0.00000000000E+00 0.  1.
         14    1    4    4    0    0 -0.67115788187E+02 -0.59116824692E+02 -0.54482743290E+03  0.55211978738E+03  0.00000000000E+00 0. -1.
         -5    1    5    5    0  501  0.30803708785E+02 -0.25147608152E+02 -0.93470090576E+02  0.10168588153E+03  0.47000000000E+01 0.  1.
         13    1    6    6    0    0 -0.35936111356E+02  0.24853632477E+01 -0.33997508534E+03  0.34187810661E+03  0.00000000000E+00 0. -1.
        -14    1    6    6    0    0  0.16076764437E+02  0.79637481324E+02 -0.60001156168E+03  0.60548696512E+03  0.00000000000E+00 0.  1.
</event>
<event>
12    1  0.1348628E-002  0.4417988E+03  0.7818608E-02  0.1030196E+00
          2   -1    0    0  502    0  0.00000000000E+00  0.00000000000E+00  0.25160456984E+04  0.25160456984E+04  0.00000000000E+00 0.  1.
         -2   -1    0    0    0  501 -0.00000000000E+00 -0.00000000000E+00 -0.86146293457E+02  0.86146293457E+02  0.00000000000E+00 0. -1.
          6    2    1    2  502    0 -0.17084853973E+03  0.36902913374E+03  0.80448303066E+03  0.91779315435E+03  0.17256767506E+03 0.  0.
         24    2    3    3    0    0 -0.84944992736E+02  0.20089974786E+03  0.30739272101E+03  0.38603402116E+03  0.83400360207E+02 0.  0.
         -6    2    1    2    0  501  0.17084853973E+03 -0.36902913374E+03  0.16254163743E+04  0.16843988375E+04  0.17276958333E+03 0.  0.
        -24    2    5    5    0    0  0.51937945377E+02 -0.26463707793E+03  0.10012346264E+04  0.10404560022E+04  0.85718038956E+02 0.  0.
          5    1    3    3  502    0 -0.85903546992E+02  0.16812938588E+03  0.49709030965E+03  0.53175913318E+03  0.47000000000E+01 0. -1.
        -13    1    4    4    0    0 -0.74122585933E+02  0.75977428235E+02  0.16616994930E+03  0.19717803984E+03  0.00000000000E+00 0.  1.
         14    1    4    4    0    0 -0.10822406804E+02  0.12492231963E+03  0.14122277171E+03  0.18885598132E+03  0.00000000000E+00 0. -1.
         -5    1    5    5    0  501  0.11891059435E+03 -0.10439205581E+03  0.62418174783E+03  0.64394283527E+03  0.47000000000E+01 0.  1.
         13    1    6    6    0    0 -0.13156464133E+02 -0.97852431921E+02  0.26588493836E+03  0.28362473699E+03  0.00000000000E+00 0. -1.
        -14    1    6    6    0    0  0.65094409510E+02 -0.16678464601E+03  0.73534968807E+03  0.75683126523E+03  0.00000000000E+00 0.  1.
</event>
<event>
12    1  0.1348628E-002  0.2119941E+03  0.7818608E-02  0.1139997E+00
         -2   -1    0    0    0  501 -0.00000000000E+00  0.00000000000E+00  0.30595747328E+02  0.30595747328E+02  0.00000000000E+00 0.  1.
          2   -1    0    0  502    0  0.00000000000E+00 -0.00000000000E+00 -0.14689878388E+04  0.14689878388E+04  0.00000000000E+00 0. -1.
          6    2    1    2  502    0  0.81468967202E+02 -0.98450109611E+02 -0.71793712414E+03  0.74890017183E+03  0.17055244488E+03 0.  0.
         24    2    3    3    0    0  0.40942995379E+02 -0.39787328866E+02 -0.61934702315E+03  0.62713903579E+03  0.80332276947E+02 0.  0.
         -6    2    1    2    0  501 -0.81468967202E+02  0.98450109611E+02 -0.72045496732E+03  0.75068341428E+03  0.16775163738E+03 0.  0.
        -24    2    5    5    0    0  0.33281064465E+01  0.57606384476E+02 -0.19918736790E+03  0.22096579726E+03  0.76293539713E+02 0.  0.
          5    1    3    3  502    0  0.40525971823E+02 -0.58662780745E+02 -0.98590100990E+02  0.12176113604E+03  0.47000000000E+01 0. -1.
        -13    1    4    4    0    0 -0.90503209857E+01 -0.24968692334E+01 -0.72219828314E+01  0.11844817514E+02  0.00000000000E+00 0.  1.
         14    1    4    4    0    0  0.49993316364E+02 -0.37290459633E+02 -0.61212504032E+03  0.61529421828E+03  0.00000000000E+00 0. -1.
         -5    1    5    5    0  501 -0.84797073648E+02  0.40843725136E+02 -0.52126759942E+03  0.52971761703E+03  0.47000000000E+01 0.  1.
         11    1    6    6    0    0  0.29689501735E+02  0.48877846871E+02 -0.17511087943E+03  0.18421273171E+03  0.00000000000E+00 0. -1.
        -12    1    6    6    0    0 -0.26361395289E+02  0.87285376050E+01 -0.24076488466E+02  0.36753065548E+02  0.00000000000E+00 0.  1.
</event>
<event>
12    1  0.1348628E-002  0.1960248E+03  0.7818608E-02  0.1153137E+00
         -2   -1    0    0    0  501 -0.00000000000E+00  0.00000000000E+00  0.21892871225E+02  0.21892871225E+02  0.00000000000E+00 0. -1.
          2   -1    0    0  502    0  0.00000000000E+00 -0.00000000000E+00 -0.18548625837E+04  0.18548625837E+04  0.00000000000E+00 0.  1.
          6    2    1    2  502    0 -0.32207635875E+02  0.88321759057E+02 -0.69831395183E+03  0.72526737169E+03  0.17184970231E+03 0.  0.
         24    2    3    3    0    0  0.40605177384E+02  0.62915960666E+02 -0.51224229244E+03  0.52379302396E+03  0.79748148830E+02 0.  0.
         -6    2    1    2    0  501  0.32207635875E+02 -0.88321759057E+02 -0.11346557607E+04  0.11514880833E+04  0.17217155904E+03 0.  0.
        -24    2    5    5    0    0 -0.26301230662E+02 -0.38342517152E+01 -0.33720305879E+03  0.34742693627E+03  0.79329168475E+02 0.  0.
          5    1    3    3  502    0 -0.72812813259E+02  0.25405798391E+02 -0.18607165939E+03  0.20147434773E+03  0.47000000000E+01 0. -1.
        -11    1    4    4    0    0 -0.19245088315E+02  0.38119411852E+02 -0.15762600573E+03  0.16330774833E+03  0.00000000000E+00 0.  1.
         12    1    4    4    0    0  0.59850265699E+02  0.24796548814E+02 -0.35461628672E+03  0.36048527563E+03  0.00000000000E+00 0. -1.
         -5    1    5    5    0  501  0.58508866536E+02 -0.84487507342E+02 -0.79745270189E+03  0.80406114700E+03  0.47000000000E+01 0.  1.
         13    1    6    6    0    0  0.26339437245E+02  0.99872584460E+01 -0.14265102604E+03  0.14540573068E+03  0.00000000000E+00 0. -1.
        -14    1    6    6    0    0 -0.52640667906E+02 -0.13821510161E+02 -0.19455203275E+03  0.20202120559E+03  0.00000000000E+00 0.  1.
</event>
<event>
12    1  0.1348628E-002  0.1829440E+03  0.7818608E-02  0.1164984E+00
          2   -1    0    0  502    0  0.00000000000E+00  0.00000000000E+00  0.22830263633E+04  0.22830263633E+04  0.00000000000E+00 0.  1.
         -2   -1    0    0    0  501 -0.00000000000E+00 -0.00000000000E+00 -0.14680315208E+02  0.14680315208E+02  0.00000000000E+00 0. -1.
          6    2    1    2  502    0  0.23342258144E+02  0.58904368099E+02  0.10937131850E+04  0.11089750528E+04  0.17205391938E+03 0.  0.
         24    2    3    3    0    0  0.10484350131E+02  0.34645785494E+02  0.10655025403E+04  0.10693299383E+04  0.82828748716E+02 0.  0.
         -6    2    1    2    0  501 -0.23342258144E+02 -0.58904368099E+02  0.11746328631E+04  0.11887316257E+04  0.17118974624E+03 0.  0.
        -24    2    5    5    0    0 -0.80165710651E+02 -0.47208967480E+02  0.72513729999E+03  0.73548330698E+03  0.80351497993E+02 0.  0.
          5    1    3    3  502    0  0.12857908012E+02  0.24258582604E+02  0.28210644703E+02  0.39645114491E+02  0.47000000000E+01 0. -1.
        -13    1    4    4    0    0  0.62546367167E+01 -0.26335067892E+02  0.44543935418E+03  0.44626099374E+03  0.00000000000E+00 0.  1.
         14    1    4    4    0    0  0.42297134145E+01  0.60980853386E+02  0.62006318610E+03  0.62306894459E+03  0.00000000000E+00 0. -1.
         -5    1    5    5    0  501  0.56823452507E+02 -0.11695400619E+02  0.44949556311E+03  0.45324831870E+03  0.47000000000E+01 0.  1.
         13    1    6    6    0    0 -0.55840323838E+01  0.18225354384E+01  0.11133064221E+01  0.59785035149E+01  0.00000000000E+00 0. -1.
        -14    1    6    6    0    0 -0.74581678267E+02 -0.49031502918E+02  0.72402399357E+03  0.72950480347E+03  0.00000000000E+00 0.  1.
</event>
<event>
12    1  0.1348628E-002  0.1783159E+03  0.7818608E-02  0.1169443E+00
         -4   -1    0    0    0  501 -0.00000000000E+00  0.00000000000E+00  0.44453290113E+03  0.44453290113E+03  0.00000000000E+00 0. -1.
          4   -1    0    0  502    0  0.00000000000E+00 -0.00000000000E+00 -0.72532076496E+02  0.72532076496E+02  0.00000000000E+00 0.  1.
          6    2    1    2  502    0  0.44302951230E+02 -0.20312843844E+02  0.21622874347E+03  0.28015359605E+03  0.17133535760E+03 0.  0.
         24    2    3    3    0    0 -0.16898103958E+02  0.22004010672E+02  0.50066162194E+02  0.98031717221E+02  0.79585643061E+02 0.  0.
         -6    2    1    2    0  501 -0.44302951230E+02  0.20312843844E+02  0.15577208116E+03  0.23691138157E+03  0.17171691337E+03 0.  0.
        -24    2    5    5    0    0  0.97643967111E+01  0.62140114106E+02  0.57932937887E+02  0.11746521542E+03  0.80530207488E+02 0.  0.
          5    1    3    3  502    0  0.61201055188E+02 -0.42316854517E+02  0.16616258127E+03  0.18212187883E+03  0.47000000000E+01 0. -1.
        -13    1    4    4    0    0  0.29055500881E+02  0.48470606902E+01  0.36953087523E+02  0.47257240781E+02  0.00000000000E+00 0.  1.
         14    1    4    4    0    0 -0.45953604839E+02  0.17156949982E+02  0.13113074671E+02  0.50774476440E+02  0.00000000000E+00 0. -1.
         -5    1    5    5    0  501 -0.54067347941E+02 -0.41827270262E+02  0.97839143277E+02  0.11944616615E+03  0.47000000000E+01 0.  1.
         13    1    6    6    0    0  0.68207500031E+01  0.65968003607E+01  0.61024756979E+02  0.61758087486E+02  0.00000000000E+00 0. -1.
        -14    1    6    6    0    0  0.29436467080E+01  0.55543313746E+02 -0.30918190920E+01  0.55707127938E+02  0.00000000000E+00 0.  1.
</event>
<event>
12    1  0.1348628E-002  0.1834810E+03  0.7818608E-02  0.1164476E+00
         -3   -1    0    0    0  501 -0.00000000000E+00  0.00000000000E+00  0.65316991948E+03  0.65316991948E+03  0.00000000000E+00 0. -1.
          3   -1    0    0  502    0  0.00000000000E+00 -0.00000000000E+00 -0.57981451668E+02  0.57981451668E+02  0.00000000000E+00 0.  1.
          6    2    1    2  502    0  0.50721642484E+01 -0.55191844749E+02  0.41293687513E+03  0.45100443663E+03  0.17267389046E+03 0.  0.
         24    2    3    3    0    0 -0.36400914902E+02 -0.41043308026E+02  0.13518502303E+03  0.16977787543E+03  0.86832924592E+02 0.  0.
         -6    2    1    2    0  501 -0.50721642484E+01  0.55191844749E+02  0.18225159269E+03  0.26014693452E+03  0.17716917882E+03 0.  0.
        -24    2    5    5    0    0 -0.23749956347E+00  0.29580162915E+01  0.19072006554E+03  0.20680322026E+03  0.79903831223E+02 0.  0.
          5    1    3    3  502    0  0.41473079150E+02 -0.14148536723E+02  0.27775185209E+03  0.28122656120E+03  0.47000000000E+01 0. -1.
        -11    1    4    4    0    0 -0.78675576971E+01  0.16259308992E+02  0.89070897049E+02  0.90883927589E+02  0.00000000000E+00 0.  1.
         12    1    4    4    0    0 -0.28533357205E+02 -0.57302617018E+02  0.46114125986E+02  0.78893947841E+02  0.00000000000E+00 0. -1.
         -5    1    5    5    0  501 -0.48346646850E+01  0.52233828458E+02 -0.84684728546E+01  0.53343714254E+02  0.47000000000E+01 0.  1.
         11    1    6    6    0    0  0.22667935014E+02  0.29253158469E+02  0.14292488341E+03  0.14763842608E+03  0.00000000000E+00 0. -1.
        -12    1    6    6    0    0 -0.22905434578E+02 -0.26295142177E+02  0.47795182130E+02  0.59164794178E+02  0.00000000000E+00 0.  1.
</event>
<event>
12    1  0.1348628E-002  0.1850451E+03  0.7818608E-02  0.1163008E+00
         -1   -1    0    0    0  501 -0.00000000000E+00  0.00000000000E+00  0.39187508582E+02  0.39187508582E+02  0.00000000000E+00 0. -1.
          1   -1    0    0  502    0  0.00000000000E+00 -0.00000000000E+00 -0.10978943838E+04  0.10978943838E+04  0.00000000000E+00 0.  1.
          6    2    1    2  502    0  0.36132965864E+02 -0.45945830879E+02 -0.27484599529E+03  0.33191022239E+03  0.17665634436E+03 0.  0.
         24    2    3    3    0    0 -0.29105010858E+02 -0.73744164327E+02 -0.19485163934E+03  0.22490588634E+03  0.79562509573E+02 0.  0.
         -6    2    1    2    0  501 -0.36132965864E+02  0.45945830879E+02 -0.78386087995E+03  0.80517167001E+03  0.17449048248E+03 0.  0.
        -24    2    5    5    0    0 -0.31222339307E+02 -0.40444407359E+02 -0.34716747900E+03  0.35996317509E+03  0.80234932470E+02 0.  0.
          5    1    3    3  502    0  0.65237976722E+02  0.27798333448E+02 -0.79994355956E+02  0.10700433605E+03  0.47000000000E+01 0. -1.
        -13    1    4    4    0    0 -0.47299986537E+02 -0.45634232630E+02 -0.17263023063E+03  0.18471861964E+03  0.00000000000E+00 0.  1.
         14    1    4    4    0    0  0.18194975680E+02 -0.28109931696E+02 -0.22221408703E+02  0.40187266699E+02  0.00000000000E+00 0. -1.
         -5    1    5    5    0  501 -0.49106265577E+01  0.86390238238E+02 -0.43669340095E+03  0.44520849492E+03  0.47000000000E+01 0.  1.
         13    1    6    6    0    0  0.24911180217E+02  0.62663257675E+00 -0.11121826405E+03  0.11397570718E+03  0.00000000000E+00 0. -1.
        -14    1    6    6    0    0 -0.56133519524E+02 -0.41071039935E+02 -0.23594921495E+03  0.24598746791E+03  0.00000000000E+00 0.  1.
</event>
<event>
12    1  0.1348628E-002  0.1889611E+03  0.7818608E-02  0.1159402E+00
          2   -1    0    0  502    0  0.00000000000E+00  0.00000000000E+00  0.53883138084E+03  0.53883138084E+03  0.00000000000E+00 0.  1.
         -2   -1    0    0    0  501 -0.00000000000E+00 -0.00000000000E+00 -0.70481581374E+02  0.70481581374E+02  0.00000000000E+00 0. -1.
          6    2    1    2  502    0 -0.76166791864E+02  0.61151998728E+00  0.16026579178E+03  0.24816146638E+03  0.17348554764E+03 0.  0.
         24    2    3    3    0    0 -0.10694525472E+03 -0.14478451244E+02  0.17221845135E+03  0.21155576903E+03  0.58734447852E+02 0.  0.
         -6    2    1    2    0  501  0.76166791864E+02 -0.61151998728E+00  0.30808400768E+03  0.36115149583E+03  0.17237428176E+03 0.  0.
        -24    2    5    5    0    0  0.55052624575E+02 -0.98393947241E+01  0.64790411011E+02  0.11672394846E+03  0.79366728699E+02 0.  0.
          5    1    3    3  502    0  0.30778462861E+02  0.15089971232E+02 -0.11952659570E+02  0.36605697352E+02  0.47000000000E+01 0. -1.
        -11    1    4    4    0    0 -0.53128433365E+01 -0.12201822248E+02  0.54110827501E+02  0.55723356174E+02  0.00000000000E+00 0.  1.
         12    1    4    4    0    0 -0.10163241139E+03 -0.22766289963E+01  0.11810762385E+03  0.15583241285E+03  0.00000000000E+00 0. -1.
         -5    1    5    5    0  501  0.21114167289E+02  0.92278747368E+01  0.24329359667E+03  0.24442754737E+03  0.47000000000E+01 0.  1.
         11    1    6    6    0    0  0.15906063670E+02  0.32140492287E+02  0.41318074890E+02  0.54710121720E+02  0.00000000000E+00 0. -1.
        -12    1    6    6    0    0  0.39146560905E+02 -0.41979887011E+02  0.23472336121E+02  0.62013826742E+02  0.00000000000E+00 0.  1.
</event>
<event>
12    1  0.1348628E-002  0.2073472E+03  0.7818608E-02  0.1143684E+00
          2   -1    0    0  502    0  0.00000000000E+00  0.00000000000E+00  0.76981310431E+03  0.76981310431E+03  0.00000000000E+00 0.  1.
         -2   -1    0    0    0  501 -0.00000000000E+00 -0.00000000000E+00 -0.61013713683E+02  0.61013713683E+02  0.00000000000E+00 0. -1.
          6    2    1    2  502    0 -0.95294644293E+02  0.64461535857E+02  0.47475049824E+03  0.51792315277E+03  0.17210461285E+03 0.  0.
         24    2    3    3    0    0 -0.12621827716E+03  0.20381762559E+02  0.38046390811E+03  0.40924312443E+03  0.79879157373E+02 0.  0.
         -6    2    1    2    0  501  0.95294644293E+02 -0.64461535857E+02  0.23404889239E+03  0.31290366522E+03  0.17289725516E+03 0.  0.
        -24    2    5    5    0    0  0.62092619143E+02 -0.68298861980E+02  0.61620399886E+02  0.13720285540E+03  0.80667973490E+02 0.  0.
          5    1    3    3  502    0  0.30923632863E+02  0.44079773298E+02  0.94286590123E+02  0.10868002834E+03  0.47000000000E+01 0. -1.
        -11    1    4    4    0    0  0.34055673530E+01 -0.56506874749E+01  0.88422630862E+02  0.88668426210E+02  0.00000000000E+00 0.  1.
         12    1    4    4    0    0 -0.12962384451E+03  0.26032450034E+02  0.29204127725E+03  0.32057469822E+03  0.00000000000E+00 0. -1.
         -5    1    5    5    0  501  0.33202025151E+02  0.38373261225E+01  0.17242849250E+03  0.17570080982E+03  0.47000000000E+01 0.  1.
         11    1    6    6    0    0  0.46983389551E+02 -0.85891840044E+02  0.57824630713E+02  0.11370371584E+03  0.00000000000E+00 0. -1.
        -12    1    6    6    0    0  0.15109229592E+02  0.17592978064E+02  0.37957691734E+01  0.23499139551E+02  0.00000000000E+00 0.  1.
</event>
<event>
12    1  0.1348628E-002  0.1683530E+03  0.7818608E-02  0.1179576E+00
         -2   -1    0    0    0  501 -0.00000000000E+00  0.00000000000E+00  0.19481764812E+02  0.19481764812E+02  0.00000000000E+00 0. -1.
          2   -1    0    0  502    0  0.00000000000E+00 -0.00000000000E+00 -0.14866613571E+04  0.14866613571E+04  0.00000000000E+00 0.  1.
          6    2    1    2  502    0  0.31980997791E+02  0.16448273647E+02 -0.77094272929E+03  0.78651929703E+03  0.15154729571E+03 0.  0.
         24    2    3    3    0    0  0.60209606687E+01 -0.14305178497E+02 -0.70060813734E+03  0.70534822355E+03  0.80146517419E+02 0.  0.
         -6    2    1    2    0  501 -0.31980997791E+02 -0.16448273647E+02 -0.69623686295E+03  0.71962382483E+03  0.17837979147E+03 0.  0.
        -24    2    5    5    0    0 -0.32876795583E+02 -0.32750583632E+02 -0.69640237926E+03  0.70263308735E+03  0.81015413294E+02 0.  0.
          5    1    3    3  502    0  0.25960037122E+02  0.30753452144E+02 -0.70334591943E+02  0.81171073480E+02  0.47000000000E+01 0. -1.
        -13    1    4    4    0    0 -0.13321572138E+02 -0.44092466626E+02 -0.38232276698E+03  0.38508740313E+03  0.00000000000E+00 0.  1.
         14    1    4    4    0    0  0.19342532807E+02  0.29787288129E+02 -0.31828537036E+03  0.32026082042E+03  0.00000000000E+00 0. -1.
         -5    1    5    5    0  501  0.89579779237E+00  0.16302309985E+02  0.16551630200E+00  0.16990737482E+02  0.47000000000E+01 0.  1.
         11    1    6    6    0    0  0.90398792169E+01 -0.10209051075E+02 -0.18093357240E+02  0.22656427705E+02  0.00000000000E+00 0. -1.
        -12    1    6    6    0    0 -0.41916674800E+02 -0.22541532557E+02 -0.67830902202E+03  0.67997665965E+03  0.00000000000E+00 0.  1.
</event>
<event>
12    1  0.1348628E-002  0.2126325E+03  0.7818608E-02  0.1139498E+00
          2   -1    0    0  502    0  0.00000000000E+00  0.00000000000E+00  0.48297703057E+03  0.48297703057E+03  0.00000000000E+00 0. -1.
         -2   -1    0    0    0  501 -0.00000000000E+00 -0.00000000000E+00 -0.12710041911E+03  0.12710041911E+03  0.00000000000E+00 0.  1.
          6    2    1    2  502    0  0.62200320111E+02 -0.10809814027E+03  0.33444918377E+03  0.39626197125E+03  0.17208487901E+03 0.  0.
         24    2    3    3    0    0 -0.20909630054E+02 -0.53120301513E+02  0.94036183819E+02  0.13597304118E+03  0.79917989208E+02 0.  0.
         -6    2    1    2    0  501 -0.62200320111E+02  0.10809814027E+03  0.21427427688E+02  0.21381547843E+03  0.17234800958E+03 0.  0.
        -24    2    5    5    0    0 -0.74427071411E+02  0.20012931735E+02 -0.24200887711E+02  0.11375284516E+03  0.80088204009E+02 0.  0.
          5    1    3    3  502    0  0.83109950165E+02 -0.54977838758E+02  0.24041299995E+03  0.26028893007E+03  0.47000000000E+01 0. -1.
        -11    1    4    4    0    0  0.95354814258E+01  0.71064115531E+01 -0.74972767948E+01  0.14058294723E+02  0.00000000000E+00 0.  1.
         12    1    4    4    0    0 -0.30445111480E+02 -0.60226713066E+02  0.10153346061E+03  0.12191474646E+03  0.00000000000E+00 0. -1.
         -5    1    5    5    0  501  0.12226751300E+02  0.88085208536E+02  0.45628315399E+02  0.10006263327E+03  0.47000000000E+01 0.  1.
         11    1    6    6    0    0 -0.41151330034E+02 -0.27965606288E+02 -0.24283716204E+02  0.55364302319E+02  0.00000000000E+00 0. -1.
        -12    1    6    6    0    0 -0.33275741377E+02  0.47978538023E+02  0.82828492833E-01  0.58388542845E+02  0.00000000000E+00 0.  1.
</event>
<event>
12    1  0.1348628E-002  0.1948576E+03  0.7818608E-02  0.1154152E+00
         -2   -1    0    0    0  501 -0.00000000000E+00  0.00000000000E+00  0.45181691740E+02  0.45181691740E+02  0.00000000000E+00 0. -1.
          2   -1    0    0  502    0  0.00000000000E+00 -0.00000000000E+00 -0.84090469979E+03  0.84090469979E+03  0.00000000000E+00 0.  1.
          6    2    1    2  502    0 -0.78199317121E+02  0.40996217546E+02 -0.40421271366E+03  0.45081062916E+03  0.17901531340E+03 0.  0.
         24    2    3    3    0    0 -0.10177398319E+02  0.22938259011E+02 -0.66450586651E+02  0.10576220395E+03  0.78359556879E+02 0.  0.
         -6    2    1    2    0  501  0.78199317121E+02 -0.40996217546E+02 -0.39151029439E+03  0.43527576236E+03  0.16848992741E+03 0.  0.
        -24    2    5    5    0    0  0.75662751055E+02 -0.11164547496E+02 -0.11838691281E+03  0.16047613669E+03  0.76730895375E+02 0.  0.
          5    1    3    3  502    0 -0.68021918803E+02  0.18057958536E+02 -0.33776212701E+03  0.34504842522E+03  0.47000000000E+01 0. -1.
        -13    1    4    4    0    0  0.18034477179E+00  0.43858393072E+02 -0.69539214052E+02  0.82214922356E+02  0.00000000000E+00 0.  1.
         14    1    4    4    0    0 -0.10357743090E+02 -0.20920134061E+02  0.30886274001E+01  0.23547281590E+02  0.00000000000E+00 0. -1.
         -5    1    5    5    0  501  0.25365660667E+01 -0.29831670050E+02 -0.27312338157E+03  0.27479962567E+03  0.47000000000E+01 0.  1.
         13    1    6    6    0    0  0.63016580421E+02 -0.20765432827E+02 -0.12635134210E+03  0.14271283845E+03  0.00000000000E+00 0. -1.
        -14    1    6    6    0    0  0.12646170633E+02  0.96008853311E+01  0.79644292818E+01  0.17763298247E+02  0.00000000000E+00 0.  1.
</event>
<event>
12    1  0.1348628E-002  0.2569525E+03  0.7818608E-02  0.1108988E+00
         -2   -1    0    0    0  501 -0.00000000000E+00  0.00000000000E+00  0.64243089245E+02  0.64243089245E+02  0.00000000000E+00 0.  1.
          2   -1    0    0  502    0  0.00000000000E+00 -0.00000000000E+00 -0.11951604221E+04  0.11951604221E+04  0.00000000000E+00 0. -1.
          6    2    1    2  502    0 -0.14680480110E+03 -0.12451911027E+03 -0.33071869083E+03  0.41911409869E+03  0.17095355162E+03 0.  0.
         24    2    3    3    0    0 -0.17653592396E+03 -0.96658364364E+02 -0.28411380539E+03  0.35703136216E+03  0.79012450300E+02 0.  0.
         -6    2    1    2    0  501  0.14680480110E+03  0.12451911027E+03 -0.80019864203E+03  0.84028941266E+03  0.16944548344E+03 0.  0.
        -24    2    5    5    0    0  0.14937086225E+03  0.12933371209E+03 -0.80427322058E+03  0.83201552295E+03  0.79721725460E+02 0.  0.
          5    1    3    3  502    0  0.29731122859E+02 -0.27860745905E+02 -0.46604885440E+02  0.62082736536E+02  0.47000000000E+01 0. -1.
        -13    1    4    4    0    0 -0.10817350518E+03 -0.14243236133E+02 -0.14021858870E+03  0.17766718779E+03  0.00000000000E+00 0.  1.
         14    1    4    4    0    0 -0.68362418782E+02 -0.82415128231E+02 -0.14389521668E+03  0.17936417437E+03  0.00000000000E+00 0. -1.
         -5    1    5    5    0  501 -0.25660611450E+01 -0.48146018243E+01  0.40745785481E+01  0.82738897063E+01  0.47000000000E+01 0.  1.
         13    1    6    6    0    0  0.10027318810E+03  0.75944419522E+02 -0.34847610686E+03  0.37048328458E+03  0.00000000000E+00 0. -1.
        -14    1    6    6    0    0  0.49097674154E+02  0.53389292571E+02 -0.45579711373E+03  0.46153223837E+03  0.00000000000E+00 0.  1.
</event>
<event>
12    1  0.1348628E-002  0.1818802E+03  0.7818608E-02  0.1165996E+00
         -2   -1    0    0    0  501 -0.00000000000E+00  0.00000000000E+00  0.31286374495E+02  0.31286374495E+02  0.00000000000E+00 0.  1.
          2   -1    0    0  502    0  0.00000000000E+00 -0.00000000000E+00 -0.15857626004E+04  0.15857626004E+04  0.00000000000E+00 0. -1.
          6    2    1    2  502    0  0.44190830755E+02 -0.44417974208E+02 -0.12428657061E+04  0.12560476770E+04  0.17033736368E+03 0.  0.
         24    2    3    3    0    0 -0.10879753865E+02  0.17814552599E+02 -0.91192944837E+03  0.91480501644E+03  0.69405849716E+02 0.  0.
         -6    2    1    2    0  501 -0.44190830755E+02  0.44417974208E+02 -0.31161051986E+03  0.36100129798E+03  0.17115792444E+03 0.  0.
        -24    2    5    5    0    0  0.42671050893E+01  0.85102620535E+01 -0.54130429945E+02  0.96510046629E+02  0.79331285810E+02 0.  0.
          5    1    3    3  502    0  0.55070584620E+02 -0.62232526807E+02 -0.33093625772E+03  0.34124266052E+03  0.47000000000E+01 0. -1.
        -11    1    4    4    0    0  0.58377231673E+01  0.27454774565E+02 -0.14836494701E+03  0.15099669255E+03  0.00000000000E+00 0.  1.
         12    1    4    4    0    0 -0.16717477033E+02 -0.96402219652E+01 -0.76356450136E+03  0.76380832389E+03  0.00000000000E+00 0. -1.
         -5    1    5    5    0  501 -0.48457935844E+02  0.35907712154E+02 -0.25748008991E+03  0.26449125135E+03  0.47000000000E+01 0.  1.
         13    1    6    6    0    0  0.31472618406E+02 -0.11524286456E+02 -0.52995534514E+02  0.62704557778E+02  0.00000000000E+00 0. -1.
        -14    1    6    6    0    0 -0.27205513317E+02  0.20034548509E+02 -0.11348954306E+01  0.33805488851E+02  0.00000000000E+00 0.  1.
</event>
<event>
12    1  0.1348628E-002  0.2665790E+03  0.7818608E-02  0.1103254E+00
          1   -1    0    0  502    0  0.00000000000E+00  0.00000000000E+00  0.19675605544E+03  0.19675605544E+03  0.00000000000E+00 0.  1.
         -1   -1    0    0    0  501 -0.00000000000E+00 -0.00000000000E+00 -0.40817231084E+03  0.40817231084E+03  0.00000000000E+00 0. -1.
          6    2    1    2  502    0 -0.91986587522E+02 -0.18183942913E+03 -0.29854859153E+01  0.26632460037E+03  0.17144319575E+03 0.  0.
         24    2    3    3    0    0 -0.11589326326E+03 -0.18735988068E+03 -0.21546828862E+02  0.23520197223E+03  0.79503009693E+02 0.  0.
         -6    2    1    2    0  501  0.91986587522E+02  0.18183942913E+03 -0.20843076949E+03  0.33860376590E+03  0.17228468982E+03 0.  0.
        -24    2    5    5    0    0 -0.31840736910E+01  0.10668832430E+03 -0.13010638915E+03  0.19416712973E+03  0.96853832678E+02 0.  0.
          5    1    3    3  502    0  0.23906675743E+02  0.55204515493E+01  0.18561342946E+02  0.31122628140E+02  0.47000000000E+01 0. -1.
        -11    1    4    4    0    0 -0.28736847422E+02 -0.10948245095E+03  0.11407002205E+02  0.11376437565E+03  0.00000000000E+00 0.  1.
         12    1    4    4    0    0 -0.87156415843E+02 -0.77877429727E+02 -0.32953831067E+02  0.12143759659E+03  0.00000000000E+00 0. -1.
         -5    1    5    5    0  501  0.95170661213E+02  0.75151104833E+02 -0.78324380337E+02  0.14443663617E+03  0.47000000000E+01 0.  1.
         11    1    6    6    0    0  0.36105148617E+02  0.54952044947E+02 -0.10627386233E+03  0.12496976761E+03  0.00000000000E+00 0. -1.
        -12    1    6    6    0    0 -0.39289222308E+02  0.51736279352E+02 -0.23832526816E+02  0.69197362126E+02  0.00000000000E+00 0.  1.
</event>
<event>
12    1  0.1348628E-002  0.1936720E+03  0.7818608E-02  0.1155191E+00
          1   -1    0    0  502    0  0.00000000000E+00  0.00000000000E+00  0.83061621589E+03  0.83061621589E+03  0.00000000000E+00 0. -1.
         -1   -1    0    0    0  501 -0.00000000000E+00 -0.00000000000E+00 -0.91883172294E+02  0.91883172294E+02  0.00000000000E+00 0.  1.
          6    2    1    2  502    0 -0.69886782631E+02  0.55792602782E+02  0.69797848250E+03  0.72426150572E+03  0.17141700536E+03 0.  0.
         24    2    3    3    0    0  0.50531407596E+01 -0.22520634522E+02  0.25433636183E+03  0.26754564604E+03  0.79755718005E+02 0.  0.
         -6    2    1    2    0  501  0.69886782631E+02 -0.55792602782E+02  0.40754561100E+02  0.19823788246E+03  0.17216372115E+03 0.  0.
        -24    2    5    5    0    0 -0.61211990960E+01 -0.84455082172E+02  0.19354691455E+02  0.11410230478E+03  0.73990552723E+02 0.  0.
          5    1    3    3  502    0 -0.74939923391E+02  0.78313237304E+02  0.44364212067E+03  0.45671585969E+03  0.47000000000E+01 0. -1.
        -11    1    4    4    0    0 -0.58512585932E+01 -0.45146071487E+02  0.85619751437E+02  0.96969824347E+02  0.00000000000E+00 0.  1.
         12    1    4    4    0    0  0.10904399353E+02  0.22625436966E+02  0.16871661039E+03  0.17057582169E+03  0.00000000000E+00 0. -1.
         -5    1    5    5    0  501  0.76007981727E+02  0.28662479390E+02  0.21399869645E+02  0.84135577682E+02  0.47000000000E+01 0.  1.
         13    1    6    6    0    0 -0.27502015903E+02 -0.11439930116E+02  0.23452047316E+02  0.37910834904E+02  0.00000000000E+00 0. -1.
        -14    1    6    6    0    0  0.21380816807E+02 -0.73015152057E+02 -0.40973558610E+01  0.76191469879E+02  0.00000000000E+00 0.  1.
</event>
<event>
12    1  0.1348628E-002  0.3035609E+03  0.7818608E-02  0.1083474E+00
          2   -1    0    0  502    0  0.00000000000E+00  0.00000000000E+00  0.13627434968E+04  0.13627434968E+04  0.00000000000E+00 0.  1.
         -2   -1    0    0    0  501 -0.00000000000E+00 -0.00000000000E+00 -0.68878400211E+02  0.68878400211E+02  0.00000000000E+00 0. -1.
          6    2    1    2  502    0  0.24606233377E+03  0.17445943667E+02  0.73687226141E+03  0.79577475724E+03  0.17153921293E+03 0.  0.
         24    2    3    3    0    0  0.47792038445E+02  0.39608238424E+02  0.26182021287E+03  0.28050898490E+03  0.79262697752E+02 0.  0.
         -6    2    1    2    0  501 -0.24606233377E+03 -0.17445943667E+02  0.55699283522E+03  0.63584713982E+03  0.18223483111E+03 0.  0.
        -24    2    5    5    0    0 -0.19327356342E+03 -0.21488423140E+02  0.26355787545E+03  0.33763721119E+03  0.81973837421E+02 0.  0.
          5    1    3    3  502    0  0.19827029533E+03 -0.22162294757E+02  0.47505204854E+03  0.51526577233E+03  0.47000000000E+01 0. -1.
        -13    1    4    4    0    0  0.82994621374E+01 -0.20782945986E+02  0.11204545039E+03  0.11425845644E+03  0.00000000000E+00 0.  1.
         14    1    4    4    0    0  0.39492576308E+02  0.60391184410E+02  0.14977476248E+03  0.16625052846E+03  0.00000000000E+00 0. -1.
         -5    1    5    5    0  501 -0.52788770358E+02  0.40424794731E+01  0.29343495977E+03  0.29820992863E+03  0.47000000000E+01 0.  1.
         13    1    6    6    0    0 -0.89640751366E+02 -0.51121404725E+02  0.13280978100E+03  0.16818828811E+03  0.00000000000E+00 0. -1.
        -14    1    6    6    0    0 -0.10363281205E+03  0.29632981585E+02  0.13074809444E+03  0.16944892308E+03  0.00000000000E+00 0.  1.
</event>
<event>
12    1  0.1348628E-002  0.1796530E+03  0.7818608E-02  0.1168139E+00
         -1   -1    0    0    0  501 -0.00000000000E+00  0.00000000000E+00  0.31595437283E+02  0.31595437283E+02  0.00000000000E+00 0.  1.
          1   -1    0    0  502    0  0.00000000000E+00 -0.00000000000E+00 -0.14404401105E+04  0.14404401105E+04  0.00000000000E+00 0. -1.
          6    2    1    2  502    0 -0.69791609514E+01  0.54883538779E+02 -0.10981975669E+04  0.11126148248E+04  0.16974375047E+03 0.  0.
         24    2    3    3    0    0 -0.45095098769E+02  0.84547356171E+01 -0.35417101271E+03  0.36615246013E+03  0.80780364732E+02 0.  0.
         -6    2    1    2    0  501  0.69791609514E+01 -0.54883538779E+02 -0.31064710629E+03  0.35942072299E+03  0.17210671094E+03 0.  0.
        -24    2    5    5    0    0  0.47063522666E+02  0.19060532399E+02 -0.20291850430E+03  0.22266538158E+03  0.76326101089E+02 0.  0.
          5    1    3    3  502    0  0.38115937817E+02  0.46428803162E+02 -0.74402655424E+03  0.74646236468E+03  0.47000000000E+01 0. -1.
        -13    1    4    4    0    0  0.11878561289E+02 -0.12162369971E+02 -0.19660431316E+03  0.19733798270E+03  0.00000000000E+00 0.  1.
         14    1    4    4    0    0 -0.56973660058E+02  0.20617105588E+02 -0.15756669955E+03  0.16881447743E+03  0.00000000000E+00 0. -1.
         -5    1    5    5    0  501 -0.40084361715E+02 -0.73944071178E+02 -0.10772860199E+03  0.13675534140E+03  0.47000000000E+01 0.  1.
         11    1    6    6    0    0 -0.79902357307E+01  0.10673782523E+02 -0.11841469432E+01  0.13385652930E+02  0.00000000000E+00 0. -1.
        -12    1    6    6    0    0  0.55053758397E+02  0.83867498758E+01 -0.20173435736E+03  0.20927972865E+03  0.00000000000E+00 0.  1.
</event>
<event>
12    1  0.1348628E-002  0.1924838E+03  0.7818608E-02  0.1156240E+00
          2   -1    0    0  502    0  0.00000000000E+00  0.00000000000E+00  0.92486934334E+03  0.92486934334E+03  0.00000000000E+00 0. -1.
         -2   -1    0    0    0  501 -0.00000000000E+00 -0.00000000000E+00 -0.40580781745E+02  0.40580781745E+02  0.00000000000E+00 0.  1.
          6    2    1    2  502    0  0.36219582248E+02  0.77937194998E+02  0.38749025216E+03  0.43267338552E+03  0.17225416837E+03 0.  0.
         24    2    3    3    0    0 -0.24155200502E+02  0.19607343393E+02  0.92299897046E+02  0.12574192456E+03  0.79522568937E+02 0.  0.
         -6    2    1    2    0  501 -0.36219582248E+02 -0.77937194998E+02  0.49679830944E+03  0.53277673956E+03  0.17221042203E+03 0.  0.
        -24    2    5    5    0    0  0.29552382811E+02 -0.82007816756E+02  0.38597671183E+03  0.40375721450E+03  0.80269800369E+02 0.  0.
          5    1    3    3  502    0  0.60374782750E+02  0.58329851605E+02  0.29519035511E+03  0.30693146097E+03  0.47000000000E+01 0. -1.
        -13    1    4    4    0    0 -0.29776191008E+02  0.21468385477E+02  0.10526864968E+03  0.11148543282E+03  0.00000000000E+00 0.  1.
         14    1    4    4    0    0  0.56209905054E+01 -0.18610420838E+01 -0.12968752631E+02  0.14256491739E+02  0.00000000000E+00 0. -1.
         -5    1    5    5    0  501 -0.65771965059E+02  0.40706217575E+01  0.11082159761E+03  0.12901952506E+03  0.47000000000E+01 0.  1.
         13    1    6    6    0    0 -0.16243164427E+02 -0.47011679951E+02  0.96129492059E+02  0.10823501137E+03  0.00000000000E+00 0. -1.
        -14    1    6    6    0    0  0.45795547238E+02 -0.34996136805E+02  0.28984721977E+03  0.29552220313E+03  0.00000000000E+00 0.  1.
</event>
<event>
12    1  0.1348628E-002  0.1944012E+03  0.7818608E-02  0.1154551E+00
          1   -1    0    0  502    0  0.00000000000E+00  0.00000000000E+00  0.26285538783E+03  0.26285538783E+03  0.00000000000E+00 0. -1.
         -1   -1    0    0    0  501 -0.00000000000E+00 -0.00000000000E+00 -0.15679478824E+03  0.15679478824E+03  0.00000000000E+00 0.  1.
          6    2    1    2  502    0 -0.11054633148E+02  0.73916923222E+02  0.11440138578E+03  0.22935948223E+03  0.18420689067E+03 0.  0.
         24    2    3    3    0    0 -0.34432711166E+02  0.53510195638E+02 -0.90164779846E+01  0.10201338627E+03  0.79224247976E+02 0.  0.
         -6    2    1    2    0  501  0.11054633148E+02 -0.73916923222E+02 -0.83407861858E+01  0.19029069384E+03  0.17480006577E+03 0.  0.
        -24    2    5    5    0    0  0.22363273798E+02 -0.10350044992E+03 -0.44510251615E+02  0.14198551156E+03  0.83464147059E+02 0.  0.
          5    1    3    3  502    0  0.23378078017E+02  0.20406727584E+02  0.12341786376E+03  0.12734609597E+03  0.47000000000E+01 0. -1.
        -11    1    4    4    0    0  0.19732154191E+02  0.24609267884E+02 -0.23012235187E+02  0.39045319093E+02  0.00000000000E+00 0.  1.
         12    1    4    4    0    0 -0.54164865356E+02  0.28900927754E+02  0.13995757203E+02  0.62968067175E+02  0.00000000000E+00 0. -1.
         -5    1    5    5    0  501 -0.11308640650E+02  0.29583526703E+02  0.36169465429E+02  0.48305182279E+02  0.47000000000E+01 0.  1.
         13    1    6    6    0    0  0.20607284284E+02 -0.10706496671E+02  0.18597750768E+02  0.29751732221E+02  0.00000000000E+00 0. -1.
        -14    1    6    6    0    0  0.17559895140E+01 -0.92793953253E+02 -0.63108002383E+02  0.11223377934E+03  0.00000000000E+00 0.  1.
</event>
<event>
12    1  0.1348628E-002  0.2061180E+03  0.7818608E-02  0.1144677E+00
          2   -1    0    0  502    0  0.00000000000E+00  0.00000000000E+00  0.57768303293E+03  0.57768303293E+03  0.00000000000E+00 0.  1.
         -2   -1    0    0    0  501 -0.00000000000E+00 -0.00000000000E+00 -0.10023885983E+03  0.10023885983E+03  0.00000000000E+00 0. -1.
          6    2    1    2  502    0 -0.65056949118E+02 -0.94000151052E+02  0.63879712058E+02  0.21588280183E+03  0.17162846933E+03 0.  0.
         24    2    3    3    0    0 -0.38461477832E+02 -0.61698429379E+02  0.10551480917E+03  0.15666885391E+03  0.90143071651E+02 0.  0.
         -6    2    1    2    0  501  0.65056949118E+02  0.94000151052E+02  0.41356446105E+03  0.46203909093E+03  0.17139464135E+03 0.  0.
        -24    2    5    5    0    0  0.99559303427E+02  0.10675324563E+03  0.36407531341E+03  0.40019800743E+03  0.79368135732E+02 0.  0.
          5    1    3    3  502    0 -0.26595471286E+02 -0.32301721673E+02 -0.41635097113E+02  0.59213947914E+02  0.47000000000E+01 0. -1.
        -11    1    4    4    0    0 -0.46579058207E+02 -0.76477061231E+02  0.10725144635E+03  0.13971836781E+03  0.00000000000E+00 0.  1.
         12    1    4    4    0    0  0.81175803751E+01  0.14778631852E+02 -0.17366371792E+01  0.16950486106E+02  0.00000000000E+00 0. -1.
         -5    1    5    5    0  501 -0.34502354309E+02 -0.12753094581E+02  0.49489147641E+02  0.61841083500E+02  0.47000000000E+01 0.  1.
         13    1    6    6    0    0  0.16903202515E+02 -0.77020737915E+01  0.15767264071E+02  0.24364868402E+02  0.00000000000E+00 0. -1.
        -14    1    6    6    0    0  0.82656100912E+02  0.11445531942E+03  0.34830804934E+03  0.37583313903E+03  0.00000000000E+00 0.  1.
</event>
<event>
12    1  0.1348628E-002  0.1936982E+03  0.7818608E-02  0.1155167E+00
          2   -1    0    0  502    0  0.00000000000E+00  0.00000000000E+00  0.48366914030E+03  0.48366914030E+03  0.00000000000E+00 0.  1.
         -2   -1    0    0    0  501 -0.00000000000E+00 -0.00000000000E+00 -0.11149376647E+03  0.11149376647E+03  0.00000000000E+00 0. -1.
          6    2    1    2  502    0  0.68721740640E+01  0.89146441186E+02  0.22450499223E+02  0.19574262327E+03  0.17267551910E+03 0.  0.
         24    2    3    3    0    0  0.70529576558E+02  0.71473467980E+02  0.17939159152E+02  0.12935707466E+03  0.79552256660E+02 0.  0.
         -6    2    1    2    0  501 -0.68721740640E+01 -0.89146441186E+02  0.34972487460E+03  0.39942028350E+03  0.17098175400E+03 0.  0.
        -24    2    5    5    0    0 -0.50318878268E+02 -0.29971125886E+02  0.10540316464E+03  0.14426440564E+03  0.79196803731E+02 0.  0.
          5    1    3    3  502    0 -0.63657402494E+02  0.17672973206E+02  0.45113400711E+01  0.66385548604E+02  0.47000000000E+01 0. -1.
        -13    1    4    4    0    0  0.12465484684E+02  0.15223716259E+02  0.40840864305E+02  0.45333498015E+02  0.00000000000E+00 0.  1.
         14    1    4    4    0    0  0.58064091874E+02  0.56249751721E+02 -0.22901705152E+02  0.84023576648E+02  0.00000000000E+00 0. -1.
         -5    1    5    5    0  501  0.43446704204E+02 -0.59175315300E+02  0.24432170996E+03  0.25515587786E+03  0.47000000000E+01 0.  1.
         11    1    6    6    0    0 -0.35111326638E+02 -0.53485885781E+02  0.94694442934E+02  0.11428290668E+03  0.00000000000E+00 0. -1.
        -12    1    6    6    0    0 -0.15207551630E+02  0.23514759894E+02  0.10708721709E+02  0.29981498964E+02  0.00000000000E+00 0.  1.
</event>
<event>
12    1  0.1348628E-002  0.2235566E+03  0.7818608E-02  0.1131259E+00
         -3   -1    0    0    0  501 -0.00000000000E+00  0.00000000000E+00  0.13080399835E+04  0.13080399835E+04  0.00000000000E+00 0. -1.
          3   -1    0    0  502    0  0.00000000000E+00 -0.00000000000E+00 -0.47843815216E+02  0.47843815216E+02  0.00000000000E+00 0.  1.
          6    2    1    2  502    0 -0.14300265615E+03 -0.18760719945E+01  0.93650253602E+03  0.96304095737E+03  0.17308265742E+03 0.  0.
         24    2    3    3    0    0 -0.85228144299E+02 -0.27377098114E+02  0.29199526795E+03  0.31543003626E+03  0.78876670749E+02 0.  0.
         -6    2    1    2    0  501  0.14300265615E+03  0.18760719945E+01  0.32369363231E+03  0.39284284139E+03  0.17057154252E+03 0.  0.
        -24    2    5    5    0    0  0.95204820189E+02  0.38659729707E+02  0.30171868125E+03  0.32847934963E+03  0.79410251406E+02 0.  0.
          5    1    3    3  502    0 -0.57774511851E+02  0.25501026119E+02  0.64450726807E+03  0.64761092111E+03  0.47000000000E+01 0. -1.
        -13    1    4    4    0    0 -0.75587433848E+02  0.11816615281E+02  0.15906322852E+03  0.17650553311E+03  0.00000000000E+00 0.  1.
         14    1    4    4    0    0 -0.96407104510E+01 -0.39193713395E+02  0.13293203943E+03  0.13892450315E+03  0.00000000000E+00 0. -1.
         -5    1    5    5    0  501  0.47797835960E+02 -0.36783657713E+02  0.21974951060E+02  0.64363491758E+02  0.47000000000E+01 0.  1.
         11    1    6    6    0    0  0.74424617176E+02  0.57677853200E-01  0.24915522711E+03  0.26003337126E+03  0.00000000000E+00 0. -1.
        -12    1    6    6    0    0  0.20780203014E+02  0.38602051854E+02  0.52563454139E+02  0.68445978374E+02  0.00000000000E+00 0.  1.
</event>
<event>
12    1  0.1348628E-002  0.2463006E+03  0.7818608E-02  0.1115665E+00
          2   -1    0    0  502    0  0.00000000000E+00  0.00000000000E+00  0.38509328218E+03  0.38509328218E+03  0.00000000000E+00 0. -1.
         -2   -1    0    0    0  501 -0.00000000000E+00 -0.00000000000E+00 -0.20741691553E+03  0.20741691553E+03  0.00000000000E+00 0.  1.
          6    2    1    2  502    0 -0.14696755125E+03 -0.96701793667E+02 -0.56552217769E+02  0.25234854125E+03  0.17184567180E+03 0.  0.
         24    2    3    3    0    0 -0.13741302207E+03 -0.89828618690E+02  0.12211387285E+02  0.18242677824E+03  0.78605928975E+02 0.  0.
         -6    2    1    2    0  501  0.14696755125E+03  0.96701793667E+02  0.23422858442E+03  0.34016165647E+03  0.17290524791E+03 0.  0.
        -24    2    5    5    0    0  0.58640787413E+02  0.37804745178E+02  0.30846594743E+02  0.11069095408E+03  0.80206198024E+02 0.  0.
          5    1    3    3  502    0 -0.95545291821E+01 -0.68731749766E+01 -0.68763605054E+02  0.69921763008E+02  0.47000000000E+01 0. -1.
        -13    1    4    4    0    0 -0.49542097482E+02 -0.50049032216E+02 -0.30741093928E+02  0.76839702658E+02  0.00000000000E+00 0.  1.
         14    1    4    4    0    0 -0.87870924588E+02 -0.39779586474E+02  0.42952481213E+02  0.10558707558E+03  0.00000000000E+00 0. -1.
         -5    1    5    5    0  501  0.88326763840E+02  0.58897048489E+02  0.20338198967E+03  0.22947070239E+03  0.47000000000E+01 0.  1.
         11    1    6    6    0    0  0.75852850160E+02  0.43520980825E+02  0.30281664979E+02  0.92545717801E+02  0.00000000000E+00 0. -1.
        -12    1    6    6    0    0 -0.17212062747E+02 -0.57162356470E+01  0.56492976458E+00  0.18145236279E+02  0.00000000000E+00 0.  1.
</event>
<event>
12    1  0.1348628E-002  0.2528585E+03  0.7818608E-02  0.1111512E+00
         -1   -1    0    0    0  501 -0.00000000000E+00  0.00000000000E+00  0.11362722967E+04  0.11362722967E+04  0.00000000000E+00 0. -1.
          1   -1    0    0  502    0  0.00000000000E+00 -0.00000000000E+00 -0.11232302614E+03  0.11232302614E+03  0.00000000000E+00 0.  1.
          6    2    1    2  502    0  0.13059601210E+03  0.13087358740E+03  0.71041453619E+02  0.26273170428E+03  0.17262052615E+03 0.  0.
         24    2    3    3    0    0  0.12852265125E+03  0.16163711562E+03  0.64706457868E+02  0.23090536825E+03  0.80534057183E+02 0.  0.
         -6    2    1    2    0  501 -0.13059601210E+03 -0.13087358740E+03  0.95290781695E+03  0.98586361856E+03  0.17236749269E+03 0.  0.
        -24    2    5    5    0    0 -0.24934039818E+02 -0.97777701477E+02  0.34096491610E+03  0.36396652583E+03  0.77668350447E+02 0.  0.
          5    1    3    3  502    0  0.20733608499E+01 -0.30763528224E+02  0.63349957501E+01  0.31826336031E+02  0.47000000000E+01 0. -1.
        -13    1    4    4    0    0  0.29040600635E+02  0.68290080476E+01 -0.11175012427E+02  0.31857067330E+02  0.00000000000E+00 0.  1.
         14    1    4    4    0    0  0.99482050617E+02  0.15480810757E+03  0.75881470295E+02  0.19904830092E+03  0.00000000000E+00 0. -1.
         -5    1    5    5    0  501 -0.10566197228E+03 -0.33095885918E+02  0.61194290084E+03  0.62189709273E+03  0.47000000000E+01 0.  1.
         11    1    6    6    0    0 -0.32245890306E+02 -0.77147285386E+02  0.32808040787E+03  0.33856794756E+03  0.00000000000E+00 0. -1.
        -12    1    6    6    0    0  0.73118504887E+01 -0.20630416091E+02  0.12884508230E+02  0.25398578267E+02  0.00000000000E+00 0.  1.
</event>
<event>
12    1  0.1348628E-002  0.2409581E+03  0.7818608E-02  0.1119156E+00
         -1   -1    0    0    0  501 -0.00000000000E+00  0.00000000000E+00  0.43463603047E+02  0.43463603047E+02  0.00000000000E+00 0. -1.
          1   -1    0    0  502    0  0.00000000000E+00 -0.00000000000E+00 -0.15955249727E+04  0.15955249727E+04  0.00000000000E+00 0.  1.
          6    2    1    2  502    0  0.10892304759E+02 -0.16856601051E+03 -0.11056569152E+04  0.11315315891E+04  0.17132828342E+03 0.  0.
         24    2    3    3    0    0  0.59741849044E+02 -0.15088736059E+03 -0.95370596203E+03  0.97087669555E+03  0.81917103390E+02 0.  0.
         -6    2    1    2    0  501 -0.10892304759E+02  0.16856601051E+03 -0.44640445446E+03  0.50745698670E+03  0.17234417363E+03 0.  0.
        -24    2    5    5    0    0 -0.71640662134E+02  0.14935411944E+03 -0.35354646278E+03  0.39474427091E+03  0.58214264624E+02 0.  0.
          5    1    3    3  502    0 -0.48849544285E+02 -0.17678649916E+02 -0.15195095319E+03  0.16065489353E+03  0.47000000000E+01 0. -1.
        -13    1    4    4    0    0  0.92156632272E+01 -0.34475896338E+02 -0.75035216269E+02  0.83089106131E+02  0.00000000000E+00 0.  1.
         14    1    4    4    0    0  0.50526185817E+02 -0.11641146426E+03 -0.87867074576E+03  0.88778758942E+03  0.00000000000E+00 0. -1.
         -5    1    5    5    0  501  0.60748357375E+02  0.19211891072E+02 -0.92857991678E+02  0.11271271579E+03  0.47000000000E+01 0.  1.
         13    1    6    6    0    0 -0.32907464959E+02  0.65484281969E+02 -0.93653210889E+02  0.11892020999E+03  0.00000000000E+00 0. -1.
        -14    1    6    6    0    0 -0.38733197175E+02  0.83869837468E+02 -0.25989325189E+03  0.27582406092E+03  0.00000000000E+00 0.  1.
</event>
<event>
12    1  0.1348628E-002  0.2147127E+03  0.7818608E-02  0.1137887E+00
         -1   -1    0    0    0  501 -0.00000000000E+00  0.00000000000E+00  0.50710067190E+03  0.50710067190E+03  0.00000000000E+00 0. -1.
          1   -1    0    0  502    0  0.00000000000E+00 -0.00000000000E+00 -0.13873875502E+03  0.13873875502E+03  0.00000000000E+00 0.  1.
          6    2    1    2  502    0 -0.11287955944E+03 -0.63214927960E+02  0.37364408898E+03  0.43082440568E+03  0.17106092845E+03 0.  0.
         24    2    3    3    0    0 -0.11804226757E+03 -0.40813658997E+02  0.37907485334E+03  0.40674010357E+03  0.78358380056E+02 0.  0.
         -6    2    1    2    0  501  0.11287955944E+03  0.63214927960E+02 -0.52821720995E+01  0.21501502125E+03  0.17165557364E+03 0.  0.
        -24    2    5    5    0    0  0.32104987787E+02  0.91015430016E+02 -0.99424718533E+01  0.12933417313E+03  0.85521557812E+02 0.  0.
          5    1    3    3  502    0  0.51627081262E+01 -0.22401268964E+02 -0.54307643624E+01  0.24084302106E+02  0.47000000000E+01 0. -1.
        -11    1    4    4    0    0 -0.55143734858E+02 -0.46405273855E+01  0.69839105314E+02  0.89105929206E+02  0.00000000000E+00 0.  1.
         12    1    4    4    0    0 -0.62898532708E+02 -0.36173131611E+02  0.30923574802E+03  0.31763417436E+03  0.00000000000E+00 0. -1.
         -5    1    5    5    0  501  0.80774571653E+02 -0.27800502055E+02  0.46602997539E+01  0.85680848117E+02  0.47000000000E+01 0.  1.
         11    1    6    6    0    0 -0.13205284492E+01  0.25874320680E+02  0.34908712868E+02  0.43472318781E+02  0.00000000000E+00 0. -1.
        -12    1    6    6    0    0  0.33425516236E+02  0.65141109336E+02 -0.44851184722E+02  0.85861854348E+02  0.00000000000E+00 0.  1.
</event>
<event>
12    1  0.1348628E-002  0.1862624E+03  0.7818608E-02  0.1161876E+00
          1   -1    0    0  502    0  0.00000000000E+00  0.00000000000E+00  0.40966042832E+02  0.40966042832E+02  0.00000000000E+00 0.  1.
         -1   -1    0    0    0  501 -0.00000000000E+00 -0.00000000000E+00 -0.10530767804E+04  0.10530767804E+04  0.00000000000E+00 0. -1.
          6    2    1    2  502    0 -0.65403771789E+02  0.23605854856E+02 -0.74352746782E+03  0.76600725039E+03  0.17058464907E+03 0.  0.
         24    2    3    3    0    0  0.13096054656E+02  0.34844736338E+02 -0.22778411694E+03  0.24418177268E+03  0.79708668798E+02 0.  0.
         -6    2    1    2    0  501  0.65403771789E+02 -0.23605854856E+02 -0.26858326972E+03  0.32803557281E+03  0.17502992461E+03 0.  0.
        -24    2    5    5    0    0  0.77261775674E+02  0.26169618170E+02 -0.10230355922E+03  0.15399752497E+03  0.81209534996E+02 0.  0.
          5    1    3    3  502    0 -0.78499826445E+02 -0.11238881483E+02 -0.51574335088E+03  0.52182547771E+03  0.47000000000E+01 0. -1.
        -13    1    4    4    0    0 -0.23446212760E+02 -0.76236594112E+01 -0.31174515686E+02  0.39745383428E+02  0.00000000000E+00 0.  1.
         14    1    4    4    0    0  0.36542267416E+02  0.42468395750E+02 -0.19660960125E+03  0.20443638925E+03  0.00000000000E+00 0. -1.
         -5    1    5    5    0  501 -0.11858003885E+02 -0.49775473026E+02 -0.16627971050E+03  0.17403804783E+03  0.47000000000E+01 0.  1.
         13    1    6    6    0    0  0.20782756478E+02 -0.15837514284E+02 -0.73389283404E+02  0.77902097174E+02  0.00000000000E+00 0. -1.
        -14    1    6    6    0    0  0.56479019196E+02  0.42007132454E+02 -0.28914275814E+02  0.76095427801E+02  0.00000000000E+00 0.  1.
</event>
<event>
12    1  0.1348628E-002  0.1814448E+03  0.7818608E-02  0.1166412E+00
          1   -1    0    0  502    0  0.00000000000E+00  0.00000000000E+00  0.17056043437E+03  0.17056043437E+03  0.00000000000E+00 0. -1.
         -1   -1    0    0    0  501 -0.00000000000E+00 -0.00000000000E+00 -0.59411479135E+03  0.59411479135E+03  0.00000000000E+00 0.  1.
          6    2    1    2  502    0  0.30460063645E+02  0.48525377403E+02  0.10219683750E+03  0.20864295647E+03  0.17264171558E+03 0.  0.
         24    2    3    3    0    0  0.47345237945E+02 -0.31643569211E+02  0.37460862732E+02  0.10412020516E+03  0.78707139807E+02 0.  0.
         -6    2    1    2    0  501 -0.30460063645E+02 -0.48525377403E+02 -0.52575119449E+03  0.55603226925E+03  0.17168295842E+03 0.  0.
        -24    2    5    5    0    0 -0.25896111797E+02  0.17395221625E+02 -0.14158660111E+03  0.16619784307E+03  0.81251185124E+02 0.  0.
          5    1    3    3  502    0 -0.16885174301E+02  0.80168946614E+02  0.64735974770E+02  0.10452275131E+03  0.47000000000E+01 0. -1.
        -11    1    4    4    0    0 -0.21021523886E+02 -0.13098451306E+02  0.18551478162E+01  0.24837783044E+02  0.00000000000E+00 0.  1.
         12    1    4    4    0    0  0.68366761831E+02 -0.18545117905E+02  0.35605714916E+02  0.79282422113E+02  0.00000000000E+00 0. -1.
         -5    1    5    5    0  501 -0.45639518480E+01 -0.65920599028E+02 -0.38416459338E+03  0.38983442618E+03  0.47000000000E+01 0.  1.
         11    1    6    6    0    0  0.22062493790E+02 -0.93944725240E+01 -0.15205387331E+02  0.28393899875E+02  0.00000000000E+00 0. -1.
        -12    1    6    6    0    0 -0.47958605587E+02  0.26789694149E+02 -0.12638121378E+03  0.13780394319E+03  0.00000000000E+00 0.  1.
</event>
<event>
12    1  0.1348628E-002  0.2107405E+03  0.7818608E-02  0.1140981E+00
          1   -1    0    0  502    0  0.00000000000E+00  0.00000000000E+00  0.77766579299E+03  0.77766579299E+03  0.00000000000E+00 0.  1.
         -1   -1    0    0    0  501 -0.00000000000E+00 -0.00000000000E+00 -0.83683128096E+02  0.83683128096E+02  0.00000000000E+00 0. -1.
          6    2    1    2  502    0  0.11714944501E+03  0.33367423264E+02  0.58921623969E+03  0.62562910602E+03  0.17146026881E+03 0.  0.
         24    2    3    3    0    0  0.11377364303E+03 -0.29609169870E+02  0.46263244274E+03  0.48412647363E+03  0.80799261182E+02 0.  0.
         -6    2    1    2    0  501 -0.11714944501E+03 -0.33367423264E+02  0.10476642520E+03  0.23571981507E+03  0.17248318748E+03 0.  0.
        -24    2    5    5    0    0 -0.29590039020E+02 -0.72594134043E+02  0.76067708099E+02  0.13546468662E+03  0.80118077854E+02 0.  0.
          5    1    3    3  502    0  0.33758019850E+01  0.62976593135E+02  0.12658379695E+03  0.14150263239E+03  0.47000000000E+01 0. -1.
        -11    1    4    4    0    0  0.12996956951E+02 -0.25071817995E+02  0.21327232622E+03  0.21513391662E+03  0.00000000000E+00 0.  1.
         12    1    4    4    0    0  0.10077668608E+03 -0.45373518751E+01  0.24936011652E+03  0.26899255702E+03  0.00000000000E+00 0. -1.
         -5    1    5    5    0  501 -0.87559405995E+02  0.39226710778E+02  0.28698717106E+02  0.10025512845E+03  0.47000000000E+01 0.  1.
         11    1    6    6    0    0 -0.55194782834E+02 -0.42713175888E+02  0.62944484532E+02  0.93983443114E+02  0.00000000000E+00 0. -1.
        -12    1    6    6    0    0  0.25604743814E+02 -0.29880958155E+02  0.13123223567E+02  0.41481243506E+02  0.00000000000E+00 0.  1.
</event>
<event>
12    1  0.1348628E-002  0.2150823E+03  0.7818608E-02  0.1137603E+00
          1   -1    0    0  502    0  0.00000000000E+00  0.00000000000E+00  0.15359202831E+04  0.15359202831E+04  0.00000000000E+00 0. -1.
         -1   -1    0    0    0  501 -0.00000000000E+00 -0.00000000000E+00 -0.55992945807E+02  0.55992945807E+02  0.00000000000E+00 0.  1.
          6    2    1    2  502    0 -0.48765840440E+02 -0.11877582188E+03  0.12764515873E+04  0.12940438704E+04  0.16951424976E+03 0.  0.
         24    2    3    3    0    0 -0.33478203914E+02 -0.14746575022E+03  0.93471380731E+03  0.95073114990E+03  0.85632238044E+02 0.  0.
         -6    2    1    2    0  501  0.48765840440E+02  0.11877582188E+03  0.20347574997E+03  0.29786935844E+03  0.17560743382E+03 0.  0.
        -24    2    5    5    0    0 -0.17947103391E+02  0.12555657992E+03  0.14886035510E+03  0.21125800288E+03  0.79899844684E+02 0.  0.
          5    1    3    3  502    0 -0.15287636527E+02  0.28689928336E+02  0.34173777998E+03  0.34331272054E+03  0.47000000000E+01 0. -1.
        -11    1    4    4    0    0 -0.10768843325E+02  0.39408731881E+01  0.18153362003E+02  0.21471912352E+02  0.00000000000E+00 0.  1.
         12    1    4    4    0    0 -0.22709360589E+02 -0.15140662340E+03  0.91656044531E+03  0.92925923755E+03  0.00000000000E+00 0. -1.
         -5    1    5    5    0  501  0.66712943831E+02 -0.67807580349E+01  0.54615394877E+02  0.86611355559E+02  0.47000000000E+01 0.  1.
         11    1    6    6    0    0 -0.94751571587E+01  0.10985452026E+03  0.70458820659E+02  0.13085197604E+03  0.00000000000E+00 0. -1.
        -12    1    6    6    0    0 -0.84719462320E+01  0.15702059659E+02  0.78401534436E+02  0.80406026842E+02  0.00000000000E+00 0.  1.
</event>
<event>
12    1  0.1348628E-002  0.2203969E+03  0.7818608E-02  0.1133587E+00
         -2   -1    0    0    0  501 -0.00000000000E+00  0.00000000000E+00  0.58277048376E+03  0.58277048376E+03  0.00000000000E+00 0.  1.
          2   -1    0    0  502    0  0.00000000000E+00 -0.00000000000E+00 -0.92378554716E+02  0.92378554716E+02  0.00000000000E+00 0. -1.
          6    2    1    2  502    0  0.17927152691E+02  0.13801086603E+03  0.35276319637E+03  0.41706470389E+03  0.17358776620E+03 0.  0.
         24    2    3    3    0    0 -0.56471481240E+02  0.87768470355E+02  0.18699103373E+03  0.22848592735E+03  0.79673331308E+02 0.  0.
         -6    2    1    2    0  501 -0.17927152691E+02 -0.13801086603E+03  0.13762873268E+03  0.25808433459E+03  0.16821852976E+03 0.  0.
        -24    2    5    5    0    0 -0.40301696838E+02 -0.15880456352E+03  0.95971304413E+02  0.20621498515E+03  0.80442604797E+02 0.  0.
          5    1    3    3  502    0  0.74398633931E+02  0.50242395676E+02  0.16577216264E+03  0.18857877653E+03  0.47000000000E+01 0. -1.
        -13    1    4    4    0    0 -0.50513406271E+02  0.10158766588E+03  0.17760748770E+03  0.21075122244E+03  0.00000000000E+00 0.  1.
         14    1    4    4    0    0 -0.59580749688E+01 -0.13819195527E+02  0.93835460309E+01  0.17734704916E+02  0.00000000000E+00 0. -1.
         -5    1    5    5    0  501  0.22374544147E+02  0.20793697493E+02  0.41657428264E+02  0.51869349435E+02  0.47000000000E+01 0.  1.
         13    1    6    6    0    0 -0.90975137585E+01 -0.30141511258E+01 -0.11065886286E+02  0.14639115509E+02  0.00000000000E+00 0. -1.
        -14    1    6    6    0    0 -0.31204183080E+02 -0.15579041240E+03  0.10703719070E+03  0.19157586964E+03  0.00000000000E+00 0.  1.
</event>
<event>
12    1  0.1348628E-002  0.1860683E+03  0.7818608E-02  0.1162056E+00
          2   -1    0    0  502    0  0.00000000000E+00  0.00000000000E+00  0.18715131990E+04  0.18715131990E+04  0.00000000000E+00 0.  1.
         -2   -1    0    0    0  501 -0.00000000000E+00 -0.00000000000E+00 -0.18898305955E+02  0.18898305955E+02  0.00000000000E+00 0. -1.
          6    2    1    2  502    0  0.27390075057E+01  0.68653356948E+02  0.10617920207E+04  0.10779059921E+04  0.17250578794E+03 0.  0.
         24    2    3    3    0    0  0.66862749536E+02  0.10691318576E+02  0.58403548065E+03  0.59237035612E+03  0.72251398521E+02 0.  0.
         -6    2    1    2    0  501 -0.27390075057E+01 -0.68653356948E+02  0.79082287233E+03  0.81250551290E+03  0.17333091908E+03 0.  0.
        -24    2    5    5    0    0 -0.64415243958E+02 -0.66160736893E+02  0.59172053732E+03  0.60400131365E+03  0.78471815622E+02 0.  0.
          5    1    3    3  502    0 -0.64123742030E+02  0.57962038372E+02  0.47775654008E+03  0.48553563595E+03  0.47000000000E+01 0. -1.
        -13    1    4    4    0    0  0.26957316992E+02  0.22476641090E+00  0.47542150861E+03  0.47618521429E+03  0.00000000000E+00 0.  1.
         14    1    4    4    0    0  0.39905432543E+02  0.10466552165E+02  0.10861397204E+03  0.11618514183E+03  0.00000000000E+00 0. -1.
         -5    1    5    5    0  501  0.61676236452E+02 -0.24926200548E+01  0.19910233502E+03  0.20850419926E+03  0.47000000000E+01 0.  1.
         11    1    6    6    0    0 -0.18584148392E+02  0.69379192595E+01  0.31853296208E+02  0.37525161884E+02  0.00000000000E+00 0. -1.
        -12    1    6    6    0    0 -0.45831095566E+02 -0.73098656153E+02  0.55986724111E+03  0.56647615176E+03  0.00000000000E+00 0.  1.
</event>
<event>
12    1  0.1348628E-002  0.2049948E+03  0.7818608E-02  0.1145592E+00
         -1   -1    0    0    0  501 -0.00000000000E+00  0.00000000000E+00  0.10342337378E+04  0.10342337378E+04  0.00000000000E+00 0.  1.
          1   -1    0    0  502    0  0.00000000000E+00 -0.00000000000E+00 -0.40837715892E+02  0.40837715892E+02  0.00000000000E+00 0. -1.
          6    2    1    2  502    0  0.51334072304E+02  0.99723128003E+02  0.45941706061E+03  0.50322443616E+03  0.17202008119E+03 0.  0.
         24    2    3    3    0    0  0.88535082007E+02  0.11353983103E+03  0.39303838901E+03  0.42574518443E+03  0.77781957114E+02 0.  0.
         -6    2    1    2    0  501 -0.51334072304E+02 -0.99723128003E+02  0.53397896133E+03  0.57184701757E+03  0.17115954871E+03 0.  0.
        -24    2    5    5    0    0  0.13563649553E+02 -0.37999930360E+02  0.36910427857E+03  0.38415786379E+03  0.98546073266E+02 0.  0.
          5    1    3    3  502    0 -0.37201009703E+02 -0.13816703026E+02  0.66378671597E+02  0.77479251728E+02  0.47000000000E+01 0. -1.
        -11    1    4    4    0    0  0.83297685551E+02  0.47201869116E+02  0.25822857418E+03  0.27540609541E+03  0.00000000000E+00 0.  1.
         12    1    4    4    0    0  0.52373964563E+01  0.66337961912E+02  0.13480981483E+03  0.15033908902E+03  0.00000000000E+00 0. -1.
         -5    1    5    5    0  501 -0.64897721857E+02 -0.61723197643E+02  0.16487468276E+03  0.18768915378E+03  0.47000000000E+01 0.  1.
         11    1    6    6    0    0 -0.67594576520E+01  0.31719411145E+02  0.86749725191E+02  0.92613854967E+02  0.00000000000E+00 0. -1.
        -12    1    6    6    0    0  0.20323107205E+02 -0.69719341505E+02  0.28235455338E+03  0.29154400882E+03  0.00000000000E+00 0.  1.
</event>
<event>
12    1  0.1348628E-002  0.5626339E+03  0.7818608E-02  0.9986113E-01
         -1   -1    0    0    0  501 -0.00000000000E+00  0.00000000000E+00  0.10854103043E+04  0.10854103043E+04  0.00000000000E+00 0. -1.
          1   -1    0    0  502    0  0.00000000000E+00 -0.00000000000E+00 -0.35001039314E+03  0.35001039314E+03  0.00000000000E+00 0.  1.
          6    2    1    2  502    0  0.29310804947E+03 -0.44862906969E+03  0.74734161471E+02  0.56777348166E+03  0.17204987867E+03 0.  0.
         24    2    3    3    0    0  0.23199227582E+03 -0.23342168491E+03  0.60171207954E+02  0.34353359701E+03  0.78029859571E+02 0.  0.
         -6    2    1    2    0  501 -0.29310804947E+03  0.44862906969E+03  0.66066574971E+03  0.86764721580E+03  0.17073982373E+03 0.  0.
        -24    2    5    5    0    0 -0.68502419040E+02  0.20116767064E+03  0.23230782147E+03  0.32432646530E+03  0.77844197277E+02 0.  0.
          5    1    3    3  502    0  0.61115773654E+02 -0.21520738477E+03  0.14562953517E+02  0.22423988464E+03  0.47000000000E+01 0. -1.
        -11    1    4    4    0    0  0.68679462558E+02 -0.48290433715E+02 -0.15395730033E+02  0.85357267230E+02  0.00000000000E+00 0.  1.
         12    1    4    4    0    0  0.16331281326E+03 -0.18513125120E+03  0.75566937986E+02  0.25817632978E+03  0.00000000000E+00 0. -1.
         -5    1    5    5    0  501 -0.22460563043E+03  0.24746139905E+03  0.42835792824E+03  0.54332075050E+03  0.47000000000E+01 0.  1.
         13    1    6    6    0    0  0.15784572584E+01  0.83351654429E+02  0.12494384144E+03  0.15020304038E+03  0.00000000000E+00 0. -1.
        -14    1    6    6    0    0 -0.70080876299E+02  0.11781601621E+03  0.10736398003E+03  0.17412342492E+03  0.00000000000E+00 0.  1.
</event>
<event>
12    1  0.1348628E-002  0.1910459E+03  0.7818608E-02  0.1157521E+00
          3   -1    0    0  502    0  0.00000000000E+00  0.00000000000E+00  0.36663127021E+03  0.36663127021E+03  0.00000000000E+00 0. -1.
         -3   -1    0    0    0  501 -0.00000000000E+00 -0.00000000000E+00 -0.10050978627E+03  0.10050978627E+03  0.00000000000E+00 0.  1.
          6    2    1    2  502    0  0.24236808058E+02  0.75245595907E+02  0.15459713710E+03  0.24444103015E+03  0.17205179410E+03 0.  0.
         24    2    3    3    0    0 -0.80309587435E+01  0.87872116037E+02  0.41850452681E+02  0.12639636643E+03  0.80240737678E+02 0.  0.
         -6    2    1    2    0  501 -0.24236808058E+02 -0.75245595907E+02  0.11152434684E+03  0.22270002633E+03  0.17580756304E+03 0.  0.
        -24    2    5    5    0    0 -0.77391454246E+02 -0.30943293571E+02  0.98144915010E+02  0.15206568908E+03  0.80898855642E+02 0.  0.
          5    1    3    3  502    0  0.32267766802E+02 -0.12626520131E+02  0.11274668442E+03  0.11804466372E+03  0.47000000000E+01 0. -1.
        -11    1    4    4    0    0  0.31307065785E+02  0.40203541109E+02 -0.13785548711E+01  0.50974086547E+02  0.00000000000E+00 0.  1.
         12    1    4    4    0    0 -0.39338024529E+02  0.47668574928E+02  0.43229007552E+02  0.75422279888E+02  0.00000000000E+00 0. -1.
         -5    1    5    5    0  501  0.53154646188E+02 -0.44302302335E+02  0.13379431826E+02  0.70634337255E+02  0.47000000000E+01 0.  1.
         11    1    6    6    0    0 -0.41042358539E+02 -0.43024298758E+02  0.96963817601E+02  0.11374334003E+03  0.00000000000E+00 0. -1.
        -12    1    6    6    0    0 -0.36349095707E+02  0.12081005186E+02  0.11810974092E+01  0.38322349043E+02  0.00000000000E+00 0.  1.
</event>
<event>
12    1  0.1348628E-002  0.2537385E+03  0.7818608E-02  0.1110965E+00
         -1   -1    0    0    0  501 -0.00000000000E+00  0.00000000000E+00  0.32295356592E+03  0.32295356592E+03  0.00000000000E+00 0. -1.
          1   -1    0    0  502    0  0.00000000000E+00 -0.00000000000E+00 -0.22077072713E+03  0.22077072713E+03  0.00000000000E+00 0.  1.
          6    2    1    2  502    0  0.18697737529E+03  0.81404669469E+01 -0.33588869572E+02  0.25588456329E+03  0.17123636150E+03 0.  0.
         24    2    3    3    0    0  0.65054281238E+02  0.33987804207E+02  0.34286535729E+02  0.11388989314E+03  0.80050676981E+02 0.  0.
         -6    2    1    2    0  501 -0.18697737529E+03 -0.81404669469E+01  0.13577170837E+03  0.28783972976E+03  0.17143788135E+03 0.  0.
        -24    2    5    5    0    0 -0.15774991049E+03  0.24159407034E+02  0.15516605709E+03  0.23992566794E+03  0.89549481592E+02 0.  0.
          5    1    3    3  502    0  0.12192309405E+03 -0.25847337261E+02 -0.67875405301E+02  0.14199467015E+03  0.47000000000E+01 0. -1.
        -13    1    4    4    0    0  0.73004629865E+02  0.46731395755E+02  0.12720719527E+02  0.87608881035E+02  0.00000000000E+00 0.  1.
         14    1    4    4    0    0 -0.79503486274E+01 -0.12743591548E+02  0.21565816201E+02  0.26281012105E+02  0.00000000000E+00 0. -1.
         -5    1    5    5    0  501 -0.29227464794E+02 -0.32299873980E+02 -0.19394348727E+02  0.47914061819E+02  0.47000000000E+01 0.  1.
         11    1    6    6    0    0 -0.42548220642E+02 -0.53518451052E+01  0.10004921079E+03  0.10885236748E+03  0.00000000000E+00 0. -1.
        -12    1    6    6    0    0 -0.11520168985E+03  0.29511252139E+02  0.55116846302E+02  0.13107330046E+03  0.00000000000E+00 0.  1.
</event>
<event>
12    1  0.1348628E-002  0.1937735E+03  0.7818608E-02  0.1155101E+00
         -2   -1    0    0    0  501 -0.00000000000E+00  0.00000000000E+00  0.28175272437E+03  0.28175272437E+03  0.00000000000E+00 0.  1.
          2   -1    0    0  502    0  0.00000000000E+00 -0.00000000000E+00 -0.17583875089E+03  0.17583875089E+03  0.00000000000E+00 0. -1.
          6    2    1    2  502    0 -0.62863573802E+01 -0.89448252841E+02 -0.59512481514E+02  0.20320196136E+03  0.17236238980E+03 0.  0.
         24    2    3    3    0    0 -0.70425877331E+02 -0.58461079255E+02 -0.23010031741E+02  0.12302339948E+03  0.78916368850E+02 0.  0.
         -6    2    1    2    0  501  0.62863573802E+01  0.89448252841E+02  0.16542645500E+03  0.25438951390E+03  0.17119463935E+03 0.  0.
        -24    2    5    5    0    0  0.36924232484E+02 -0.70743938389E+01  0.51082382365E+02  0.10157604048E+03  0.79340003897E+02 0.  0.
          5    1    3    3  502    0  0.64139519951E+02 -0.30987173585E+02 -0.36502449773E+02  0.80178561884E+02  0.47000000000E+01 0. -1.
        -11    1    4    4    0    0 -0.31252709263E+02 -0.41556547354E+02  0.25924458574E+02  0.58101256584E+02  0.00000000000E+00 0.  1.
         12    1    4    4    0    0 -0.39173168068E+02 -0.16904531901E+02 -0.48934490315E+02  0.64922142892E+02  0.00000000000E+00 0. -1.
         -5    1    5    5    0  501 -0.30637875104E+02  0.96522646679E+02  0.11434407263E+03  0.15281347342E+03  0.47000000000E+01 0.  1.
         13    1    6    6    0    0  0.60004564531E+02 -0.41010524837E+01  0.21354523531E+02  0.63823052820E+02  0.00000000000E+00 0. -1.
        -14    1    6    6    0    0 -0.23080332047E+02 -0.29733413552E+01  0.29727858834E+02  0.37752987658E+02  0.00000000000E+00 0.  1.
</event>
<event>
12    1  0.1348628E-002  0.2810793E+03  0.7818608E-02  0.1095101E+00
         -2   -1    0    0    0  501 -0.00000000000E+00  0.00000000000E+00  0.11582621723E+03  0.11582621723E+03  0.00000000000E+00 0.  1.
          2   -1    0    0  502    0  0.00000000000E+00 -0.00000000000E+00 -0.68211188864E+03  0.68211188864E+03  0.00000000000E+00 0. -1.
          6    2    1    2  502    0 -0.17280020327E+03 -0.14064851372E+03 -0.28472551625E+03  0.40054201279E+03  0.17240466855E+03 0.  0.
         24    2    3    3    0    0 -0.19612943923E+02 -0.75166325947E+02 -0.13705012725E+03  0.17786654521E+03  0.82578001915E+02 0.  0.
         -6    2    1    2    0  501  0.17280020327E+03  0.14064851372E+03 -0.28156015516E+03  0.39739609308E+03  0.17031036128E+03 0.  0.
        -24    2    5    5    0    0  0.24497549767E+02  0.11683816342E+02 -0.81675717093E+02  0.11703659389E+03  0.79309520469E+02 0.  0.
          5    1    3    3  502    0 -0.15318725935E+03 -0.65482187778E+02 -0.14767538901E+03  0.22267546758E+03  0.47000000000E+01 0. -1.
        -11    1    4    4    0    0 -0.25837013443E+02 -0.12879679979E+02 -0.19093962991E+01  0.28932390400E+02  0.00000000000E+00 0.  1.
         12    1    4    4    0    0  0.62240695202E+01 -0.62286645968E+02 -0.13514073095E+03  0.14893415481E+03  0.00000000000E+00 0. -1.
         -5    1    5    5    0  501  0.14830265351E+03  0.12896469738E+03 -0.19988443807E+03  0.28035949920E+03  0.47000000000E+01 0.  1.
         11    1    6    6    0    0  0.42178644571E+02  0.33354984510E+02 -0.65430601783E+02  0.84692128909E+02  0.00000000000E+00 0. -1.
        -12    1    6    6    0    0 -0.17681094804E+02 -0.21671168168E+02 -0.16245115310E+02  0.32344464977E+02  0.00000000000E+00 0.  1.
</event>
<event>
12    1  0.1348628E-002  0.1780105E+03  0.7818608E-02  0.1169743E+00
         -2   -1    0    0    0  501 -0.00000000000E+00  0.00000000000E+00  0.23338810171E+03  0.23338810171E+03  0.00000000000E+00 0.  1.
          2   -1    0    0  502    0  0.00000000000E+00 -0.00000000000E+00 -0.16063152883E+03  0.16063152883E+03  0.00000000000E+00 0. -1.
          6    2    1    2  502    0 -0.26380524080E+02 -0.34256745802E+02 -0.41109651306E+02  0.18277484291E+03  0.17276337310E+03 0.  0.
         24    2    3    3    0    0 -0.56532528856E+02 -0.83612321125E+02 -0.49083805729E+02  0.12420186837E+03  0.53197152739E+02 0.  0.
         -6    2    1    2    0  501  0.26380524080E+02  0.34256745802E+02  0.11386622419E+03  0.21124478763E+03  0.17259602141E+03 0.  0.
        -24    2    5    5    0    0 -0.28489459326E+02  0.62238941890E+02  0.36824706408E+02  0.11249660366E+03  0.81327065923E+02 0.  0.
          5    1    3    3  502    0  0.30152004776E+02  0.49355575322E+02  0.79741544227E+01  0.58572974537E+02  0.47000000000E+01 0. -1.
        -11    1    4    4    0    0 -0.14560553748E+02 -0.57064868004E+02 -0.45476918810E+02  0.74408057562E+02  0.00000000000E+00 0.  1.
         12    1    4    4    0    0 -0.41971975108E+02 -0.26547453121E+02 -0.36068869185E+01  0.49793810810E+02  0.00000000000E+00 0. -1.
         -5    1    5    5    0  501  0.54869983406E+02 -0.27982196087E+02  0.77041517782E+02  0.98748183978E+02  0.47000000000E+01 0.  1.
         13    1    6    6    0    0  0.82276905524E+01  0.58938110969E+02  0.45155052734E+02  0.74701904954E+02  0.00000000000E+00 0. -1.
        -14    1    6    6    0    0 -0.36717149878E+02  0.33008309210E+01 -0.83303463259E+01  0.37794698701E+02  0.00000000000E+00 0.  1.
</event>
<event>
12    1  0.1348628E-002  0.2570436E+03  0.7818608E-02  0.1108933E+00
          1   -1    0    0  502    0  0.00000000000E+00  0.00000000000E+00  0.44813562125E+03  0.44813562125E+03  0.00000000000E+00 0. -1.
         -1   -1    0    0    0  501 -0.00000000000E+00 -0.00000000000E+00 -0.17956178357E+03  0.17956178357E+03  0.00000000000E+00 0.  1.
          6    2    1    2  502    0  0.65852807658E+02  0.17908007301E+03  0.26709570798E+03  0.37078381281E+03  0.17243623110E+03 0.  0.
         24    2    3    3    0    0  0.71446054867E+02  0.10205356138E+03  0.25803069565E+03  0.29288238563E+03  0.60669463198E+02 0.  0.
         -6    2    1    2    0  501 -0.65852807658E+02 -0.17908007301E+03  0.14781297105E+01  0.25691359202E+03  0.17203529891E+03 0.  0.
        -24    2    5    5    0    0  0.18112812921E+02 -0.69083128740E+02  0.36420800586E+02  0.11411081391E+03  0.81204990411E+02 0.  0.
          5    1    3    3  502    0 -0.55932472093E+01  0.77026511629E+02  0.90650123212E+01  0.77901427178E+02  0.47000000000E+01 0. -1.
        -13    1    4    4    0    0  0.24320000175E+02  0.25073766235E+01  0.24144151284E+02  0.34361161029E+02  0.00000000000E+00 0.  1.
         14    1    4    4    0    0  0.47126054692E+02  0.99546184755E+02  0.23388654437E+03  0.25852122460E+03  0.00000000000E+00 0. -1.
         -5    1    5    5    0  501 -0.83965620579E+02 -0.10999694427E+03 -0.34942670876E+02  0.14280277811E+03  0.47000000000E+01 0.  1.
         13    1    6    6    0    0  0.10473772777E+02 -0.79746500943E+02  0.50418534343E+02  0.94927514105E+02  0.00000000000E+00 0. -1.
        -14    1    6    6    0    0  0.76390401442E+01  0.10663372204E+02 -0.13997733757E+02  0.19183299805E+02  0.00000000000E+00 0.  1.
</event>
<event>
12    1  0.1348628E-002  0.1901157E+03  0.7818608E-02  0.1158357E+00
         -4   -1    0    0    0  501 -0.00000000000E+00  0.00000000000E+00  0.20432382264E+04  0.20432382264E+04  0.00000000000E+00 0. -1.
          4   -1    0    0  502    0  0.00000000000E+00 -0.00000000000E+00 -0.17702756277E+02  0.17702756277E+02  0.00000000000E+00 0.  1.
          6    2    1    2  502    0 -0.23598282371E+02 -0.77014951053E+02  0.98444857281E+03  0.10026318634E+04  0.17217281844E+03 0.  0.
         24    2    3    3    0    0  0.43890641877E+01 -0.10223747559E+03  0.90895537501E+03  0.91812872604E+03  0.79301440898E+02 0.  0.
         -6    2    1    2    0  501  0.23598282371E+02  0.77014951053E+02  0.10410868973E+04  0.10583091192E+04  0.17224425255E+03 0.  0.
        -24    2    5    5    0    0  0.62482689697E+02  0.57651243425E+02  0.94175445727E+03  0.94979195955E+03  0.89305969898E+02 0.  0.
          5    1    3    3  502    0 -0.27987346558E+02  0.25222524536E+02  0.75493197795E+02  0.84503137366E+02  0.47000000000E+01 0. -1.
        -11    1    4    4    0    0  0.44259193366E+01 -0.78973114352E+02  0.35586839435E+03  0.36455267884E+03  0.00000000000E+00 0.  1.
         12    1    4    4    0    0 -0.36855148943E-01 -0.23264361237E+02  0.55308698066E+03  0.55357604721E+03  0.00000000000E+00 0. -1.
         -5    1    5    5    0  501 -0.38884407326E+02  0.19363707628E+02  0.99332440016E+02  0.10851715968E+03  0.47000000000E+01 0.  1.
         11    1    6    6    0    0  0.68161746682E+02  0.14537050419E+02  0.37863338188E+03  0.38499426934E+03  0.00000000000E+00 0. -1.
        -12    1    6    6    0    0 -0.56790569850E+01  0.43114193006E+02  0.56312107539E+03  0.56479769022E+03  0.00000000000E+00 0.  1.
</event>
<event>
12    1  0.1348628E-002  0.1741531E+03  0.7818608E-02  0.1173585E+00
          1   -1    0    0  502    0  0.00000000000E+00  0.00000000000E+00  0.92917307087E+03  0.92917307087E+03  0.00000000000E+00 0.  1.
         -1   -1    0    0    0  501 -0.00000000000E+00 -0.00000000000E+00 -0.33560370720E+02  0.33560370720E+02  0.00000000000E+00 0. -1.
          6    2    1    2  502    0 -0.23912799734E+02 -0.67610127647E+01  0.52609553061E+03  0.55400081484E+03  0.17182218202E+03 0.  0.
         24    2    3    3    0    0  0.36103347373E+02  0.18217115557E+02  0.41883365841E+03  0.42848968371E+03  0.80910201124E+02 0.  0.
         -6    2    1    2    0  501  0.23912799734E+02  0.67610127647E+01  0.36951716954E+03  0.40873262675E+03  0.17292162473E+03 0.  0.
        -24    2    5    5    0    0  0.55684832670E+02  0.25394362079E+02  0.11215645160E+03  0.14870706469E+03  0.76085788681E+02 0.  0.
          5    1    3    3  502    0 -0.60016147107E+02 -0.24978128322E+02  0.10726187221E+03  0.12551113113E+03  0.47000000000E+01 0. -1.
        -11    1    4    4    0    0 -0.69804527186E+01 -0.14144809830E+02  0.26541758745E+03  0.26588587418E+03  0.00000000000E+00 0.  1.
         12    1    4    4    0    0  0.43083800092E+02  0.32361925387E+02  0.15341607096E+03  0.16260380953E+03  0.00000000000E+00 0. -1.
         -5    1    5    5    0  501 -0.31772032936E+02 -0.18633349314E+02  0.25736071794E+03  0.26002556205E+03  0.47000000000E+01 0.  1.
         13    1    6    6    0    0  0.39475246997E+02  0.46515979595E+02  0.43103356720E+02  0.74698934689E+02  0.00000000000E+00 0. -1.
        -14    1    6    6    0    0  0.16209585673E+02 -0.21121617516E+02  0.69053094880E+02  0.74008130004E+02  0.00000000000E+00 0.  1.
</event>
<event>
12    1  0.1348628E-002  0.2007001E+03  0.7818608E-02  0.1149150E+00
         -2   -1    0    0    0  501 -0.00000000000E+00  0.00000000000E+00  0.13151100768E+04  0.13151100768E+04  0.00000000000E+00 0. -1.
          2   -1    0    0  502    0  0.00000000000E+00 -0.00000000000E+00 -0.38469753709E+02  0.38469753709E+02  0.00000000000E+00 0.  1.
          6    2    1    2  502    0 -0.95920019961E+02 -0.37610079318E+02  0.94334819778E+03  0.96441944287E+03  0.17199962567E+03 0.  0.
         24    2    3    3    0    0  0.11585790282E+02 -0.31707387346E+02  0.30687600246E+03  0.31888765711E+03  0.79855294264E+02 0.  0.
         -6    2    1    2    0  501  0.95920019961E+02  0.37610079318E+02  0.33329212527E+03  0.38916038760E+03  0.17247318115E+03 0.  0.
        -24    2    5    5    0    0 -0.88372733134E+01 -0.14746639407E+02  0.12446542662E+03  0.14969014611E+03  0.81362993096E+02 0.  0.
          5    1    3    3  502    0 -0.10750581024E+03 -0.59026919727E+01  0.63647219532E+03  0.64553178576E+03  0.47000000000E+01 0. -1.
        -13    1    4    4    0    0  0.39817179958E+02 -0.26169764631E+02  0.25639087870E+03  0.26078064936E+03  0.00000000000E+00 0.  1.
         14    1    4    4    0    0 -0.28231389676E+02 -0.55376227150E+01  0.50485123757E+02  0.58107007746E+02  0.00000000000E+00 0. -1.
         -5    1    5    5    0  501  0.10475729327E+03  0.52356718726E+02  0.20882669865E+03  0.23947024149E+03  0.47000000000E+01 0.  1.
         11    1    6    6    0    0  0.47688114956E+01 -0.31285688945E+02  0.12430787718E+03  0.12827308457E+03  0.00000000000E+00 0. -1.
        -12    1    6    6    0    0 -0.13606084809E+02  0.16539049538E+02  0.15754944460E+00  0.21417061546E+02  0.00000000000E+00 0.  1.
</event>
<event>
12    1  0.1348628E-002  0.3481048E+03  0.7818608E-02  0.1063396E+00
          2   -1    0    0  502    0  0.00000000000E+00  0.00000000000E+00  0.10462052952E+04  0.10462052952E+04  0.00000000000E+00 0. -1.
         -2   -1    0    0    0  501 -0.00000000000E+00 -0.00000000000E+00 -0.25120689441E+03  0.25120689441E+03  0.00000000000E+00 0.  1.
          6    2    1    2  502    0 -0.70556552048E+02  0.29469965932E+03 -0.78551763100E+02  0.35717961545E+03  0.17199064501E+03 0.  0.
         24    2    3    3    0    0  0.16801118093E+01  0.48496062604E+02 -0.26282323622E+02  0.95285493828E+02  0.77678014490E+02 0.  0.
         -6    2    1    2    0  501  0.70556552048E+02 -0.29469965932E+03  0.87355016391E+03  0.94023257418E+03  0.17064960718E+03 0.  0.
        -24    2    5    5    0    0  0.66851260555E+02 -0.78931475286E+02  0.37139509522E+03  0.39365097785E+03  0.79545627047E+02 0.  0.
          5    1    3    3  502    0 -0.72236663858E+02  0.24620359671E+03 -0.52269439478E+02  0.26189412163E+03  0.47000000000E+01 0. -1.
        -13    1    4    4    0    0  0.86277533600E+01  0.68396797777E+02 -0.27383118186E+02  0.74178131790E+02  0.00000000000E+00 0.  1.
         14    1    4    4    0    0 -0.69476415507E+01 -0.19900735173E+02  0.11007945634E+01  0.21107362038E+02  0.00000000000E+00 0. -1.
         -5    1    5    5    0  501  0.37052914937E+01 -0.21576818403E+03  0.50215506869E+03  0.54658159632E+03  0.47000000000E+01 0.  1.
         13    1    6    6    0    0 -0.88896480347E+01 -0.54579329992E+01  0.12725868851E+03  0.12768550691E+03  0.00000000000E+00 0. -1.
        -14    1    6    6    0    0  0.75740908589E+02 -0.73473542287E+02  0.24413640672E+03  0.26596547094E+03  0.00000000000E+00 0.  1.
</event>
<event>
12    1  0.1348628E-002  0.1716246E+03  0.7818608E-02  0.1176164E+00
          2   -1    0    0  502    0  0.00000000000E+00  0.00000000000E+00  0.99558639359E+03  0.99558639359E+03  0.00000000000E+00 0. -1.
         -2   -1    0    0    0  501 -0.00000000000E+00 -0.00000000000E+00 -0.34502941057E+02  0.34502941057E+02  0.00000000000E+00 0.  1.
          6    2    1    2  502    0 -0.85568532539E+01  0.72042352221E+01  0.28537586377E+03  0.33285179604E+03  0.17095559003E+03 0.  0.
         24    2    3    3    0    0  0.13879280695E+02  0.55025231226E+02  0.66973585928E+02  0.10810333057E+03  0.63090873857E+02 0.  0.
         -6    2    1    2    0  501  0.85568532539E+01 -0.72042352221E+01  0.67570758876E+03  0.69723753860E+03  0.17156432900E+03 0.  0.
        -24    2    5    5    0    0 -0.32781982031E+02 -0.19341862056E+02  0.62611808304E+03  0.63137836790E+03  0.71875055275E+02 0.  0.
          5    1    3    3  502    0 -0.22436133949E+02 -0.47820996003E+02  0.21840227784E+03  0.22474846547E+03  0.47000000000E+01 0. -1.
        -13    1    4    4    0    0 -0.17376280848E+02  0.14430043700E+02 -0.14396376419E+01  0.22632583897E+02  0.00000000000E+00 0.  1.
         14    1    4    4    0    0  0.31255561543E+02  0.40595187525E+02  0.68413223570E+02  0.85470746673E+02  0.00000000000E+00 0. -1.
         -5    1    5    5    0  501  0.41338835285E+02  0.12137626834E+02  0.49589505721E+02  0.65859170702E+02  0.47000000000E+01 0.  1.
         11    1    6    6    0    0  0.19201472688E+02  0.26576980718E+01  0.28162615413E+03  0.28229249123E+03  0.00000000000E+00 0. -1.
        -12    1    6    6    0    0 -0.51983454719E+02 -0.21999560128E+02  0.34449192891E+03  0.34908587667E+03  0.00000000000E+00 0.  1.
</event>
<event>
12    1  0.1348628E-002  0.1838574E+03  0.7818608E-02  0.1164121E+00
         -2   -1    0    0    0  501 -0.00000000000E+00  0.00000000000E+00  0.58858513298E+02  0.58858513298E+02  0.00000000000E+00 0. -1.
          2   -1    0    0  502    0  0.00000000000E+00 -0.00000000000E+00 -0.60059344701E+03  0.60059344701E+03  0.00000000000E+00 0.  1.
          6    2    1    2  502    0 -0.20361854304E+02 -0.61749834771E+02 -0.20217283572E+03  0.27340065147E+03  0.17218133904E+03 0.  0.
         24    2    3    3    0    0 -0.15083315226E+02 -0.84019474042E+01 -0.20488189992E+03  0.21951847362E+03  0.76900378598E+02 0.  0.
         -6    2    1    2    0  501  0.20361854304E+02  0.61749834771E+02 -0.33956209799E+03  0.38605130884E+03  0.17177178889E+03 0.  0.
        -24    2    5    5    0    0  0.53129743423E+02 -0.17609974073E+02 -0.18438146921E+03  0.20863983411E+03  0.80007333202E+02 0.  0.
          5    1    3    3  502    0 -0.52785390784E+01 -0.53347887366E+02  0.27090641923E+01  0.53882177852E+02  0.47000000000E+01 0. -1.
        -11    1    4    4    0    0  0.73111001978E+01 -0.16644188863E+02 -0.19109756920E+03  0.19196031404E+03  0.00000000000E+00 0.  1.
         12    1    4    4    0    0 -0.22394415424E+02  0.82422414593E+01 -0.13784330712E+02  0.27558159583E+02  0.00000000000E+00 0. -1.
         -5    1    5    5    0  501 -0.32767889119E+02  0.79359808844E+02 -0.15518062878E+03  0.17741147473E+03  0.47000000000E+01 0.  1.
         11    1    6    6    0    0 -0.15282127563E+02  0.33612474461E+01 -0.65693073137E+01  0.16970480424E+02  0.00000000000E+00 0. -1.
        -12    1    6    6    0    0  0.68411870986E+02 -0.20971221520E+02 -0.17781216189E+03  0.19166935368E+03  0.00000000000E+00 0.  1.
</event>
<event>
12    1  0.1348628E-002  0.1885483E+03  0.7818608E-02  0.1159777E+00
          2   -1    0    0  502    0  0.00000000000E+00  0.00000000000E+00  0.40467893812E+03  0.40467893812E+03  0.00000000000E+00 0. -1.
         -2   -1    0    0    0  501 -0.00000000000E+00 -0.00000000000E+00 -0.92152646778E+02  0.92152646778E+02  0.00000000000E+00 0.  1.
          6    2    1    2  502    0  0.77958046908E+02  0.80293341275E+01  0.20919676529E+03  0.28100342006E+03  0.17046321655E+03 0.  0.
         24    2    3    3    0    0 -0.14091528943E+02  0.40367109792E+02  0.10105926645E+03  0.13528223148E+03  0.79121628370E+02 0.  0.
         -6    2    1    2    0  501 -0.77958046908E+02 -0.80293341275E+01  0.10332952606E+03  0.21582816484E+03  0.17251921197E+03 0.  0.
        -24    2    5    5    0    0 -0.11723418925E+03 -0.97874260360E+01  0.10743603810E+03  0.17602038060E+03  0.74839984429E+02 0.  0.
          5    1    3    3  502    0  0.92049575850E+02 -0.32337775665E+02  0.10813749883E+03  0.14572118859E+03  0.47000000000E+01 0. -1.
        -13    1    4    4    0    0  0.15113060426E+01 -0.23721448418E+01 -0.12570854445E+02  0.12881672973E+02  0.00000000000E+00 0.  1.
         14    1    4    4    0    0 -0.15602834985E+02  0.42739254634E+02  0.11363012090E+03  0.12240055850E+03  0.00000000000E+00 0. -1.
         -5    1    5    5    0  501  0.39276142341E+02  0.17580919085E+01 -0.41065120399E+01  0.39807784232E+02  0.47000000000E+01 0.  1.
         13    1    6    6    0    0 -0.48181794209E+02  0.14595047042E+02  0.56949120844E+01  0.50664906149E+02  0.00000000000E+00 0. -1.
        -14    1    6    6    0    0 -0.69052395039E+02 -0.24382473078E+02  0.10174112601E+03  0.12535547446E+03  0.00000000000E+00 0.  1.
</event>
<event>
12    1  0.1348628E-002  0.1855291E+03  0.7818608E-02  0.1162557E+00
         -1   -1    0    0    0  501 -0.00000000000E+00  0.00000000000E+00  0.70759069448E+02  0.70759069448E+02  0.00000000000E+00 0. -1.
          1   -1    0    0  502    0  0.00000000000E+00 -0.00000000000E+00 -0.52176575810E+03  0.52176575810E+03  0.00000000000E+00 0.  1.
          6    2    1    2  502    0 -0.30115342535E+02  0.46269172943E+02 -0.29725920559E+03  0.34811928503E+03  0.17255790646E+03 0.  0.
         24    2    3    3    0    0 -0.31515041439E+01  0.90445032835E+02 -0.25243400846E+03  0.27949025709E+03  0.78750487234E+02 0.  0.
         -6    2    1    2    0  501  0.30115342535E+02 -0.46269172943E+02 -0.15374748307E+03  0.24440554252E+03  0.18179111762E+03 0.  0.
        -24    2    5    5    0    0 -0.13287567888E+02  0.40471709540E+02 -0.56395350251E+02  0.10690164770E+03  0.80206034794E+02 0.  0.
          5    1    3    3  502    0 -0.26963838391E+02 -0.44175859892E+02 -0.44825197124E+02  0.68629027934E+02  0.47000000000E+01 0. -1.
        -13    1    4    4    0    0 -0.35535713270E+02  0.16444493305E+02 -0.85542296811E+02  0.94078120843E+02  0.00000000000E+00 0.  1.
         14    1    4    4    0    0  0.32384209126E+02  0.74000539530E+02 -0.16689171165E+03  0.18541213625E+03  0.00000000000E+00 0. -1.
         -5    1    5    5    0  501  0.43402910423E+02 -0.86740882483E+02 -0.97352132817E+02  0.13750389482E+03  0.47000000000E+01 0.  1.
         11    1    6    6    0    0  0.28751581804E+02 -0.39272874879E+01 -0.24281946383E+02  0.37837679149E+02  0.00000000000E+00 0. -1.
        -12    1    6    6    0    0 -0.42039149692E+02  0.44398997028E+02 -0.32113403868E+02  0.69063968550E+02  0.00000000000E+00 0.  1.
</event>
<event>
12    1  0.1348628E-002  0.2138480E+03  0.7818608E-02  0.1138555E+00
         -3   -1    0    0    0  501 -0.00000000000E+00  0.00000000000E+00  0.10995213587E+04  0.10995213587E+04  0.00000000000E+00 0.  1.
          3   -1    0    0  502    0  0.00000000000E+00 -0.00000000000E+00 -0.50648365723E+02  0.50648365723E+02  0.00000000000E+00 0. -1.
          6    2    1    2  502    0  0.10076742275E+03  0.74448584790E+02  0.28485862624E+03  0.35726425288E+03  0.17548972670E+03 0.  0.
         24    2    3    3    0    0  0.13698459955E+03  0.39450973640E+02  0.23523509437E+03  0.28640452104E+03  0.79817543253E+02 0.  0.
         -6    2    1    2    0  501 -0.10076742275E+03 -0.74448584790E+02  0.76401436670E+03  0.79290547150E+03  0.17112705501E+03 0.  0.
        -24    2    5    5    0    0 -0.98343243590E+02 -0.11285847406E+03  0.55733974960E+03  0.58262545917E+03  0.80102437239E+02 0.  0.
          5    1    3    3  502    0 -0.36217176803E+02  0.34997611150E+02  0.49623531872E+02  0.70859731846E+02  0.47000000000E+01 0. -1.
        -13    1    4    4    0    0  0.38952670328E+02 -0.24721983285E+02  0.70356428367E+02  0.84133905150E+02  0.00000000000E+00 0.  1.
         14    1    4    4    0    0  0.98031929226E+02  0.64172956925E+02  0.16487866601E+03  0.20227061589E+03  0.00000000000E+00 0. -1.
         -5    1    5    5    0  501 -0.24241791605E+01  0.38409889271E+02  0.20667461709E+03  0.21028001234E+03  0.47000000000E+01 0.  1.
         11    1    6    6    0    0  0.64870119280E+01  0.40144601645E+01  0.70845980980E+01  0.10410991517E+02  0.00000000000E+00 0. -1.
        -12    1    6    6    0    0 -0.10483025552E+03 -0.11687293423E+03  0.55025515151E+03  0.57221446765E+03  0.00000000000E+00 0.  1.
</event>
<event>
12    1  0.1348628E-002  0.2566207E+03  0.7818608E-02  0.1109191E+00
          1   -1    0    0  502    0  0.00000000000E+00  0.00000000000E+00  0.53147086301E+03  0.53147086301E+03  0.00000000000E+00 0.  1.
         -1   -1    0    0    0  501 -0.00000000000E+00 -0.00000000000E+00 -0.12987564205E+03  0.12987564205E+03  0.00000000000E+00 0. -1.
          6    2    1    2  502    0  0.80780477098E+02  0.17101225564E+03  0.27101756675E+03  0.37264211142E+03  0.17216545723E+03 0.  0.
         24    2    3    3    0    0  0.64038012310E+02  0.19458929920E+03  0.20620070145E+03  0.30151192699E+03  0.80155164878E+02 0.  0.
         -6    2    1    2    0  501 -0.80780477098E+02 -0.17101225564E+03  0.13057765421E+03  0.28870439363E+03  0.17472557359E+03 0.  0.
        -24    2    5    5    0    0 -0.10760554923E+03 -0.18141425421E+03  0.12908154439E+03  0.25951339479E+03  0.78708774085E+02 0.  0.
          5    1    3    3  502    0  0.16742464788E+02 -0.23577043562E+02  0.64816865296E+02  0.71130184430E+02  0.47000000000E+01 0. -1.
        -11    1    4    4    0    0  0.44011715538E+02  0.80015390530E+02  0.14151967298E+03  0.16842598275E+03  0.00000000000E+00 0.  1.
         12    1    4    4    0    0  0.20026296772E+02  0.11457390867E+03  0.64681028473E+02  0.13308594424E+03  0.00000000000E+00 0. -1.
         -5    1    5    5    0  501  0.26825072127E+02  0.10401998574E+02  0.14961098202E+01  0.29190998845E+02  0.47000000000E+01 0.  1.
         11    1    6    6    0    0  0.98463658179E+01 -0.37172275450E+02  0.29901119540E+02  0.48711455857E+02  0.00000000000E+00 0. -1.
        -12    1    6    6    0    0 -0.11745191504E+03 -0.14424197876E+03  0.99180424849E+02  0.21080193893E+03  0.00000000000E+00 0.  1.
</event>
<event>
12    1  0.1348628E-002  0.1879344E+03  0.7818608E-02  0.1160338E+00
          1   -1    0    0  502    0  0.00000000000E+00  0.00000000000E+00  0.30654478073E+03  0.30654478073E+03  0.00000000000E+00 0.  1.
         -1   -1    0    0    0  501 -0.00000000000E+00 -0.00000000000E+00 -0.18116798209E+03  0.18116798209E+03  0.00000000000E+00 0. -1.
          6    2    1    2  502    0 -0.30087630302E+02  0.67680326245E+02  0.20992874438E+03  0.28211211477E+03  0.17329534189E+03 0.  0.
         24    2    3    3    0    0 -0.84107583560E+02  0.57432754205E+02  0.16589868360E+03  0.21151534193E+03  0.82727019666E+02 0.  0.
         -6    2    1    2    0  501  0.30087630302E+02 -0.67680326245E+02 -0.84551945743E+02  0.20560064805E+03  0.17215313791E+03 0.  0.
        -24    2    5    5    0    0  0.10181922360E+02 -0.74285383856E+02 -0.12116854791E+03  0.16314208532E+03  0.79445158459E+02 0.  0.
          5    1    3    3  502    0  0.54019953258E+02  0.10247572040E+02  0.44030060779E+02  0.70596772837E+02  0.47000000000E+01 0. -1.
        -13    1    4    4    0    0 -0.23174889731E+02  0.65537586652E+02  0.94238530268E+02  0.11710316548E+03  0.00000000000E+00 0.  1.
         14    1    4    4    0    0 -0.60932693828E+02 -0.81048324466E+01  0.71660153334E+02  0.94412176450E+02  0.00000000000E+00 0. -1.
         -5    1    5    5    0  501  0.19905707942E+02  0.66050576108E+01  0.36616602167E+02  0.42458562728E+02  0.47000000000E+01 0.  1.
         11    1    6    6    0    0  0.29785108239E+02 -0.55412386325E+02 -0.33348092000E+02  0.71202390909E+02  0.00000000000E+00 0. -1.
        -12    1    6    6    0    0 -0.19603185879E+02 -0.18872997530E+02 -0.87820455909E+02  0.91939694411E+02  0.00000000000E+00 0.  1.
</event>
<event>
12    1  0.1348628E-002  0.1795421E+03  0.7818608E-02  0.1168247E+00
         -2   -1    0    0    0  501 -0.00000000000E+00  0.00000000000E+00  0.10078734238E+04  0.10078734238E+04  0.00000000000E+00 0.  1.
          2   -1    0    0  502    0  0.00000000000E+00 -0.00000000000E+00 -0.34523954148E+02  0.34523954148E+02  0.00000000000E+00 0. -1.
          6    2    1    2  502    0  0.38544486110E+02  0.33889176344E+02  0.34654687206E+03  0.39052386184E+03  0.17256882236E+03 0.  0.
         24    2    3    3    0    0 -0.35435346343E+02  0.68272917603E+01  0.10382406351E+03  0.13529491952E+03  0.78886015247E+02 0.  0.
         -6    2    1    2    0  501 -0.38544486110E+02 -0.33889176344E+02  0.62680259760E+03  0.65187351612E+03  0.17153259449E+03 0.  0.
        -24    2    5    5    0    0  0.43721713676E+02 -0.27932243594E+02  0.37662362542E+03  0.38840659068E+03  0.79514313078E+02 0.  0.
          5    1    3    3  502    0  0.73979832452E+02  0.27061884584E+02  0.24272280855E+03  0.25522894232E+03  0.47000000000E+01 0. -1.
        -11    1    4    4    0    0 -0.40545274966E+02 -0.14354568805E+02  0.10500588799E+03  0.11347338666E+03  0.00000000000E+00 0.  1.
         12    1    4    4    0    0  0.51099286228E+01  0.21181860565E+02 -0.11818244741E+01  0.21821532866E+02  0.00000000000E+00 0. -1.
         -5    1    5    5    0  501 -0.82266199786E+02 -0.59569327499E+01  0.25017897219E+03  0.26346692544E+03  0.47000000000E+01 0.  1.
         11    1    6    6    0    0 -0.75612176223E+01 -0.83951656863E+01  0.43451845022E+01  0.12105017439E+02  0.00000000000E+00 0. -1.
        -12    1    6    6    0    0  0.51282931298E+02 -0.19537077908E+02  0.37227844091E+03  0.37630157324E+03  0.00000000000E+00 0.  1.
</event>
<event>
12    1  0.1348628E-002  0.2137024E+03  0.7818608E-02  0.1138667E+00
         -1   -1    0    0    0  501 -0.00000000000E+00  0.00000000000E+00  0.86456785182E+02  0.86456785182E+02  0.00000000000E+00 0.  1.
          1   -1    0    0  502    0  0.00000000000E+00 -0.00000000000E+00 -0.54676238814E+03  0.54676238814E+03  0.00000000000E+00 0. -1.
          6    2    1    2  502    0  0.82412827749E+02  0.98803596261E+02 -0.28760480700E+03  0.35783329356E+03  0.16962934934E+03 0.  0.
         24    2    3    3    0    0 -0.32250075346E+01  0.79907483582E+02 -0.10280518260E+03  0.15322661457E+03  0.80708631744E+02 0.  0.
         -6    2    1    2    0  501 -0.82412827749E+02 -0.98803596261E+02 -0.17270079595E+03  0.27538587976E+03  0.17163272717E+03 0.  0.
        -24    2    5    5    0    0 -0.11145122454E+03 -0.10972766774E+03 -0.11523229837E+03  0.20990853986E+03  0.79508339179E+02 0.  0.
          5    1    3    3  502    0  0.85637835284E+02  0.18896112679E+02 -0.18479962440E+03  0.20460667899E+03  0.47000000000E+01 0. -1.
        -13    1    4    4    0    0  0.29975800286E+02  0.68973516796E+02 -0.51513555136E+02  0.91156683708E+02  0.00000000000E+00 0.  1.
         14    1    4    4    0    0 -0.33200807821E+02  0.10933966786E+02 -0.51291627462E+02  0.62069930862E+02  0.00000000000E+00 0. -1.
         -5    1    5    5    0  501  0.29038396794E+02  0.10924071474E+02 -0.57468497589E+02  0.65477339905E+02  0.47000000000E+01 0.  1.
         11    1    6    6    0    0 -0.94170364276E+02 -0.78565513396E+02 -0.12272170382E+03  0.17349701436E+03  0.00000000000E+00 0. -1.
        -12    1    6    6    0    0 -0.17280860266E+02 -0.31162154339E+02  0.74894054590E+01  0.36411525493E+02  0.00000000000E+00 0.  1.
</event>
<event>
12    1  0.1348628E-002  0.2519515E+03  0.7818608E-02  0.1112078E+00
         -2   -1    0    0    0  501 -0.00000000000E+00  0.00000000000E+00  0.58701586181E+03  0.58701586181E+03  0.00000000000E+00 0. -1.
          2   -1    0    0  502    0  0.00000000000E+00 -0.00000000000E+00 -0.20952068217E+03  0.20952068217E+03  0.00000000000E+00 0.  1.
          6    2    1    2  502    0  0.13544019863E+03 -0.12453402573E+03  0.46571042955E+03  0.52940212920E+03  0.17183608248E+03 0.  0.
         24    2    3    3    0    0  0.15136846221E+03 -0.66083356384E+02  0.28022964895E+03  0.33422169909E+03  0.76785849266E+02 0.  0.
         -6    2    1    2    0  501 -0.13544019863E+03  0.12453402573E+03 -0.88215249920E+02  0.26713441478E+03  0.17241256994E+03 0.  0.
        -24    2    5    5    0    0 -0.10168085643E+03  0.15362505135E+03 -0.44294250993E+02  0.20438790011E+03  0.76634066004E+02 0.  0.
          5    1    3    3  502    0 -0.15928263579E+02 -0.58450669350E+02  0.18548078060E+03  0.19518043012E+03  0.47000000000E+01 0. -1.
        -13    1    4    4    0    0  0.85953333951E+02 -0.77483813060E+02  0.18029400135E+03  0.21423735395E+03  0.00000000000E+00 0.  1.
         14    1    4    4    0    0  0.65415128254E+02  0.11400456676E+02  0.99935647601E+02  0.11998434514E+03  0.00000000000E+00 0. -1.
         -5    1    5    5    0  501 -0.33759342196E+02 -0.29091025617E+02 -0.43920998927E+02  0.62746514673E+02  0.47000000000E+01 0.  1.
         13    1    6    6    0    0 -0.20991743142E+02  0.97724452330E+02 -0.10192728362E+02  0.10047195417E+03  0.00000000000E+00 0. -1.
        -14    1    6    6    0    0 -0.80689113289E+02  0.55900599020E+02 -0.34101522631E+02  0.10391594594E+03  0.00000000000E+00 0.  1.
</event>
<event>
12    1  0.1348628E-002  0.2382902E+03  0.7818608E-02  0.1120937E+00
         -2   -1    0    0    0  501 -0.00000000000E+00  0.00000000000E+00  0.41414492234E+02  0.41414492234E+02  0.00000000000E+00 0. -1.
          2   -1    0    0  502    0  0.00000000000E+00 -0.00000000000E+00 -0.15839841263E+04  0.15839841263E+04  0.00000000000E+00 0.  1.
          6    2    1    2  502    0  0.95223930483E+02  0.13410709393E+03 -0.47258179296E+03  0.52913989300E+03  0.17205570536E+03 0.  0.
         24    2    3    3    0    0  0.21164155919E+02  0.14833199107E+02 -0.98904897421E+02  0.12993114503E+03  0.80199616105E+02 0.  0.
         -6    2    1    2    0  501 -0.95223930483E+02 -0.13410709393E+03 -0.10699878411E+04  0.10962587255E+04  0.17279150332E+03 0.  0.
        -24    2    5    5    0    0 -0.56520616176E+02 -0.41161560035E+02 -0.24505071289E+03  0.26518702326E+03  0.73385634435E+02 0.  0.
          5    1    3    3  502    0  0.74059774564E+02  0.11927389482E+03 -0.37367689554E+03  0.39920874797E+03  0.47000000000E+01 0. -1.
        -13    1    4    4    0    0 -0.16155458887E+02 -0.24816710451E+02 -0.39167474500E+02  0.49101517575E+02  0.00000000000E+00 0.  1.
         14    1    4    4    0    0  0.37319614806E+02  0.39649909558E+02 -0.59737422921E+02  0.80829627455E+02  0.00000000000E+00 0. -1.
         -5    1    5    5    0  501 -0.38703314307E+02 -0.92945533895E+02 -0.82493712822E+03  0.83107170228E+03  0.47000000000E+01 0.  1.
         11    1    6    6    0    0 -0.51396093131E+02 -0.42210239633E+02 -0.24956667269E+03  0.25827657043E+03  0.00000000000E+00 0. -1.
        -12    1    6    6    0    0 -0.51245230448E+01  0.10486795974E+01  0.45159598005E+01  0.69104528255E+01  0.00000000000E+00 0.  1.
</event>
<event>
12    1  0.1348628E-002  0.1957957E+03  0.7818608E-02  0.1153335E+00
         -2   -1    0    0    0  501 -0.00000000000E+00  0.00000000000E+00  0.12325696424E+03  0.12325696424E+03  0.00000000000E+00 0. -1.
          2   -1    0    0  502    0  0.00000000000E+00 -0.00000000000E+00 -0.38829898109E+03  0.38829898109E+03  0.00000000000E+00 0.  1.
          6    2    1    2  502    0  0.76179409434E+02  0.30632904889E+02 -0.15833819130E+02  0.19140750927E+03  0.17217562979E+03 0.  0.
         24    2    3    3    0    0  0.30630006732E+02  0.39303296168E+02  0.53522651281E+02  0.10784714930E+03  0.79267818243E+02 0.  0.
         -6    2    1    2    0  501 -0.76179409434E+02 -0.30632904889E+02 -0.24920819772E+03  0.32014843606E+03  0.18343559637E+03 0.  0.
        -24    2    5    5    0    0 -0.10206342837E+03 -0.23720722477E+02 -0.26206610977E+03  0.29006228302E+03  0.66916859293E+02 0.  0.
          5    1    3    3  502    0  0.45549402702E+02 -0.86703912789E+01 -0.69356470411E+02  0.83560359976E+02  0.47000000000E+01 0. -1.
        -13    1    4    4    0    0  0.56432803900E+02  0.30757901377E+02  0.26500907559E+02  0.69519838568E+02  0.00000000000E+00 0.  1.
         14    1    4    4    0    0 -0.25802797168E+02  0.85453947914E+01  0.27021743722E+02  0.38327310728E+02  0.00000000000E+00 0. -1.
         -5    1    5    5    0  501  0.25884018933E+02 -0.69121824128E+01  0.12857912056E+02  0.30086153032E+02  0.47000000000E+01 0.  1.
         11    1    6    6    0    0 -0.51657462044E+01  0.16874775580E+02 -0.56719040737E+02  0.59401115872E+02  0.00000000000E+00 0. -1.
        -12    1    6    6    0    0 -0.96897682163E+02 -0.40595498056E+02 -0.20534706903E+03  0.23066116715E+03  0.00000000000E+00 0.  1.
</event>
<event>
12    1  0.1348628E-002  0.1839371E+03  0.7818608E-02  0.1164046E+00
         -2   -1    0    0    0  501 -0.00000000000E+00  0.00000000000E+00  0.15036812529E+02  0.15036812529E+02  0.00000000000E+00 0. -1.
          2   -1    0    0  502    0  0.00000000000E+00 -0.00000000000E+00 -0.23847947781E+04  0.23847947781E+04  0.00000000000E+00 0.  1.
          6    2    1    2  502    0 -0.33001979897E+02  0.78332409622E+02 -0.14168694580E+04  0.14277753031E+04  0.15426651666E+03 0.  0.
         24    2    3    3    0    0 -0.11496569752E+02  0.61234282127E+02 -0.49581606320E+03  0.50630024938E+03  0.81391434250E+02 0.  0.
         -6    2    1    2    0  501  0.33001979897E+02 -0.78332409622E+02 -0.95288850766E+03  0.97205628758E+03  0.17225510477E+03 0.  0.
        -24    2    5    5    0    0  0.10024787322E+02 -0.11030436105E+03 -0.85834919292E+03  0.86953834237E+03  0.84059761180E+02 0.  0.
          5    1    3    3  502    0 -0.21505410145E+02  0.17098127496E+02 -0.92105339475E+03  0.92147505371E+03  0.47000000000E+01 0. -1.
        -11    1    4    4    0    0  0.33012229200E+02  0.43201809147E+02 -0.27476988393E+03  0.28009764852E+03  0.00000000000E+00 0.  1.
         12    1    4    4    0    0 -0.44508798952E+02  0.18032472980E+02 -0.22104617927E+03  0.22620260086E+03  0.00000000000E+00 0. -1.
         -5    1    5    5    0  501  0.22977192575E+02  0.31971951432E+02 -0.94539314743E+02  0.10251794520E+03  0.47000000000E+01 0.  1.
         11    1    6    6    0    0 -0.22456850823E+02 -0.41733947178E+02 -0.15434293754E+03  0.16145517912E+03  0.00000000000E+00 0. -1.
        -12    1    6    6    0    0  0.32481638145E+02 -0.68570413877E+02 -0.70400625537E+03  0.70808316325E+03  0.00000000000E+00 0.  1.
</event>
<event>
12    1  0.1348628E-002  0.1991896E+03  0.7818608E-02  0.1150425E+00
         -2   -1    0    0    0  501 -0.00000000000E+00  0.00000000000E+00  0.30574317945E+02  0.30574317945E+02  0.00000000000E+00 0. -1.
          2   -1    0    0  502    0  0.00000000000E+00 -0.00000000000E+00 -0.14496651127E+04  0.14496651127E+04  0.00000000000E+00 0.  1.
          6    2    1    2  502    0 -0.61184299996E+02  0.80143887478E+02 -0.94989590239E+03  0.97060279719E+03  0.17204942100E+03 0.  0.
         24    2    3    3    0    0 -0.72901032794E+02  0.14356328843E+00 -0.69171079306E+03  0.70001274863E+03  0.78990162807E+02 0.  0.
         -6    2    1    2    0  501  0.61184299996E+02 -0.80143887478E+02 -0.46919489238E+03  0.50963663347E+03  0.17151994016E+03 0.  0.
        -24    2    5    5    0    0  0.19736168844E+02  0.55258024971E+01 -0.10551168945E+03  0.13367811788E+03  0.79480008391E+02 0.  0.
          5    1    3    3  502    0  0.11716732798E+02  0.80000324190E+02 -0.25818510934E+03  0.27059004856E+03  0.47000000000E+01 0. -1.
        -11    1    4    4    0    0 -0.55387397618E+02  0.33644554753E+02 -0.32785494263E+03  0.33419841903E+03  0.00000000000E+00 0.  1.
         12    1    4    4    0    0 -0.17513635176E+02 -0.33500991465E+02 -0.36385585043E+03  0.36581432960E+03  0.00000000000E+00 0. -1.
         -5    1    5    5    0  501  0.41448131152E+02 -0.85669689975E+02 -0.36368320293E+03  0.37595851560E+03  0.47000000000E+01 0.  1.
         11    1    6    6    0    0 -0.23654748294E+02  0.22841149292E+02 -0.60201715665E+02  0.68596733062E+02  0.00000000000E+00 0. -1.
        -12    1    6    6    0    0  0.43390917137E+02 -0.17315346794E+02 -0.45309973787E+02  0.65081384814E+02  0.00000000000E+00 0.  1.
</event>
<event>
12    1  0.1348628E-002  0.1781490E+03  0.7818608E-02  0.1169607E+00
          1   -1    0    0  502    0  0.00000000000E+00  0.00000000000E+00  0.12260743810E+03  0.12260743810E+03  0.00000000000E+00 0.  1.
         -1   -1    0    0    0  501 -0.00000000000E+00 -0.00000000000E+00 -0.29623655840E+03  0.29623655840E+03  0.00000000000E+00 0. -1.
          6    2    1    2  502    0 -0.21279299663E+02 -0.32193768727E+02 -0.11996306637E+02  0.17754580996E+03  0.17288538378E+03 0.  0.
         24    2    3    3    0    0 -0.12695850845E+02  0.46309808198E+02  0.12767349155E+02  0.94649393686E+02  0.80558795651E+02 0.  0.
         -6    2    1    2    0  501  0.21279299663E+02  0.32193768727E+02 -0.16163281366E+03  0.24129818653E+03  0.17495828369E+03 0.  0.
        -24    2    5    5    0    0  0.66323818311E+02  0.57321121936E+02 -0.12422970873E+03  0.17741176545E+03  0.91418565370E+02 0.  0.
          5    1    3    3  502    0 -0.85834488182E+01 -0.78503576925E+02 -0.24763655793E+02  0.82896416278E+02  0.47000000000E+01 0. -1.
        -11    1    4    4    0    0 -0.12077765816E+00 -0.29802110961E+01  0.37825962608E+02  0.37943374819E+02  0.00000000000E+00 0.  1.
         12    1    4    4    0    0 -0.12575073187E+02  0.49290019294E+02 -0.25058613453E+02  0.56706018868E+02  0.00000000000E+00 0. -1.
         -5    1    5    5    0  501 -0.45044518648E+02 -0.25127353210E+02 -0.37403104933E+02  0.63886421078E+02  0.47000000000E+01 0.  1.
         11    1    6    6    0    0 -0.98750541744E+01  0.18656471868E+02 -0.76873997907E+02  0.79719459304E+02  0.00000000000E+00 0. -1.
        -12    1    6    6    0    0  0.76198872485E+02  0.38664650068E+02 -0.47355710822E+02  0.97692306147E+02  0.00000000000E+00 0.  1.
</event>
<event>
12    1  0.1348628E-002  0.1771384E+03  0.7818608E-02  0.1170602E+00
          1   -1    0    0  502    0  0.00000000000E+00  0.00000000000E+00  0.81004588791E+03  0.81004588791E+03  0.00000000000E+00 0.  1.
         -1   -1    0    0    0  501 -0.00000000000E+00 -0.00000000000E+00 -0.39640289965E+02  0.39640289965E+02  0.00000000000E+00 0. -1.
          6    2    1    2  502    0 -0.40597559185E+02  0.18830264632E+02  0.45076773516E+03  0.48456915975E+03  0.17208422020E+03 0.  0.
         24    2    3    3    0    0  0.27031679158E+02  0.53505485282E+02  0.24207869682E+03  0.26242215993E+03  0.81668512511E+02 0.  0.
         -6    2    1    2    0  501  0.40597559185E+02 -0.18830264632E+02  0.31963786279E+03  0.36511701813E+03  0.17070246899E+03 0.  0.
        -24    2    5    5    0    0  0.51542715042E+02 -0.65953606636E+02  0.27944196001E+03  0.30204399379E+03  0.78334127108E+02 0.  0.
          5    1    3    3  502    0 -0.67629238342E+02 -0.34675220650E+02  0.20868903834E+03  0.22214699982E+03  0.47000000000E+01 0. -1.
        -11    1    4    4    0    0 -0.53498601074E+01  0.10696891879E+02  0.17982893364E+03  0.18022621861E+03  0.00000000000E+00 0.  1.
         12    1    4    4    0    0  0.32381539265E+02  0.42808593402E+02  0.62249763177E+02  0.82195941322E+02  0.00000000000E+00 0. -1.
         -5    1    5    5    0  501 -0.10945155857E+02  0.47123342004E+02  0.40195902778E+02  0.63073024333E+02  0.47000000000E+01 0.  1.
         11    1    6    6    0    0  0.45059005144E+02 -0.61687794868E+02  0.11896984652E+03  0.14138430734E+03  0.00000000000E+00 0. -1.
        -12    1    6    6    0    0  0.64837098980E+01 -0.42658117678E+01  0.16047211349E+03  0.16065968645E+03  0.00000000000E+00 0.  1.
</event>
<event>
12    1  0.1348628E-002  0.1846696E+03  0.7818608E-02  0.1163359E+00
          2   -1    0    0  502    0  0.00000000000E+00  0.00000000000E+00  0.52236912957E+03  0.52236912957E+03  0.00000000000E+00 0.  1.
         -2   -1    0    0    0  501 -0.00000000000E+00 -0.00000000000E+00 -0.69006366057E+02  0.69006366057E+02  0.00000000000E+00 0. -1.
          6    2    1    2  502    0 -0.10502158309E+00 -0.67212065538E+02  0.29518370370E+03  0.34811560668E+03  0.17185337909E+03 0.  0.
         24    2    3    3    0    0 -0.18101101513E+02 -0.10796440727E+03  0.24981283597E+03  0.28435654546E+03  0.80425299618E+02 0.  0.
         -6    2    1    2    0  501  0.10502158309E+00  0.67212065538E+02  0.15817905981E+03  0.24325988894E+03  0.17215483096E+03 0.  0.
        -24    2    5    5    0    0 -0.17347713674E+02  0.25799182182E+02  0.17740695433E+03  0.19415360825E+03  0.72497277043E+02 0.  0.
          5    1    3    3  502    0  0.17996079930E+02  0.40752341729E+02  0.45370867726E+02  0.63759061219E+02  0.47000000000E+01 0. -1.
        -11    1    4    4    0    0 -0.43260030809E+02 -0.34289550815E+02  0.13274838423E+03  0.14376834518E+03  0.00000000000E+00 0.  1.
         12    1    4    4    0    0  0.25158929296E+02 -0.73674856453E+02  0.11706445174E+03  0.14058820028E+03  0.00000000000E+00 0. -1.
         -5    1    5    5    0  501  0.17452735257E+02  0.41412883357E+02 -0.19227894523E+02  0.49106280694E+02  0.47000000000E+01 0.  1.
         11    1    6    6    0    0 -0.34132038395E+01 -0.24231125221E+02  0.36162596070E+02  0.43663837949E+02  0.00000000000E+00 0. -1.
        -12    1    6    6    0    0 -0.13934509834E+02  0.50030307403E+02  0.14124435826E+03  0.15048977030E+03  0.00000000000E+00 0.  1.
</event>
<event>
12    1  0.1348628E-002  0.1791228E+03  0.7818608E-02  0.1168655E+00
         -2   -1    0    0    0  501 -0.00000000000E+00  0.00000000000E+00  0.38557562406E+02  0.38557562406E+02  0.00000000000E+00 0. -1.
          2   -1    0    0  502    0  0.00000000000E+00 -0.00000000000E+00 -0.84198400349E+03  0.84198400349E+03  0.00000000000E+00 0.  1.
          6    2    1    2  502    0 -0.43604999053E+02  0.18079881905E+02 -0.44740284330E+03  0.48161242678E+03  0.17190970702E+03 0.  0.
         24    2    3    3    0    0 -0.55755574994E+02  0.46349774106E+02 -0.17660401229E+03  0.20903047548E+03  0.85133875868E+02 0.  0.
         -6    2    1    2    0  501  0.43604999053E+02 -0.18079881905E+02 -0.35602359778E+03  0.39892913911E+03  0.17367607141E+03 0.  0.
        -24    2    5    5    0    0  0.52548885389E+02 -0.43241900460E+02 -0.11159520426E+03  0.15300140614E+03  0.79527940734E+02 0.  0.
          5    1    3    3  502    0  0.12150575941E+02 -0.28269892201E+02 -0.27079883100E+03  0.27258195130E+03  0.47000000000E+01 0. -1.
        -11    1    4    4    0    0 -0.20052382689E+02  0.46909572241E+02 -0.16303714562E+03  0.17083242336E+03  0.00000000000E+00 0.  1.
         12    1    4    4    0    0 -0.35703192305E+02 -0.55979813494E+00 -0.13566866674E+02  0.38198052124E+02  0.00000000000E+00 0. -1.
         -5    1    5    5    0  501 -0.89438863365E+01  0.25162018555E+02 -0.24442839353E+03  0.24592773297E+03  0.47000000000E+01 0.  1.
         13    1    6    6    0    0  0.59073495459E+02 -0.44434666353E+01 -0.40548566236E+02  0.71788637578E+02  0.00000000000E+00 0. -1.
        -14    1    6    6    0    0 -0.65246100699E+01 -0.38798433825E+02 -0.71046638022E+02  0.81212768565E+02  0.00000000000E+00 0.  1.
</event>
<event>
12    1  0.1348628E-002  0.1850494E+03  0.7818608E-02  0.1163004E+00
          1   -1    0    0  502    0  0.00000000000E+00  0.00000000000E+00  0.62640530087E+03  0.62640530087E+03  0.00000000000E+00 0. -1.
         -1   -1    0    0    0  501 -0.00000000000E+00 -0.00000000000E+00 -0.76590336943E+02  0.76590336943E+02  0.00000000000E+00 0.  1.
          6    2    1    2  502    0  0.54978283150E+02 -0.22108979732E+02  0.85943744934E+02  0.20325655328E+03  0.17440034563E+03 0.  0.
         24    2    3    3    0    0 -0.18295328381E+02 -0.40639393517E+02  0.54287778919E+01  0.92725343665E+02  0.81130995201E+02 0.  0.
         -6    2    1    2    0  501 -0.54978283150E+02  0.22108979732E+02  0.46387121899E+03  0.49973908453E+03  0.17621358119E+03 0.  0.
        -24    2    5    5    0    0 -0.78651448044E+02 -0.16464004946E+02  0.42514954489E+03  0.43999168351E+03  0.79896384786E+02 0.  0.
          5    1    3    3  502    0  0.73273611530E+02  0.18530413785E+02  0.80514967042E+02  0.11053120962E+03  0.47000000000E+01 0. -1.
        -13    1    4    4    0    0  0.78501196926E+01  0.10386154096E+02 -0.24726631166E+02  0.27944639288E+02  0.00000000000E+00 0.  1.
         14    1    4    4    0    0 -0.26145448073E+02 -0.51025547613E+02  0.30155409058E+02  0.64780704377E+02  0.00000000000E+00 0. -1.
         -5    1    5    5    0  501  0.23673164894E+02  0.38572984677E+02  0.38721674104E+02  0.59747401018E+02  0.47000000000E+01 0.  1.
         13    1    6    6    0    0 -0.25637744146E+02 -0.28713937068E+02  0.63384798212E+02  0.74158052504E+02  0.00000000000E+00 0. -1.
        -14    1    6    6    0    0 -0.53013703898E+02  0.12249932122E+02  0.36176474668E+03  0.36583363101E+03  0.00000000000E+00 0.  1.
</event>
<event>
12    1  0.1348628E-002  0.1844273E+03  0.7818608E-02  0.1163586E+00
          1   -1    0    0  502    0  0.00000000000E+00  0.00000000000E+00  0.66791091233E+03  0.66791091233E+03  0.00000000000E+00 0.  1.
         -1   -1    0    0    0  501 -0.00000000000E+00 -0.00000000000E+00 -0.64189635575E+02  0.64189635575E+02  0.00000000000E+00 0. -1.
          6    2    1    2  502    0 -0.58351849062E+02  0.29022197726E+02  0.13608944148E+03  0.22959141022E+03  0.17304523488E+03 0.  0.
         24    2    3    3    0    0 -0.99000585028E+02  0.42853468410E+01  0.12848257296E+03  0.18117461586E+03  0.80603907122E+02 0.  0.
         -6    2    1    2    0  501  0.58351849062E+02 -0.29022197726E+02  0.46763183527E+03  0.50250913769E+03  0.17201358623E+03 0.  0.
        -24    2    5    5    0    0  0.84376381147E+02 -0.36658858868E+02  0.20362757503E+03  0.23707377024E+03  0.79224602206E+02 0.  0.
          5    1    3    3  502    0  0.40648735966E+02  0.24736850885E+02  0.76068685191E+01  0.48416794359E+02  0.47000000000E+01 0. -1.
        -13    1    4    4    0    0 -0.48257728297E+02 -0.36898701142E+02  0.76394563107E+02  0.97603543781E+02  0.00000000000E+00 0.  1.
         14    1    4    4    0    0 -0.50742856731E+02  0.41184047983E+02  0.52088009852E+02  0.83571072076E+02  0.00000000000E+00 0. -1.
         -5    1    5    5    0  501 -0.26024532086E+02  0.76366611420E+01  0.26400426024E+03  0.26543536744E+03  0.47000000000E+01 0.  1.
         11    1    6    6    0    0  0.84324364675E+02 -0.94968593812E+01  0.18667136507E+03  0.20505362068E+03  0.00000000000E+00 0. -1.
        -12    1    6    6    0    0  0.52016472597E-01 -0.27161999487E+02  0.16956209959E+02  0.32020149562E+02  0.00000000000E+00 0.  1.
</event>
<event>
12    1  0.1348628E-002  0.1995673E+03  0.7818608E-02  0.1150105E+00
         -1   -1    0    0    0  501 -0.00000000000E+00  0.00000000000E+00  0.78696549044E+02  0.78696549044E+02  0.00000000000E+00 0. -1.
          1   -1    0    0  502    0  0.00000000000E+00 -0.00000000000E+00 -0.53589596762E+03  0.53589596762E+03  0.00000000000E+00 0.  1.
          6    2    1    2  502    0 -0.84064790616E+02 -0.53804527090E+02 -0.15707550390E+03  0.25465449399E+03  0.17382284438E+03 0.  0.
         24    2    3    3    0    0 -0.83389118703E+02  0.23942262352E+02 -0.12146528588E+03  0.16900872686E+03  0.79266367615E+02 0.  0.
         -6    2    1    2    0  501  0.84064790616E+02  0.53804527090E+02 -0.30012391467E+03  0.35993802267E+03  0.17181152420E+03 0.  0.
        -24    2    5    5    0    0  0.43956615976E+02 -0.25932797848E+02 -0.87083154748E+02  0.12890737091E+03  0.80180673126E+02 0.  0.
          5    1    3    3  502    0 -0.67567191344E+00 -0.77746789442E+02 -0.35610218022E+02  0.85645767137E+02  0.47000000000E+01 0. -1.
        -11    1    4    4    0    0 -0.28296559851E+02 -0.50488189142E+01 -0.98573038058E+02  0.10267828253E+03  0.00000000000E+00 0.  1.
         12    1    4    4    0    0 -0.55092558852E+02  0.28991081266E+02 -0.22892247824E+02  0.66330444325E+02  0.00000000000E+00 0. -1.
         -5    1    5    5    0  501  0.40108174641E+02  0.79737324938E+02 -0.21304075992E+03  0.23103065175E+03  0.47000000000E+01 0.  1.
         13    1    6    6    0    0  0.18159670428E+02 -0.39367437681E+02 -0.89777360658E+02  0.99697258068E+02  0.00000000000E+00 0. -1.
        -14    1    6    6    0    0  0.25796945547E+02  0.13434639833E+02  0.26942059100E+01  0.29210112846E+02  0.00000000000E+00 0.  1.
</event>
<event>
12    1  0.1348628E-002  0.2568466E+03  0.7818608E-02  0.1109053E+00
         -1   -1    0    0    0  501 -0.00000000000E+00  0.00000000000E+00  0.77748465201E+02  0.77748465201E+02  0.00000000000E+00 0.  1.
          1   -1    0    0  502    0  0.00000000000E+00 -0.00000000000E+00 -0.96557288924E+03  0.96557288924E+03  0.00000000000E+00 0. -1.
          6    2    1    2  502    0 -0.25731497836E+02 -0.18942955551E+03 -0.26180315930E+03  0.36654057919E+03  0.17107143387E+03 0.  0.
         24    2    3    3    0    0 -0.72391425307E+01 -0.20967188703E+03 -0.20737830996E+03  0.30541878752E+03  0.79121216729E+02 0.  0.
         -6    2    1    2    0  501  0.25731497836E+02  0.18942955551E+03 -0.62602126473E+03  0.67678077525E+03  0.17199978886E+03 0.  0.
        -24    2    5    5    0    0 -0.29535763433E+02  0.18097866361E+03 -0.51410778779E+03  0.55159050381E+03  0.79496090612E+02 0.  0.
          5    1    3    3  502    0 -0.18492355305E+02  0.20242331516E+02 -0.54424849347E+02  0.61121791665E+02  0.47000000000E+01 0. -1.
        -11    1    4    4    0    0 -0.23979172490E+02 -0.11079189922E+03 -0.63179174751E+02  0.12977462683E+03  0.00000000000E+00 0.  1.
         12    1    4    4    0    0  0.16740029960E+02 -0.98879987809E+02 -0.14419913521E+03  0.17564416070E+03  0.00000000000E+00 0. -1.
         -5    1    5    5    0  501  0.55267261269E+02  0.84508919036E+01 -0.11191347694E+03  0.12519027144E+03  0.47000000000E+01 0.  1.
         11    1    6    6    0    0 -0.28776607368E+02  0.15029465054E+02 -0.61957596899E+02  0.69947993287E+02  0.00000000000E+00 0. -1.
        -12    1    6    6    0    0 -0.75915606568E+00  0.16594919856E+03 -0.45215019089E+03  0.48164251052E+03  0.00000000000E+00 0.  1.
</event>
<event>
12    1  0.1348628E-002  0.1964680E+03  0.7818608E-02  0.1152754E+00
         -3   -1    0    0    0  501 -0.00000000000E+00  0.00000000000E+00  0.11092247040E+04  0.11092247040E+04  0.00000000000E+00 0. -1.
          3   -1    0    0  502    0  0.00000000000E+00 -0.00000000000E+00 -0.35318800785E+02  0.35318800785E+02  0.00000000000E+00 0.  1.
          6    2    1    2  502    0 -0.66311839890E+02  0.80038088532E+02  0.61457101525E+03  0.64622651650E+03  0.17061014659E+03 0.  0.
         24    2    3    3    0    0 -0.90986276622E+02  0.92713413781E+02  0.37508678138E+03  0.40509526600E+03  0.80856671578E+02 0.  0.
         -6    2    1    2    0  501  0.66311839890E+02 -0.80038088532E+02  0.45933488796E+03  0.49831698828E+03  0.16287395674E+03 0.  0.
        -24    2    5    5    0    0  0.30604854856E+02 -0.87207776728E+02  0.43880376524E+03  0.45624549901E+03  0.84079471423E+02 0.  0.
          5    1    3    3  502    0  0.24674436732E+02 -0.12675325250E+02  0.23948423386E+03  0.24113125050E+03  0.47000000000E+01 0. -1.
        -13    1    4    4    0    0  0.22088029205E+01  0.45322682549E+02  0.79176374448E+02  0.91257452488E+02  0.00000000000E+00 0.  1.
         14    1    4    4    0    0 -0.93195079542E+02  0.47390731232E+02  0.29591040694E+03  0.31383781351E+03  0.00000000000E+00 0. -1.
         -5    1    5    5    0  501  0.35706985034E+02  0.71696881963E+01  0.20531122719E+02  0.42071489267E+02  0.47000000000E+01 0.  1.
         13    1    6    6    0    0  0.37200920630E+02 -0.30573338618E+00  0.15241272476E+03  0.15688735015E+03  0.00000000000E+00 0. -1.
        -14    1    6    6    0    0 -0.65960657738E+01 -0.86902043342E+02  0.28639104048E+03  0.29935814886E+03  0.00000000000E+00 0.  1.
</event>
<event>
12    1  0.1348628E-002  0.1738406E+03  0.7818608E-02  0.1173901E+00
          2   -1    0    0  502    0  0.00000000000E+00  0.00000000000E+00  0.10994686516E+04  0.10994686516E+04  0.00000000000E+00 0.  1.
         -2   -1    0    0    0  501 -0.00000000000E+00 -0.00000000000E+00 -0.43347758134E+02  0.43347758134E+02  0.00000000000E+00 0. -1.
          6    2    1    2  502    0 -0.14501162859E+02 -0.20400358818E+02  0.18004983735E+03  0.24942139078E+03  0.17078239923E+03 0.  0.
         24    2    3    3    0    0 -0.70579017389E+02  0.11141887040E+02  0.10721765492E+03  0.15212670522E+03  0.80878733737E+02 0.  0.
         -6    2    1    2    0  501  0.14501162859E+02  0.20400358818E+02  0.87607105613E+03  0.89339501896E+03  0.17328504309E+03 0.  0.
        -24    2    5    5    0    0 -0.27878846563E+02  0.56823969520E+02  0.34838293697E+03  0.36273544285E+03  0.78740949533E+02 0.  0.
          5    1    3    3  502    0  0.56077854529E+02 -0.31542245857E+02  0.72832182429E+02  0.97294685568E+02  0.47000000000E+01 0. -1.
        -11    1    4    4    0    0  0.10450324121E+02  0.85446116223E+01  0.52769294148E+02  0.54468505274E+02  0.00000000000E+00 0.  1.
         12    1    4    4    0    0 -0.81029341509E+02  0.25972754175E+01  0.54448360774E+02  0.97658199943E+02  0.00000000000E+00 0. -1.
         -5    1    5    5    0  501  0.42380009423E+02 -0.36423610702E+02  0.52768811916E+03  0.53065957611E+03  0.47000000000E+01 0.  1.
         13    1    6    6    0    0 -0.37646673961E+02  0.46681881987E+02  0.34209946001E+03  0.34731615382E+03  0.00000000000E+00 0. -1.
        -14    1    6    6    0    0  0.97678273973E+01  0.10142087533E+02  0.62834769604E+01  0.15419289033E+02  0.00000000000E+00 0.  1.
</event>
<event>
12    1  0.1348628E-002  0.1879748E+03  0.7818608E-02  0.1160301E+00
          2   -1    0    0  502    0  0.00000000000E+00  0.00000000000E+00  0.40989776666E+03  0.40989776666E+03  0.00000000000E+00 0. -1.
         -2   -1    0    0    0  501 -0.00000000000E+00 -0.00000000000E+00 -0.99775290761E+02  0.99775290761E+02  0.00000000000E+00 0.  1.
          6    2    1    2  502    0 -0.22952108068E+02 -0.72645010702E+02  0.60963576658E+02  0.19746694650E+03  0.17167568388E+03 0.  0.
         24    2    3    3    0    0 -0.65898036343E+02 -0.64077701803E+02  0.13963977544E+00  0.12237105557E+03  0.80784606696E+02 0.  0.
         -6    2    1    2    0  501  0.22952108068E+02  0.72645010702E+02  0.24915889925E+03  0.31220611093E+03  0.17201279540E+03 0.  0.
        -24    2    5    5    0    0  0.64593967328E+02  0.15996150331E+02  0.85773215652E+02  0.13427323193E+03  0.79018977779E+02 0.  0.
          5    1    3    3  502    0  0.42945928275E+02 -0.85673088996E+01  0.60823936882E+02  0.75095890933E+02  0.47000000000E+01 0. -1.
        -11    1    4    4    0    0 -0.23092845442E+02 -0.17850807489E+02 -0.38614168614E+02  0.48404388813E+02  0.00000000000E+00 0.  1.
         12    1    4    4    0    0 -0.42805190901E+02 -0.46226894313E+02  0.38753808389E+02  0.73966666753E+02  0.00000000000E+00 0. -1.
         -5    1    5    5    0  501 -0.41641859260E+02  0.56648860371E+02  0.16338568359E+03  0.17793287900E+03  0.47000000000E+01 0.  1.
         13    1    6    6    0    0  0.37474860999E+02 -0.22563482116E+02  0.73546977148E+02  0.85572389120E+02  0.00000000000E+00 0. -1.
        -14    1    6    6    0    0  0.27119106329E+02  0.38559632447E+02  0.12226238504E+02  0.48700842811E+02  0.00000000000E+00 0.  1.
</event>
<event>
12    1  0.1348628E-002  0.1846238E+03  0.7818608E-02  0.1163402E+00
         -2   -1    0    0    0  501 -0.00000000000E+00  0.00000000000E+00  0.41785675091E+02  0.41785675091E+02  0.00000000000E+00 0. -1.
          2   -1    0    0  502    0  0.00000000000E+00 -0.00000000000E+00 -0.81767935725E+03  0.81767935725E+03  0.00000000000E+00 0.  1.
          6    2    1    2  502    0  0.67517274788E+02 -0.16899889739E+02 -0.41005779967E+03  0.44993599098E+03  0.17161237788E+03 0.  0.
         24    2    3    3    0    0  0.96804587134E+02  0.28170039858E+02 -0.32196567639E+03  0.34663372865E+03  0.79551026581E+02 0.  0.
         -6    2    1    2    0  501 -0.67517274788E+02  0.16899889739E+02 -0.36583588249E+03  0.40952904136E+03  0.17039352726E+03 0.  0.
        -24    2    5    5    0    0  0.11410657359E+02  0.41171830655E+01 -0.43355809376E+02  0.77251290648E+02  0.62776439867E+02 0.  0.
          5    1    3    3  502    0 -0.29287312346E+02 -0.45069929597E+02 -0.88092123283E+02  0.10330226233E+03  0.47000000000E+01 0. -1.
        -13    1    4    4    0    0  0.96948214626E+02  0.15146163316E+01 -0.28513036055E+03  0.30116535805E+03  0.00000000000E+00 0.  1.
         14    1    4    4    0    0 -0.14362749179E+00  0.26655423527E+02 -0.36835315844E+02  0.45468370606E+02  0.00000000000E+00 0. -1.
         -5    1    5    5    0  501 -0.78927932147E+02  0.12782706674E+02 -0.32248007311E+03  0.33227775071E+03  0.47000000000E+01 0.  1.
         11    1    6    6    0    0 -0.20055332070E+02  0.22364034820E+01 -0.40932087948E+02  0.45636100499E+02  0.00000000000E+00 0. -1.
        -12    1    6    6    0    0  0.31465989429E+02  0.18807795835E+01 -0.24237214281E+01  0.31615190149E+02  0.00000000000E+00 0.  1.
</event>
<event>
12    1  0.1348628E-002  0.2183701E+03  0.7818608E-02  0.1135104E+00
         -1   -1    0    0    0  501 -0.00000000000E+00  0.00000000000E+00  0.35520501299E+03  0.35520501299E+03  0.00000000000E+00 0.  1.
          1   -1    0    0  502    0  0.00000000000E+00 -0.00000000000E+00 -0.22366956424E+03  0.22366956424E+03  0.00000000000E+00 0. -1.
          6    2    1    2  502    0 -0.37570938546E+02 -0.12991963951E+03  0.24880476337E+03  0.33114546701E+03  0.17164737660E+03 0.  0.
         24    2    3    3    0    0 -0.50241681190E+02 -0.14510162155E+03  0.25561782174E+03  0.30970839487E+03  0.83666671698E+02 0.  0.
         -6    2    1    2    0  501  0.37570938546E+02  0.12991963951E+03 -0.11726931462E+03  0.24772911021E+03  0.17125107807E+03 0.  0.
        -24    2    5    5    0    0 -0.19444492813E+02  0.14318315276E+03 -0.76587153990E+02  0.17628816683E+03  0.65821136990E+02 0.  0.
          5    1    3    3  502    0  0.12670742644E+02  0.15181982038E+02 -0.68130583721E+01  0.21437072145E+02  0.47000000000E+01 0. -1.
        -11    1    4    4    0    0 -0.22532116415E+02 -0.28875591526E+01  0.73822793559E+02  0.77238844611E+02  0.00000000000E+00 0.  1.
         12    1    4    4    0    0 -0.27709564775E+02 -0.14221406240E+03  0.18179502818E+03  0.23246955026E+03  0.00000000000E+00 0. -1.
         -5    1    5    5    0  501  0.57015431359E+02 -0.13263513246E+02 -0.40682160633E+02  0.71440943376E+02  0.47000000000E+01 0.  1.
         13    1    6    6    0    0 -0.20059337687E+02  0.45137112136E+02 -0.58538179484E+02  0.76592782805E+02  0.00000000000E+00 0. -1.
        -14    1    6    6    0    0  0.61484487433E+00  0.98046040623E+02 -0.18048974505E+02  0.99695384029E+02  0.00000000000E+00 0.  1.
</event>
<event>
12    1  0.1348628E-002  0.1735079E+03  0.7818608E-02  0.1174238E+00
         -1   -1    0    0    0  501 -0.00000000000E+00  0.00000000000E+00  0.12266962729E+03  0.12266962729E+03  0.00000000000E+00 0. -1.
          1   -1    0    0  502    0  0.00000000000E+00 -0.00000000000E+00 -0.44234163338E+03  0.44234163338E+03  0.00000000000E+00 0.  1.
          6    2    1    2  502    0  0.19212791748E+02 -0.11882117850E+02  0.28917243724E+02  0.17540092680E+03  0.17151956753E+03 0.  0.
         24    2    3    3    0    0 -0.44904695837E+02 -0.12374003462E+02  0.54456858862E+02  0.10622249008E+03  0.78409949949E+02 0.  0.
         -6    2    1    2    0  501 -0.19212791748E+02  0.11882117850E+02 -0.34858924981E+03  0.38961033387E+03  0.17254399752E+03 0.  0.
        -24    2    5    5    0    0  0.44218696111E+02  0.18049128990E+02 -0.28236023299E+03  0.29757795724E+03  0.80896695350E+02 0.  0.
          5    1    3    3  502    0  0.64117487585E+02  0.49188561177E+00 -0.25539615138E+02  0.69178436721E+02  0.47000000000E+01 0. -1.
        -13    1    4    4    0    0  0.28735947240E+01  0.22974147914E+02 -0.32537159981E+01  0.23380669084E+02  0.00000000000E+00 0.  1.
         14    1    4    4    0    0 -0.47778290561E+02 -0.35348151376E+02  0.57710574860E+02  0.82841820993E+02  0.00000000000E+00 0. -1.
         -5    1    5    5    0  501 -0.63431487859E+02 -0.61670111399E+01 -0.66229016822E+02  0.92032376627E+02  0.47000000000E+01 0.  1.
         11    1    6    6    0    0  0.10775318928E+02 -0.79551083102E+01 -0.14280940336E+01  0.13469621331E+02  0.00000000000E+00 0. -1.
        -12    1    6    6    0    0  0.33443377183E+02  0.26004237300E+02 -0.28093213896E+03  0.28410833591E+03  0.00000000000E+00 0.  1.
</event>
<event>
12    1  0.1348628E-002  0.1762594E+03  0.7818608E-02  0.1171473E+00
          2   -1    0    0  502    0  0.00000000000E+00  0.00000000000E+00  0.12245155473E+03  0.12245155473E+03  0.00000000000E+00 0. -1.
         -2   -1    0    0    0  501 -0.00000000000E+00 -0.00000000000E+00 -0.26348471715E+03  0.26348471715E+03  0.00000000000E+00 0.  1.
          6    2    1    2  502    0 -0.17007116079E+01  0.46100655843E+02 -0.10791624196E+03  0.20720810326E+03  0.17076627269E+03 0.  0.
         24    2    3    3    0    0  0.36398059590E+02 -0.11376798705E+02 -0.10197450091E+02  0.87515887838E+02  0.78107569064E+02 0.  0.
         -6    2    1    2    0  501  0.17007116079E+01 -0.46100655843E+02 -0.33116920457E+02  0.17872816861E+03  0.16946641244E+03 0.  0.
        -24    2    5    5    0    0  0.70682778509E+01  0.36376105751E+02 -0.10016359510E+02  0.92780784207E+02  0.84467537189E+02 0.  0.
          5    1    3    3  502    0 -0.38098771198E+02  0.57477454548E+02 -0.97718791873E+02  0.11969221542E+03  0.47000000000E+01 0. -1.
        -13    1    4    4    0    0  0.54688272325E+02 -0.28653064655E+02 -0.81042533159E+01  0.62269448093E+02  0.00000000000E+00 0.  1.
         14    1    4    4    0    0 -0.18290212735E+02  0.17276265949E+02 -0.20931967751E+01  0.25246439745E+02  0.00000000000E+00 0. -1.
         -5    1    5    5    0  501 -0.53675662431E+01 -0.82476761594E+02 -0.23100560947E+02  0.85947384408E+02  0.47000000000E+01 0.  1.
         11    1    6    6    0    0  0.22119711339E+02 -0.21108477390E+02  0.61735527923E+01  0.31192342034E+02  0.00000000000E+00 0. -1.
        -12    1    6    6    0    0 -0.15051433488E+02  0.57484583141E+02 -0.16189912302E+02  0.61588442173E+02  0.00000000000E+00 0.  1.
</event>
<event>
12    1  0.1348628E-002  0.1774681E+03  0.7818608E-02  0.1170276E+00
          2   -1    0    0  502    0  0.00000000000E+00  0.00000000000E+00  0.44130599424E+03  0.44130599424E+03  0.00000000000E+00 0. -1.
         -2   -1    0    0    0  501 -0.00000000000E+00 -0.00000000000E+00 -0.77644010952E+02  0.77644010952E+02  0.00000000000E+00 0.  1.
          6    2    1    2  502    0  0.14220843471E+02  0.23127400868E+02  0.11331825460E+03  0.21500369361E+03  0.18068882750E+03 0.  0.
         24    2    3    3    0    0 -0.31442091918E+02 -0.18875486521E+02  0.13541586380E+01  0.86912339486E+02  0.78784718529E+02 0.  0.
         -6    2    1    2    0  501 -0.14220843471E+02 -0.23127400868E+02  0.25034372868E+03  0.30394631157E+03  0.17021829740E+03 0.  0.
        -24    2    5    5    0    0  0.45474266355E+02 -0.10550553372E+02  0.75935382414E+02  0.11911653995E+03  0.79014838547E+02 0.  0.
          5    1    3    3  502    0  0.45662935389E+02  0.42002887389E+02  0.11196409596E+03  0.12809135413E+03  0.47000000000E+01 0. -1.
        -13    1    4    4    0    0  0.17343233023E+02 -0.11539462363E+02 -0.23722816026E+02  0.31570855603E+02  0.00000000000E+00 0.  1.
         14    1    4    4    0    0 -0.48785324941E+02 -0.73360241581E+01  0.25076974664E+02  0.55341483883E+02  0.00000000000E+00 0. -1.
         -5    1    5    5    0  501 -0.59695109826E+02 -0.12576847496E+02  0.17440834627E+03  0.18482977162E+03  0.47000000000E+01 0.  1.
         11    1    6    6    0    0  0.23445627389E+02 -0.39291385530E+02  0.68137647659E+02  0.82074657776E+02  0.00000000000E+00 0. -1.
        -12    1    6    6    0    0  0.22028638966E+02  0.28740832158E+02  0.77977347556E+01  0.37041882176E+02  0.00000000000E+00 0.  1.
</event>
<event>
12    1  0.1348628E-002  0.1737589E+03  0.7818608E-02  0.1173984E+00
         -2   -1    0    0    0  501 -0.00000000000E+00  0.00000000000E+00  0.70345047030E+02  0.70345047030E+02  0.00000000000E+00 0. -1.
          2   -1    0    0  502    0  0.00000000000E+00 -0.00000000000E+00 -0.70485879217E+03  0.70485879217E+03  0.00000000000E+00 0.  1.
          6    2    1    2  502    0 -0.17275081103E+02  0.14605635099E+02 -0.55995650276E+03  0.58637838859E+03  0.17255890768E+03 0.  0.
         24    2    3    3    0    0 -0.61216192348E+01 -0.54331000678E+02 -0.38439788764E+03  0.39738215369E+03  0.84625694634E+02 0.  0.
         -6    2    1    2    0  501  0.17275081103E+02 -0.14605635099E+02 -0.74557242379E+02  0.18882545061E+03  0.17200149826E+03 0.  0.
        -24    2    5    5    0    0  0.39756012188E+02  0.51861597946E+02 -0.55334397884E+02  0.11592213737E+03  0.78140133709E+02 0.  0.
          5    1    3    3  502    0 -0.11153461868E+02  0.68936635777E+02 -0.17555861512E+03  0.18899623490E+03  0.47000000000E+01 0. -1.
        -11    1    4    4    0    0  0.14220652216E+02  0.17640750757E+02 -0.13917360210E+03  0.14100607987E+03  0.00000000000E+00 0.  1.
         12    1    4    4    0    0 -0.20342271451E+02 -0.71971751435E+02 -0.24522428553E+03  0.25637607382E+03  0.00000000000E+00 0. -1.
         -5    1    5    5    0  501 -0.22480931085E+02 -0.66467233044E+02 -0.19222844495E+02  0.72903313241E+02  0.47000000000E+01 0.  1.
         13    1    6    6    0    0  0.25817439813E+02  0.58285451053E+02 -0.70011955913E+02  0.94685838295E+02  0.00000000000E+00 0. -1.
        -14    1    6    6    0    0  0.13938572375E+02 -0.64238531071E+01  0.14677558029E+02  0.21236299072E+02  0.00000000000E+00 0.  1.
</event>
<event>
12    1  0.1348628E-002  0.2143773E+03  0.7818608E-02  0.1138146E+00
          4   -1    0    0  502    0  0.00000000000E+00  0.00000000000E+00  0.66942917963E+02  0.66942917963E+02  0.00000000000E+00 0.  1.
         -4   -1    0    0    0  501 -0.00000000000E+00 -0.00000000000E+00 -0.11985174234E+04  0.11985174234E+04  0.00000000000E+00 0. -1.
          6    2    1    2  502    0 -0.34860140795E+02 -0.12164183649E+03 -0.97804771681E+03  0.10010852903E+04  0.17199551255E+03 0.  0.
         24    2    3    3    0    0 -0.16811979692E+02 -0.84189727109E+02 -0.34165333285E+03  0.36331707337E+03  0.88891749573E+02 0.  0.
         -6    2    1    2    0  501  0.34860140795E+02  0.12164183649E+03 -0.15352678865E+03  0.26437505107E+03  0.17410263350E+03 0.  0.
        -24    2    5    5    0    0 -0.12041861860E+02  0.11549076469E+03 -0.48760417993E+02  0.14932846938E+03  0.80238957118E+02 0.  0.
          5    1    3    3  502    0 -0.18048161102E+02 -0.37452109378E+02 -0.63639438396E+03  0.63776821695E+03  0.47000000000E+01 0. -1.
        -11    1    4    4    0    0  0.29912291307E+02 -0.44471092830E+02 -0.22756988175E+03  0.23379579626E+03  0.00000000000E+00 0.  1.
         12    1    4    4    0    0 -0.46724270999E+02 -0.39718634279E+02 -0.11408345110E+03  0.12952127711E+03  0.00000000000E+00 0. -1.
         -5    1    5    5    0  501  0.46902002655E+02  0.61510717994E+01 -0.10476637065E+03  0.11504658168E+03  0.47000000000E+01 0.  1.
         13    1    6    6    0    0  0.77683890874E+01  0.21578109892E+02 -0.48166078203E+02  0.53347294074E+02  0.00000000000E+00 0. -1.
        -14    1    6    6    0    0 -0.19810250947E+02  0.93912654796E+02 -0.59433978979E+00  0.95981175307E+02  0.00000000000E+00 0.  1.
</event>
<event>
12    1  0.1348628E-002  0.2455822E+03  0.7818608E-02  0.1116129E+00
          3   -1    0    0  502    0  0.00000000000E+00  0.00000000000E+00  0.20218478809E+03  0.20218478809E+03  0.00000000000E+00 0.  1.
         -3   -1    0    0    0  501 -0.00000000000E+00 -0.00000000000E+00 -0.34445275225E+03  0.34445275225E+03  0.00000000000E+00 0. -1.
          6    2    1    2  502    0  0.14346755064E+03 -0.10270325140E+03 -0.17141064393E+03  0.30023676902E+03  0.17213254394E+03 0.  0.
         24    2    3    3    0    0  0.11066629432E+03 -0.11572352915E+02 -0.49202745908E+02  0.14423156585E+03  0.77465387965E+02 0.  0.
         -6    2    1    2    0  501 -0.14346755064E+03  0.10270325140E+03  0.29142679771E+02  0.24640077132E+03  0.16950854960E+03 0.  0.
        -24    2    5    5    0    0 -0.11653555063E+03  0.13842208399E+03  0.36922546961E+02  0.20075228876E+03  0.78721020508E+02 0.  0.
          5    1    3    3  502    0  0.32801256314E+02 -0.91130898481E+02 -0.12220789803E+03  0.15600520316E+03  0.47000000000E+01 0. -1.
        -11    1    4    4    0    0 -0.10341366271E+02  0.71351999551E+01 -0.87590966753E+00  0.12594528673E+02  0.00000000000E+00 0.  1.
         12    1    4    4    0    0  0.12100766059E+03 -0.18707552870E+02 -0.48326836240E+02  0.13163703718E+03  0.00000000000E+00 0. -1.
         -5    1    5    5    0  501 -0.26932000004E+02 -0.35718832597E+02 -0.77798671895E+01  0.45648482557E+02  0.47000000000E+01 0.  1.
         13    1    6    6    0    0 -0.12425404001E+03  0.14031553041E+03  0.40946898782E+02  0.19184411133E+03  0.00000000000E+00 0. -1.
        -14    1    6    6    0    0  0.77184893716E+01 -0.18934464190E+01 -0.40243518217E+01  0.89081774289E+01  0.00000000000E+00 0.  1.
</event>
<event>
12    1  0.1348628E-002  0.1869668E+03  0.7818608E-02  0.1161226E+00
          2   -1    0    0  502    0  0.00000000000E+00  0.00000000000E+00  0.38025742516E+03  0.38025742516E+03  0.00000000000E+00 0. -1.
         -2   -1    0    0    0  501 -0.00000000000E+00 -0.00000000000E+00 -0.16306200760E+03  0.16306200760E+03  0.00000000000E+00 0.  1.
          6    2    1    2  502    0  0.71138680061E+02  0.30302340606E+02  0.28873551727E+03  0.34521781688E+03  0.17270842051E+03 0.  0.
         24    2    3    3    0    0  0.14560892041E+01  0.67443844623E+02  0.20037259989E+03  0.22662081036E+03  0.81590566406E+02 0.  0.
         -6    2    1    2    0  501 -0.71138680061E+02 -0.30302340606E+02 -0.71540099707E+02  0.19810161588E+03  0.16777163258E+03 0.  0.
        -24    2    5    5    0    0 -0.44449702956E+02  0.46726195456E+02 -0.46076312134E+02  0.11256687823E+03  0.79932234422E+02 0.  0.
          5    1    3    3  502    0  0.69682590857E+02 -0.37141504018E+02  0.88362917376E+02  0.11859700652E+03  0.47000000000E+01 0. -1.
        -11    1    4    4    0    0  0.28758183242E+02  0.84361846413E+01  0.23216675388E+02  0.37910636116E+02  0.00000000000E+00 0.  1.
         12    1    4    4    0    0 -0.27302094038E+02  0.59007659982E+02  0.17715592451E+03  0.18871017424E+03  0.00000000000E+00 0. -1.
         -5    1    5    5    0  501 -0.26688977105E+02 -0.77028536061E+02 -0.25463787573E+02  0.85534737647E+02  0.47000000000E+01 0.  1.
         13    1    6    6    0    0 -0.22115953074E+02  0.48897809786E+02  0.77755740941E+01  0.54227029559E+02  0.00000000000E+00 0. -1.
        -14    1    6    6    0    0 -0.22333749882E+02 -0.21716143308E+01 -0.53851886228E+02  0.58339848670E+02  0.00000000000E+00 0.  1.
</event>
<event>
12    1  0.1348628E-002  0.2334898E+03  0.7818608E-02  0.1124207E+00
          2   -1    0    0  502    0  0.00000000000E+00  0.00000000000E+00  0.29463396872E+03  0.29463396872E+03  0.00000000000E+00 0.  1.
         -2   -1    0    0    0  501 -0.00000000000E+00 -0.00000000000E+00 -0.18732660993E+03  0.18732660993E+03  0.00000000000E+00 0. -1.
          6    2    1    2  502    0  0.11122947142E+02  0.15656388422E+03  0.80263236680E+02  0.24671055385E+03  0.17259183185E+03 0.  0.
         24    2    3    3    0    0  0.30355630222E+02  0.85341658066E+02  0.11347029050E+03  0.16567167416E+03  0.79793069289E+02 0.  0.
         -6    2    1    2    0  501 -0.11122947142E+02 -0.15656388422E+03  0.27044122112E+02  0.23525002479E+03  0.17313353179E+03 0.  0.
        -24    2    5    5    0    0 -0.16016614780E+02 -0.40156434160E+02 -0.42421287707E+02  0.99521709492E+02  0.78967929288E+02 0.  0.
          5    1    3    3  502    0 -0.19232683081E+02  0.71222226159E+02 -0.33207053818E+02  0.81038879686E+02  0.47000000000E+01 0. -1.
        -13    1    4    4    0    0 -0.18961736567E+02  0.36018374378E+02  0.76679967058E+02  0.86814100781E+02  0.00000000000E+00 0.  1.
         14    1    4    4    0    0  0.49317366789E+02  0.49323283688E+02  0.36790323440E+02  0.78857573382E+02  0.00000000000E+00 0. -1.
         -5    1    5    5    0  501  0.48936676384E+01 -0.11640745006E+03  0.69465409819E+02  0.13572831530E+03  0.47000000000E+01 0.  1.
         11    1    6    6    0    0 -0.59535888948E+01 -0.62723578075E+02 -0.19858465895E+02  0.66060965290E+02  0.00000000000E+00 0. -1.
        -12    1    6    6    0    0 -0.10063025885E+02  0.22567143915E+02 -0.22562821813E+02  0.33460744203E+02  0.00000000000E+00 0.  1.
</event>
<event>
12    1  0.1348628E-002  0.1864270E+03  0.7818608E-02  0.1161724E+00
         -1   -1    0    0    0  501 -0.00000000000E+00  0.00000000000E+00  0.45096054632E+03  0.45096054632E+03  0.00000000000E+00 0. -1.
          1   -1    0    0  502    0  0.00000000000E+00 -0.00000000000E+00 -0.91493539138E+02  0.91493539138E+02  0.00000000000E+00 0.  1.
          6    2    1    2  502    0  0.56790163684E+02  0.43616424089E+02  0.28732589461E+03  0.34243934239E+03  0.17199133222E+03 0.  0.
         24    2    3    3    0    0  0.42015265751E+02  0.83451806117E+02  0.26916880730E+03  0.29599663478E+03  0.80203955495E+02 0.  0.
         -6    2    1    2    0  501 -0.56790163684E+02 -0.43616424089E+02  0.72141112565E+02  0.20001474307E+03  0.17226155166E+03 0.  0.
        -24    2    5    5    0    0 -0.51034622850E+02 -0.17655369310E+02 -0.24746627484E+02  0.99434293739E+02  0.79740443971E+02 0.  0.
          5    1    3    3  502    0  0.14774897934E+02 -0.39835382028E+02  0.18157087316E+02  0.46442707609E+02  0.47000000000E+01 0. -1.
        -11    1    4    4    0    0  0.66067974296E+02  0.62869243052E+02  0.19083109142E+03  0.21150419477E+03  0.00000000000E+00 0.  1.
         12    1    4    4    0    0 -0.24052708546E+02  0.20582563065E+02  0.78337715875E+02  0.84492440012E+02  0.00000000000E+00 0. -1.
         -5    1    5    5    0  501 -0.57555408342E+01 -0.25961054779E+02  0.96887740048E+02  0.10058044933E+03  0.47000000000E+01 0.  1.
         13    1    6    6    0    0  0.66838579244E+01  0.22513357573E+02  0.33233463685E+01  0.23718555122E+02  0.00000000000E+00 0. -1.
        -14    1    6    6    0    0 -0.57718480775E+02 -0.40168726883E+02 -0.28069973852E+02  0.75715738618E+02  0.00000000000E+00 0.  1.
</event>
<event>
12    1  0.1348628E-002  0.2689750E+03  0.7818608E-02  0.1101868E+00
          2   -1    0    0  502    0  0.00000000000E+00  0.00000000000E+00  0.73055171697E+03  0.73055171697E+03  0.00000000000E+00 0.  1.
         -2   -1    0    0    0  501 -0.00000000000E+00 -0.00000000000E+00 -0.10872333307E+03  0.10872333307E+03  0.00000000000E+00 0. -1.
          6    2    1    2  502    0 -0.17345696972E+03  0.11393161836E+03  0.43691520303E+03  0.51342842410E+03  0.17218048098E+03 0.  0.
         24    2    3    3    0    0 -0.14238464069E+02  0.59962772372E+02  0.17473670077E+03  0.20194355140E+03  0.80311988043E+02 0.  0.
         -6    2    1    2    0  501  0.17345696972E+03 -0.11393161836E+03  0.18491318087E+03  0.32584662594E+03  0.17004530328E+03 0.  0.
        -24    2    5    5    0    0  0.17963899695E+03 -0.52594742661E+02  0.15944606797E+03  0.25898038916E+03  0.81310621671E+02 0.  0.
          5    1    3    3  502    0 -0.15921850565E+03  0.53968845991E+02  0.26217850225E+03  0.31148487270E+03  0.47000000000E+01 0. -1.
        -11    1    4    4    0    0  0.26092831510E+02  0.89299236387E+01  0.95636755287E+02  0.99533754848E+02  0.00000000000E+00 0.  1.
         12    1    4    4    0    0 -0.40331295579E+02  0.51032848733E+02  0.79099945488E+02  0.10240979655E+03  0.00000000000E+00 0. -1.
         -5    1    5    5    0  501 -0.61820272323E+01 -0.61336875702E+02  0.25467112904E+02  0.66866236781E+02  0.47000000000E+01 0.  1.
         13    1    6    6    0    0  0.15444666373E+03 -0.73511320276E+02  0.12864304207E+03  0.21402504157E+03  0.00000000000E+00 0. -1.
        -14    1    6    6    0    0  0.25192333222E+02  0.20916577615E+02  0.30803025898E+02  0.44955347588E+02  0.00000000000E+00 0.  1.
</event>
<event>
12    1  0.1348628E-002  0.4475708E+03  0.7818608E-02  0.1028449E+00
         -2   -1    0    0    0  501 -0.00000000000E+00  0.00000000000E+00  0.97460303037E+02  0.97460303037E+02  0.00000000000E+00 0.  1.
          2   -1    0    0  502    0  0.00000000000E+00 -0.00000000000E+00 -0.21255016984E+04  0.21255016984E+04  0.00000000000E+00 0. -1.
          6    2    1    2  502    0  0.41044369507E+03  0.46885339408E+02 -0.81168527321E+03  0.92679928226E+03  0.17164400653E+03 0.  0.
         24    2    3    3    0    0  0.38038564485E+03  0.58018181925E+02 -0.80140966158E+03  0.89281245010E+03  0.82445601162E+02 0.  0.
         -6    2    1    2    0  501 -0.41044369507E+03 -0.46885339408E+02 -0.12163561221E+04  0.12961627192E+04  0.17278112401E+03 0.  0.
        -24    2    5    5    0    0 -0.31620848488E+03  0.19659568572E+02 -0.98125346545E+03  0.10342393548E+04  0.80114761535E+02 0.  0.
          5    1    3    3  502    0  0.30058050220E+02 -0.11132842517E+02 -0.10275611634E+02  0.33986832155E+02  0.47000000000E+01 0. -1.
        -11    1    4    4    0    0  0.91881324208E+02 -0.14548084571E+02 -0.24111598962E+03  0.25843905462E+03  0.00000000000E+00 0.  1.
         12    1    4    4    0    0  0.28850432064E+03  0.72566266496E+02 -0.56029367195E+03  0.63437339548E+03  0.00000000000E+00 0. -1.
         -5    1    5    5    0  501 -0.94235210183E+02 -0.66544907980E+02 -0.23510265668E+03  0.26192336435E+03  0.47000000000E+01 0.  1.
         13    1    6    6    0    0 -0.80514120804E+01 -0.13866251179E+02 -0.65996403186E+02  0.67916296953E+02  0.00000000000E+00 0. -1.
        -14    1    6    6    0    0 -0.30815707280E+03  0.33525819750E+02 -0.91525706226E+03  0.96632305785E+03  0.00000000000E+00 0.  1.
</event>
<event>
12    1  0.1348628E-002  0.1725523E+03  0.7818608E-02  0.1175212E+00
         -2   -1    0    0    0  501 -0.00000000000E+00  0.00000000000E+00  0.15337012944E+03  0.15337012944E+03  0.00000000000E+00 0.  1.
          2   -1    0    0  502    0  0.00000000000E+00 -0.00000000000E+00 -0.19633790022E+03  0.19633790022E+03  0.00000000000E+00 0. -1.
          6    2    1    2  502    0 -0.22998204023E+01  0.91974175378E+01 -0.39979177980E+02  0.17688284201E+03  0.17204453918E+03 0.  0.
         24    2    3    3    0    0  0.27969409631E+02  0.61939531447E+02  0.53466417261E-02  0.10395267627E+03  0.78659808309E+02 0.  0.
         -6    2    1    2    0  501  0.22998204023E+01 -0.91974175378E+01 -0.29885928022E+01  0.17282518765E+03  0.17253907423E+03 0.  0.
        -24    2    5    5    0    0  0.18617343449E+01 -0.54259215930E+02 -0.49537988481E+02  0.10786601715E+03  0.78952750332E+02 0.  0.
          5    1    3    3  502    0 -0.30269230033E+02 -0.52742113909E+02 -0.39984524621E+02  0.72930165745E+02  0.47000000000E+01 0. -1.
        -11    1    4    4    0    0  0.18097927290E+01  0.74700134867E+02  0.22902028856E+01  0.74757143659E+02  0.00000000000E+00 0.  1.
         12    1    4    4    0    0  0.26159616902E+02 -0.12760603420E+02 -0.22848562439E+01  0.29195532606E+02  0.00000000000E+00 0. -1.
         -5    1    5    5    0  501  0.43808605741E+00  0.45061798393E+02  0.46549395679E+02  0.64959170498E+02  0.47000000000E+01 0.  1.
         13    1    6    6    0    0  0.14095117297E+02 -0.71557204717E+02 -0.29398006433E+02  0.78634271540E+02  0.00000000000E+00 0. -1.
        -14    1    6    6    0    0 -0.12233382952E+02  0.17297988786E+02 -0.20139982048E+02  0.29231745610E+02  0.00000000000E+00 0.  1.
</event>
<event>
12    1  0.1348628E-002  0.2081208E+03  0.7818608E-02  0.1143063E+00
          2   -1    0    0  502    0  0.00000000000E+00  0.00000000000E+00  0.54304191610E+03  0.54304191610E+03  0.00000000000E+00 0.  1.
         -2   -1    0    0    0  501 -0.00000000000E+00 -0.00000000000E+00 -0.80049151745E+02  0.80049151745E+02  0.00000000000E+00 0. -1.
          6    2    1    2  502    0 -0.12012634861E+03 -0.33126541119E+01  0.24627764373E+03  0.32052638079E+03  0.16626235193E+03 0.  0.
         24    2    3    3    0    0 -0.10561019060E+03  0.58179934833E+02  0.15643759275E+03  0.21059284588E+03  0.73063049014E+02 0.  0.
         -6    2    1    2    0  501  0.12012634861E+03  0.33126541119E+01  0.21671512062E+03  0.30256468706E+03  0.17360481860E+03 0.  0.
        -24    2    5    5    0    0  0.66522017637E+02 -0.63441708380E+02  0.98018984609E+02  0.15613917044E+03  0.79509056157E+02 0.  0.
          5    1    3    3  502    0 -0.14516158008E+02 -0.61492588944E+02  0.89840050980E+02  0.10993353491E+03  0.47000000000E+01 0. -1.
        -13    1    4    4    0    0 -0.64183302568E+02  0.29788345263E+02  0.14148427035E+03  0.15819178423E+03  0.00000000000E+00 0.  1.
         14    1    4    4    0    0 -0.41426888033E+02  0.28391589569E+02  0.14953322404E+02  0.52401061643E+02  0.00000000000E+00 0. -1.
         -5    1    5    5    0  501  0.53604330972E+02  0.66754362492E+02  0.11869613601E+03  0.14642551661E+03  0.47000000000E+01 0.  1.
         11    1    6    6    0    0  0.68426145595E+02 -0.48272005772E+02  0.10890001432E+03  0.13737371314E+03  0.00000000000E+00 0. -1.
        -12    1    6    6    0    0 -0.19041279579E+01 -0.15169702608E+02 -0.10881029709E+02  0.18765457309E+02  0.00000000000E+00 0.  1.
</event>
<event>
12    1  0.1348628E-002  0.1847078E+03  0.7818608E-02  0.1163323E+00
          2   -1    0    0  502    0  0.00000000000E+00  0.00000000000E+00  0.11572605053E+03  0.11572605053E+03  0.00000000000E+00 0. -1.
         -2   -1    0    0    0  501 -0.00000000000E+00 -0.00000000000E+00 -0.46375487299E+03  0.46375487299E+03  0.00000000000E+00 0.  1.
          6    2    1    2  502    0 -0.51439551500E+02 -0.34928811237E+02 -0.54989893646E+00  0.18703182329E+03  0.17639317226E+03 0.  0.
         24    2    3    3    0    0 -0.76408517717E+01 -0.82991862948E+02  0.24565547206E+02  0.11716581816E+03  0.78602359407E+02 0.  0.
         -6    2    1    2    0  501  0.51439551500E+02  0.34928811237E+02 -0.34747892353E+03  0.39244910023E+03  0.17148948848E+03 0.  0.
        -24    2    5    5    0    0  0.33716677052E+02 -0.31747113868E+02 -0.10135666664E+03  0.13679692519E+03  0.79344384287E+02 0.  0.
          5    1    3    3  502    0 -0.43798699728E+02  0.48063051711E+02 -0.25115446143E+02  0.69866005128E+02  0.47000000000E+01 0. -1.
        -11    1    4    4    0    0 -0.32218398766E+02 -0.91123869178E+01 -0.50546275714E+01  0.33861631299E+02  0.00000000000E+00 0.  1.
         12    1    4    4    0    0  0.24577546994E+02 -0.73879476030E+02  0.29620174778E+02  0.83304186861E+02  0.00000000000E+00 0. -1.
         -5    1    5    5    0  501  0.17722874448E+02  0.66675925105E+02 -0.24612225689E+03  0.25565217504E+03  0.47000000000E+01 0.  1.
         11    1    6    6    0    0  0.46798208560E+02 -0.20336820606E+02 -0.10700009253E+03  0.11854399352E+03  0.00000000000E+00 0. -1.
        -12    1    6    6    0    0 -0.13081531508E+02 -0.11410293262E+02  0.56434258890E+01  0.18252931674E+02  0.00000000000E+00 0.  1.
</event>
<event>
12    1  0.1348628E-002  0.1729365E+03  0.7818608E-02  0.1174820E+00
         -2   -1    0    0    0  501 -0.00000000000E+00  0.00000000000E+00  0.42897831069E+02  0.42897831069E+02  0.00000000000E+00 0.  1.
          2   -1    0    0  502    0  0.00000000000E+00 -0.00000000000E+00 -0.10082126935E+04  0.10082126935E+04  0.00000000000E+00 0. -1.
          6    2    1    2  502    0 -0.15965301885E+02  0.88635958901E+01 -0.19054355825E+03  0.25725050067E+03  0.17186482568E+03 0.  0.
         24    2    3    3    0    0  0.35148475170E+02 -0.15274312806E+02 -0.17794132676E+03  0.19914574114E+03  0.80791029879E+02 0.  0.
         -6    2    1    2    0  501  0.15965301885E+02 -0.88635958901E+01 -0.77477130420E+03  0.79386002392E+03  0.17207472089E+03 0.  0.
        -24    2    5    5    0    0  0.35956437463E+02 -0.66998129372E+00 -0.19577565373E+03  0.21444235583E+03  0.79775328980E+02 0.  0.
          5    1    3    3  502    0 -0.51113777054E+02  0.24137908696E+02 -0.12602231494E+02  0.58104759526E+02  0.47000000000E+01 0. -1.
        -13    1    4    4    0    0  0.33053598244E+02 -0.32088424492E+02 -0.42591643461E+02  0.62739584283E+02  0.00000000000E+00 0.  1.
         14    1    4    4    0    0  0.20948769262E+01  0.16814111687E+02 -0.13534968329E+03  0.13640615686E+03  0.00000000000E+00 0. -1.
         -5    1    5    5    0  501 -0.19991135578E+02 -0.81936145964E+01 -0.57899565047E+03  0.57941766809E+03  0.47000000000E+01 0.  1.
         13    1    6    6    0    0 -0.12913357613E+02  0.25395634096E+02 -0.39967020832E+02  0.49082133106E+02  0.00000000000E+00 0. -1.
        -14    1    6    6    0    0  0.48869795076E+02 -0.26065615390E+02 -0.15580863289E+03  0.16536022273E+03  0.00000000000E+00 0.  1.
</event>
<event>
12    1  0.1348628E-002  0.3535456E+03  0.7818608E-02  0.1061169E+00
         -2   -1    0    0    0  501 -0.00000000000E+00  0.00000000000E+00  0.10176429592E+04  0.10176429592E+04  0.00000000000E+00 0. -1.
          2   -1    0    0  502    0  0.00000000000E+00 -0.00000000000E+00 -0.29179436162E+03  0.29179436162E+03  0.00000000000E+00 0.  1.
          6    2    1    2  502    0 -0.27838979180E+03 -0.13292615712E+03 -0.13545087197E+03  0.37825874884E+03  0.17193749716E+03 0.  0.
         24    2    3    3    0    0 -0.29460473838E+03 -0.10888731973E+03 -0.12631677787E+03  0.34749656636E+03  0.78418970828E+02 0.  0.
         -6    2    1    2    0  501  0.27838979180E+03  0.13292615712E+03  0.86129946952E+03  0.93117857195E+03  0.17345465470E+03 0.  0.
        -24    2    5    5    0    0  0.13502213724E+03  0.11160567085E+03  0.62060726357E+03  0.65017381129E+03  0.82980756680E+02 0.  0.
          5    1    3    3  502    0  0.16214946582E+02 -0.24038837389E+02 -0.91340941063E+01  0.30762182478E+02  0.47000000000E+01 0. -1.
        -11    1    4    4    0    0 -0.27677888636E+03 -0.11989251175E+03 -0.11044869634E+03  0.32121594112E+03  0.00000000000E+00 0.  1.
         12    1    4    4    0    0 -0.17825852021E+02  0.11005192015E+02 -0.15868081522E+02  0.26280625235E+02  0.00000000000E+00 0. -1.
         -5    1    5    5    0  501  0.14336765456E+03  0.21320486271E+02  0.24069220595E+03  0.28100476066E+03  0.47000000000E+01 0.  1.
         13    1    6    6    0    0  0.59363560731E+02  0.30475995679E+02  0.11886865997E+03  0.13631792611E+03  0.00000000000E+00 0. -1.
        -14    1    6    6    0    0  0.75658576507E+02  0.81129675171E+02  0.50173860360E+03  0.51385588518E+03  0.00000000000E+00 0.  1.
</event>
<event>
12    1  0.1348628E-002  0.2285622E+03  0.7818608E-02  0.1127656E+00
         -3   -1    0    0    0  501 -0.00000000000E+00  0.00000000000E+00  0.18086483257E+03  0.18086483257E+03  0.00000000000E+00 0.  1.
          3   -1    0    0  502    0  0.00000000000E+00 -0.00000000000E+00 -0.28895693249E+03  0.28895693249E+03  0.00000000000E+00 0. -1.
          6    2    1    2  502    0  0.67698746324E+02  0.13473246072E+03 -0.58818312227E+02  0.23604730774E+03  0.17182194683E+03 0.  0.
         24    2    3    3    0    0  0.97965755416E+02  0.14769798134E+03 -0.58046615039E+02  0.20277747034E+03  0.79607223509E+02 0.  0.
         -6    2    1    2    0  501 -0.67698746324E+02 -0.13473246072E+03 -0.49273787693E+02  0.23377445731E+03  0.17171672753E+03 0.  0.
        -24    2    5    5    0    0 -0.68593594272E+02 -0.16582830470E+03 -0.36907802303E+02  0.19996972599E+03  0.80134871476E+02 0.  0.
          5    1    3    3  502    0 -0.30267009092E+02 -0.12965520614E+02 -0.77169718829E+00  0.33269837401E+02  0.47000000000E+01 0. -1.
        -13    1    4    4    0    0  0.74714744476E+02  0.51501931942E+02 -0.49689562728E+02  0.10345914498E+03  0.00000000000E+00 0.  1.
         14    1    4    4    0    0  0.23251010940E+02  0.96196049397E+02 -0.83570523109E+01  0.99318325362E+02  0.00000000000E+00 0. -1.
         -5    1    5    5    0  501  0.89484794721E+00  0.31095843975E+02 -0.12365985390E+02  0.33804731326E+02  0.47000000000E+01 0.  1.
         11    1    6    6    0    0 -0.47001059207E+02 -0.26889692078E+02 -0.22461277722E+02  0.58623068015E+02  0.00000000000E+00 0. -1.
        -12    1    6    6    0    0 -0.21592535065E+02 -0.13893861262E+03 -0.14446524581E+02  0.14134665797E+03  0.00000000000E+00 0.  1.
</event>
<event>
12    1  0.1348628E-002  0.1825992E+03  0.7818608E-02  0.1165311E+00
         -3   -1    0    0    0  501 -0.00000000000E+00  0.00000000000E+00  0.66674347894E+02  0.66674347894E+02  0.00000000000E+00 0. -1.
          3   -1    0    0  502    0  0.00000000000E+00 -0.00000000000E+00 -0.55291553532E+03  0.55291553532E+03  0.00000000000E+00 0.  1.
          6    2    1    2  502    0  0.17439709840E+02 -0.62011133393E+02 -0.33776927879E+03  0.38353268261E+03  0.16988145512E+03 0.  0.
         24    2    3    3    0    0  0.43326159766E+01  0.32121233841E+02 -0.17659889489E+03  0.19636783250E+03  0.79514846036E+02 0.  0.
         -6    2    1    2    0  501 -0.17439709840E+02  0.62011133393E+02 -0.14847190863E+03  0.23605720060E+03  0.17184170087E+03 0.  0.
        -24    2    5    5    0    0 -0.77939385806E+01  0.37768027172E+02 -0.47291531887E+01  0.89890039974E+02  0.81059762160E+02 0.  0.
          5    1    3    3  502    0  0.13107093864E+02 -0.94132367234E+02 -0.16117038390E+03  0.18716485011E+03  0.47000000000E+01 0. -1.
        -13    1    4    4    0    0 -0.20010164677E+02  0.32636603038E+02 -0.16502783095E+03  0.16940997472E+03  0.00000000000E+00 0.  1.
         14    1    4    4    0    0  0.24342780653E+02 -0.51536919638E+00 -0.11571063946E+02  0.26957857782E+02  0.00000000000E+00 0. -1.
         -5    1    5    5    0  501 -0.96457712599E+01  0.24243106220E+02 -0.14374275545E+03  0.14616716063E+03  0.47000000000E+01 0.  1.
         13    1    6    6    0    0 -0.44087256563E+02  0.15044594990E+02  0.15651185797E+01  0.46609823276E+02  0.00000000000E+00 0. -1.
        -14    1    6    6    0    0  0.36293317982E+02  0.22723432183E+02 -0.62942717684E+01  0.43280216698E+02  0.00000000000E+00 0.  1.
</event>
<event>
12    1  0.1348628E-002  0.4243515E+03  0.7818608E-02  0.1035659E+00
          2   -1    0    0  502    0  0.00000000000E+00  0.00000000000E+00  0.26241524417E+04  0.26241524417E+04  0.00000000000E+00 0. -1.
         -2   -1    0    0    0  501 -0.00000000000E+00 -0.00000000000E+00 -0.70322586648E+02  0.70322586648E+02  0.00000000000E+00 0.  1.
          6    2    1    2  502    0  0.38809487194E+03  0.25740593581E+02  0.14833960382E+04  0.15426180356E+04  0.16711190788E+03 0.  0.
         24    2    3    3    0    0  0.15722947683E+03 -0.38388081421E+02  0.73610906001E+03  0.75784339570E+03  0.79216860590E+02 0.  0.
         -6    2    1    2    0  501 -0.38809487194E+03 -0.25740593581E+02  0.10704338169E+04  0.11518569928E+04  0.17223753294E+03 0.  0.
        -24    2    5    5    0    0 -0.35735836166E+03  0.20174422997E+02  0.97373871583E+03  0.10403897134E+04  0.78304936160E+02 0.  0.
          5    1    3    3  502    0  0.23086539511E+03  0.64128675003E+02  0.74728697817E+03  0.78477463985E+03  0.47000000000E+01 0. -1.
        -11    1    4    4    0    0  0.12719074079E+01 -0.17185734941E+02  0.31870605857E+02  0.36231239996E+02  0.00000000000E+00 0.  1.
         12    1    4    4    0    0  0.15595756942E+03 -0.21202346480E+02  0.70423845415E+03  0.72161215571E+03  0.00000000000E+00 0. -1.
         -5    1    5    5    0  501 -0.30736510283E+02 -0.45915016578E+02  0.96695101029E+02  0.11146727939E+03  0.47000000000E+01 0.  1.
         13    1    6    6    0    0 -0.13652402149E+03 -0.16354204333E+01  0.48069435303E+03  0.49970845908E+03  0.00000000000E+00 0. -1.
        -14    1    6    6    0    0 -0.22083434017E+03  0.21809843430E+02  0.49304436280E+03  0.54068125431E+03  0.00000000000E+00 0.  1.
</event>
<event>
12    1  0.1348628E-002  0.2600841E+03  0.7818608E-02  0.1107093E+00
         -2   -1    0    0    0  501 -0.00000000000E+00  0.00000000000E+00  0.11721924003E+03  0.11721924003E+03  0.00000000000E+00 0. -1.
          2   -1    0    0  502    0  0.00000000000E+00 -0.00000000000E+00 -0.11073586229E+04  0.11073586229E+04  0.00000000000E+00 0.  1.
          6    2    1    2  502    0 -0.89389970683E+02 -0.17080600982E+03 -0.72880123107E+02  0.27157104097E+03  0.17684472878E+03 0.  0.
         24    2    3    3    0    0 -0.11433083776E+03 -0.18367052414E+03 -0.52111979540E+02  0.23634394392E+03  0.79601504480E+02 0.  0.
         -6    2    1    2    0  501  0.89389970683E+02  0.17080600982E+03 -0.91725925975E+03  0.95300682194E+03  0.17231422815E+03 0.  0.
        -24    2    5    5    0    0  0.51605975774E+02  0.19120883039E+03 -0.70593530313E+03  0.73731303437E+03  0.77857978917E+02 0.  0.
          5    1    3    3  502    0  0.24940867077E+02  0.12864514318E+02 -0.20768143566E+02  0.35227097047E+02  0.47000000000E+01 0. -1.
        -11    1    4    4    0    0  0.88842161679E+01 -0.73271094681E+01 -0.13562172693E+02  0.17791805929E+02  0.00000000000E+00 0.  1.
         12    1    4    4    0    0 -0.12321505393E+03 -0.17634341467E+03 -0.38549806848E+02  0.21855213799E+03  0.00000000000E+00 0. -1.
         -5    1    5    5    0  501  0.37783994909E+02 -0.20402820572E+02 -0.21132395661E+03  0.21569378757E+03  0.47000000000E+01 0.  1.
         13    1    6    6    0    0 -0.14623659486E+02  0.84006016125E+02 -0.24264536235E+03  0.25719182341E+03  0.00000000000E+00 0. -1.
        -14    1    6    6    0    0  0.66229635260E+02  0.10720281427E+03 -0.46328994079E+03  0.48012121095E+03  0.00000000000E+00 0.  1.
</event>
<event>
12    1  0.1348628E-002  0.1715828E+03  0.7818608E-02  0.1176207E+00
         -2   -1    0    0    0  501 -0.00000000000E+00  0.00000000000E+00  0.49180108928E+02  0.49180108928E+02  0.00000000000E+00 0.  1.
          2   -1    0    0  502    0  0.00000000000E+00 -0.00000000000E+00 -0.63103051471E+03  0.63103051471E+03  0.00000000000E+00 0. -1.
          6    2    1    2  502    0 -0.33892357243E+02  0.17365274096E+02 -0.21481460840E+03  0.27529783624E+03  0.16790871934E+03 0.  0.
         24    2    3    3    0    0  0.75005927233E+01 -0.84300851190E+01 -0.37196730438E+02  0.91045353390E+02  0.82330640664E+02 0.  0.
         -6    2    1    2    0  501  0.33892357243E+02 -0.17365274096E+02 -0.36703579738E+03  0.40491278740E+03  0.16669986268E+03 0.  0.
        -24    2    5    5    0    0  0.47820222570E+02  0.14279973353E+02 -0.35698470292E+03  0.36860133441E+03  0.77059550231E+02 0.  0.
          5    1    3    3  502    0 -0.41392949967E+02  0.25795359215E+02 -0.17761787796E+03  0.18425248285E+03  0.47000000000E+01 0. -1.
        -11    1    4    4    0    0  0.33237386401E+02 -0.30368286313E+02 -0.35234803346E+02  0.57170342270E+02  0.00000000000E+00 0.  1.
         12    1    4    4    0    0 -0.25736793678E+02  0.21938201194E+02 -0.19619270920E+01  0.33875011120E+02  0.00000000000E+00 0. -1.
         -5    1    5    5    0  501 -0.13927865327E+02 -0.31645247449E+02 -0.10051094462E+02  0.36311452994E+02  0.47000000000E+01 0.  1.
         13    1    6    6    0    0  0.39699311798E+02 -0.27878846690E+02 -0.20566831877E+03  0.21131190878E+03  0.00000000000E+00 0. -1.
        -14    1    6    6    0    0  0.81209107720E+01  0.42158820043E+02 -0.15131638415E+03  0.15728942562E+03  0.00000000000E+00 0.  1.
</event>
<event>
12    1  0.1348628E-002  0.1728099E+03  0.7818608E-02  0.1174949E+00
         -3   -1    0    0    0  501 -0.00000000000E+00  0.00000000000E+00  0.82756083775E+02  0.82756083775E+02  0.00000000000E+00 0.  1.
          3   -1    0    0  502    0  0.00000000000E+00 -0.00000000000E+00 -0.48837399910E+03  0.48837399910E+03  0.00000000000E+00 0. -1.
          6    2    1    2  502    0  0.45775103477E+01  0.17845824016E+02 -0.56877538930E+02  0.18191501401E+03  0.17180975191E+03 0.  0.
         24    2    3    3    0    0  0.16729851690E+02 -0.43415665617E+02 -0.72608235070E+02  0.11733797232E+03  0.79570321036E+02 0.  0.
         -6    2    1    2    0  501 -0.45775103477E+01 -0.17845824016E+02 -0.34874037640E+03  0.38921506887E+03  0.17184031154E+03 0.  0.
        -24    2    5    5    0    0 -0.84367994163E+01 -0.68682123061E+02 -0.13090635702E+03  0.16544515711E+03  0.73805230768E+02 0.  0.
          5    1    3    3  502    0 -0.12152341343E+02  0.61261489633E+02  0.15730696140E+02  0.64577041688E+02  0.47000000000E+01 0. -1.
        -11    1    4    4    0    0 -0.22990031814E+02  0.67431730850E+01 -0.54287865736E+01  0.24565904618E+02  0.00000000000E+00 0.  1.
         12    1    4    4    0    0  0.39719883504E+02 -0.50158838702E+02 -0.67179448496E+02  0.92772067702E+02  0.00000000000E+00 0. -1.
         -5    1    5    5    0  501  0.38592890686E+01  0.50836299045E+02 -0.21783401937E+03  0.22376991176E+03  0.47000000000E+01 0.  1.
         11    1    6    6    0    0  0.10464094701E+00  0.18106767179E+01 -0.75125379366E+02  0.75147269577E+02  0.00000000000E+00 0. -1.
        -12    1    6    6    0    0 -0.85414403633E+01 -0.70492799779E+02 -0.55780977656E+02  0.90297887530E+02  0.00000000000E+00 0.  1.
</event>
<event>
12    1  0.1348628E-002  0.2026721E+03  0.7818608E-02  0.1147504E+00
          1   -1    0    0  502    0  0.00000000000E+00  0.00000000000E+00  0.64741921776E+03  0.64741921776E+03  0.00000000000E+00 0.  1.
         -1   -1    0    0    0  501 -0.00000000000E+00 -0.00000000000E+00 -0.76496772713E+02  0.76496772713E+02  0.00000000000E+00 0. -1.
          6    2    1    2  502    0  0.62943683857E+02 -0.85804862389E+02  0.43387460368E+03  0.47848587016E+03  0.17139770849E+03 0.  0.
         24    2    3    3    0    0 -0.13191457988E+02 -0.10468318620E+02  0.11404796864E+03  0.14116803617E+03  0.81473155237E+02 0.  0.
         -6    2    1    2    0  501 -0.62943683857E+02  0.85804862389E+02  0.13704784136E+03  0.24543012031E+03  0.17357837246E+03 0.  0.
        -24    2    5    5    0    0 -0.11042891770E+03  0.57962415901E+02  0.10736102502E+03  0.18271292710E+03  0.79394184389E+02 0.  0.
          5    1    3    3  502    0  0.76135141845E+02 -0.75336543769E+02  0.31982663504E+03  0.33731783399E+03  0.47000000000E+01 0. -1.
        -11    1    4    4    0    0 -0.42698468873E+02 -0.21429926127E+02  0.88722786175E+02  0.10076772184E+03  0.00000000000E+00 0.  1.
         12    1    4    4    0    0  0.29507010886E+02  0.10961607508E+02  0.25325182469E+02  0.40400314326E+02  0.00000000000E+00 0. -1.
         -5    1    5    5    0  501  0.47485233843E+02  0.27842446488E+02  0.29686816343E+02  0.62717193210E+02  0.47000000000E+01 0.  1.
         11    1    6    6    0    0 -0.85399758895E+02  0.42417325030E+02  0.30048364257E+02  0.99976259564E+02  0.00000000000E+00 0. -1.
        -12    1    6    6    0    0 -0.25029158806E+02  0.15545090871E+02  0.77312660763E+02  0.82736667536E+02  0.00000000000E+00 0.  1.
</event>
<event>
12    1  0.1348628E-002  0.2007154E+03  0.7818608E-02  0.1149137E+00
          2   -1    0    0  502    0  0.00000000000E+00  0.00000000000E+00  0.23580562769E+04  0.23580562769E+04  0.00000000000E+00 0.  1.
         -2   -1    0    0    0  501 -0.00000000000E+00 -0.00000000000E+00 -0.17352550130E+02  0.17352550130E+02  0.00000000000E+00 0. -1.
          6    2    1    2  502    0 -0.10214518654E+03  0.17219416250E+02  0.10237118545E+04  0.10432339211E+04  0.17210725046E+03 0.  0.
         24    2    3    3    0    0  0.13144569160E+02  0.21940785073E+01  0.51642583283E+03  0.52277384932E+03  0.80120303484E+02 0.  0.
         -6    2    1    2    0  501  0.10214518654E+03 -0.17219416250E+02  0.13169918723E+04  0.13321749060E+04  0.17173305138E+03 0.  0.
        -24    2    5    5    0    0  0.50043249039E+02 -0.75787971922E+02  0.85321119899E+03  0.86179262468E+03  0.80430307795E+02 0.  0.
          5    1    3    3  502    0 -0.11528975570E+03  0.15025337743E+02  0.50728602163E+03  0.52046007175E+03  0.47000000000E+01 0. -1.
        -11    1    4    4    0    0  0.15667961906E+02  0.23783392261E+01  0.51895469942E+03  0.51919661167E+03  0.00000000000E+00 0.  1.
         12    1    4    4    0    0 -0.25233927462E+01 -0.18426071887E+00 -0.25288665808E+01  0.35772376421E+01  0.00000000000E+00 0. -1.
         -5    1    5    5    0  501  0.52101937504E+02  0.58568555672E+02  0.46378067336E+03  0.47038228133E+03  0.47000000000E+01 0.  1.
         11    1    6    6    0    0 -0.71744541719E+01 -0.44207151974E+02  0.18291630458E+03  0.18831919594E+03  0.00000000000E+00 0. -1.
        -12    1    6    6    0    0  0.57217703211E+02 -0.31580819948E+02  0.67029489441E+03  0.67347342874E+03  0.00000000000E+00 0.  1.
</event>
<event>
12    1  0.1348628E-002  0.6823468E+03  0.7818608E-02  0.9747907E-01
          2   -1    0    0  502    0  0.00000000000E+00  0.00000000000E+00  0.35619841711E+04  0.35619841711E+04  0.00000000000E+00 0.  1.
         -2   -1    0    0    0  501 -0.00000000000E+00 -0.00000000000E+00 -0.13171725275E+03  0.13171725275E+03  0.00000000000E+00 0. -1.
          6    2    1    2  502    0 -0.47309984476E+03  0.46063191871E+03  0.15535644015E+04  0.16967608392E+04  0.17155106538E+03 0.  0.
         24    2    3    3    0    0 -0.24284704753E+03  0.18680988304E+03  0.60029305147E+03  0.67855495887E+03  0.78819183407E+02 0.  0.
         -6    2    1    2    0  501  0.47309984476E+03 -0.46063191871E+03  0.18767025168E+04  0.19969405847E+04  0.17249386762E+03 0.  0.
        -24    2    5    5    0    0  0.19182328847E+03 -0.11934736576E+03  0.68269617618E+03  0.72365158420E+03  0.80978877667E+02 0.  0.
          5    1    3    3  502    0 -0.23025279724E+03  0.27382203567E+03  0.95327135007E+03  0.10182058803E+04  0.47000000000E+01 0. -1.
        -11    1    4    4    0    0 -0.17029167323E+03  0.82565041453E+02  0.36760751854E+03  0.41346284927E+03  0.00000000000E+00 0.  1.
         12    1    4    4    0    0 -0.72555374298E+02  0.10424484159E+03  0.23268553293E+03  0.26509210960E+03  0.00000000000E+00 0. -1.
         -5    1    5    5    0  501  0.28127655630E+03 -0.34128455295E+03  0.11940063406E+04  0.12732890005E+04  0.47000000000E+01 0.  1.
         11    1    6    6    0    0  0.37886075098E+02 -0.53685790624E+02  0.12274565270E+03  0.13922648476E+03  0.00000000000E+00 0. -1.
        -12    1    6    6    0    0  0.15393721337E+03 -0.65661575133E+02  0.55995052348E+03  0.58442509944E+03  0.00000000000E+00 0.  1.
</event>
<event>
12    1  0.1348628E-002  0.2293169E+03  0.7818608E-02  0.1127121E+00
         -2   -1    0    0    0  501 -0.00000000000E+00  0.00000000000E+00  0.59921001611E+02  0.59921001611E+02  0.00000000000E+00 0.  1.
          2   -1    0    0  502    0  0.00000000000E+00 -0.00000000000E+00 -0.92030563324E+03  0.92030563324E+03  0.00000000000E+00 0. -1.
          6    2    1    2  502    0 -0.43162111158E+02 -0.14574018324E+03 -0.53622496291E+03  0.58329940249E+03  0.17204015010E+03 0.  0.
         24    2    3    3    0    0  0.36959341114E+01 -0.57634281123E+02 -0.83737838649E+02  0.11991509760E+03  0.63499879702E+02 0.  0.
         -6    2    1    2    0  501  0.43162111158E+02  0.14574018324E+03 -0.32415966872E+03  0.39692723236E+03  0.17137260024E+03 0.  0.
        -24    2    5    5    0    0 -0.30317322407E+02  0.10416556429E+03 -0.25547160426E+03  0.28798772485E+03  0.76821769433E+02 0.  0.
          5    1    3    3  502    0 -0.46858045269E+02 -0.88105902119E+02 -0.45248712426E+03  0.46338430489E+03  0.47000000000E+01 0. -1.
        -13    1    4    4    0    0 -0.27688066370E+02 -0.26302280600E+02 -0.55399598792E+02  0.67287105231E+02  0.00000000000E+00 0.  1.
         14    1    4    4    0    0  0.31384000481E+02 -0.31332000523E+02 -0.28338239858E+02  0.52627992373E+02  0.00000000000E+00 0. -1.
         -5    1    5    5    0  501  0.73479433564E+02  0.41574618952E+02 -0.68688064465E+02  0.10893950752E+03  0.47000000000E+01 0.  1.
         11    1    6    6    0    0  0.21645247676E+01  0.22202489251E+02 -0.14471791932E+03  0.14642715550E+03  0.00000000000E+00 0. -1.
        -12    1    6    6    0    0 -0.32481847175E+02  0.81963075038E+02 -0.11075368494E+03  0.14156056934E+03  0.00000000000E+00 0.  1.
</event>
<event>
12    1  0.1348628E-002  0.1732833E+03  0.7818608E-02  0.1174467E+00
          2   -1    0    0  502    0  0.00000000000E+00  0.00000000000E+00  0.19337812115E+04  0.19337812115E+04  0.00000000000E+00 0.  1.
         -2   -1    0    0    0  501 -0.00000000000E+00 -0.00000000000E+00 -0.15527724597E+02  0.15527724597E+02  0.00000000000E+00 0. -1.
          6    2    1    2  502    0 -0.72527527609E+01  0.24150360481E+02  0.95969844518E+03  0.97527206152E+03  0.17175169855E+03 0.  0.
         24    2    3    3    0    0 -0.17309562498E+02 -0.35409506712E+02  0.79318592258E+03  0.79807999797E+03  0.78957718143E+02 0.  0.
         -6    2    1    2    0  501  0.72527527609E+01 -0.24150360481E+02  0.95855504175E+03  0.97403687461E+03  0.17112633549E+03 0.  0.
        -24    2    5    5    0    0 -0.50678771407E+02  0.15626275559E+02  0.66196846993E+03  0.66920261333E+03  0.82567330972E+02 0.  0.
          5    1    3    3  502    0  0.10056809737E+02  0.59559867193E+02  0.16651252260E+03  0.17719206355E+03  0.47000000000E+01 0. -1.
        -11    1    4    4    0    0  0.17481045416E+02  0.67019771781E+01  0.46520000837E+03  0.46557657934E+03  0.00000000000E+00 0.  1.
         12    1    4    4    0    0 -0.34790607914E+02 -0.42111483890E+02  0.32798591422E+03  0.33250341863E+03  0.00000000000E+00 0. -1.
         -5    1    5    5    0  501  0.57931524168E+02 -0.39776636040E+02  0.29658657182E+03  0.30483426128E+03  0.47000000000E+01 0.  1.
         11    1    6    6    0    0 -0.34307615089E+02  0.43584180226E+02  0.54547391283E+03  0.54828677058E+03  0.00000000000E+00 0. -1.
        -12    1    6    6    0    0 -0.16371156318E+02 -0.27957904667E+02  0.11649455710E+03  0.12091584275E+03  0.00000000000E+00 0.  1.
</event>
<event>
12    1  0.1348628E-002  0.1881617E+03  0.7818608E-02  0.1160130E+00
          2   -1    0    0  502    0  0.00000000000E+00  0.00000000000E+00  0.92997069726E+03  0.92997069726E+03  0.00000000000E+00 0.  1.
         -2   -1    0    0    0  501 -0.00000000000E+00 -0.00000000000E+00 -0.39124397279E+02  0.39124397279E+02  0.00000000000E+00 0. -1.
          6    2    1    2  502    0  0.17845669541E+02  0.64979730503E+02  0.37149590490E+03  0.41749289864E+03  0.17818608182E+03 0.  0.
         24    2    3    3    0    0  0.17064050982E+02 -0.29689357628E+02  0.12357423681E+03  0.15206853901E+03  0.81741108140E+02 0.  0.
         -6    2    1    2    0  501 -0.17845669541E+02 -0.64979730503E+02  0.51935039508E+03  0.55160219590E+03  0.17320310724E+03 0.  0.
        -24    2    5    5    0    0 -0.79497991711E+02 -0.26762658005E+02  0.27535130172E+03  0.29700604310E+03  0.73198905271E+02 0.  0.
          5    1    3    3  502    0  0.78161855883E+00  0.94669088131E+02  0.24792166809E+03  0.26542435963E+03  0.47000000000E+01 0. -1.
        -11    1    4    4    0    0 -0.18944073395E+02  0.36120689552E+01  0.91395752389E+02  0.93408289320E+02  0.00000000000E+00 0.  1.
         12    1    4    4    0    0  0.36008124377E+02 -0.33301426583E+02  0.32178484423E+02  0.58660249688E+02  0.00000000000E+00 0. -1.
         -5    1    5    5    0  501  0.61652322170E+02 -0.38217072498E+02  0.24399909336E+03  0.25459615280E+03  0.47000000000E+01 0.  1.
         11    1    6    6    0    0 -0.38338695547E+02 -0.18525224556E+02  0.41643252657E+02  0.59558374835E+02  0.00000000000E+00 0. -1.
        -12    1    6    6    0    0 -0.41159296164E+02 -0.82374334488E+01  0.23370804906E+03  0.23744766827E+03  0.00000000000E+00 0.  1.
</event>
<event>
12    1  0.1348628E-002  0.2061371E+03  0.7818608E-02  0.1144662E+00
         -4   -1    0    0    0  501 -0.00000000000E+00  0.00000000000E+00  0.14030182692E+03  0.14030182692E+03  0.00000000000E+00 0.  1.
          4   -1    0    0  502    0  0.00000000000E+00 -0.00000000000E+00 -0.31254697979E+03  0.31254697979E+03  0.00000000000E+00 0. -1.
          6    2    1    2  502    0  0.31388233964E+00 -0.11353886355E+03 -0.46057933790E+02  0.21069659906E+03  0.17140755972E+03 0.  0.
         24    2    3    3    0    0  0.49998853226E+02 -0.34579630953E+02  0.55055426614E+01  0.10400058766E+03  0.84203177092E+02 0.  0.
         -6    2    1    2    0  501 -0.31388233964E+00  0.11353886355E+03 -0.12618721908E+03  0.24215220765E+03  0.17269425397E+03 0.  0.
        -24    2    5    5    0    0 -0.49990341913E+02  0.15901677491E+02 -0.41524165664E+02  0.10362172960E+03  0.79128432808E+02 0.  0.
          5    1    3    3  502    0 -0.49684970886E+02 -0.78959232600E+02 -0.51563476451E+02  0.10669601140E+03  0.47000000000E+01 0. -1.
        -11    1    4    4    0    0  0.29441565835E+02  0.20781860083E+02  0.22579647811E+02  0.42526838615E+02  0.00000000000E+00 0.  1.
         12    1    4    4    0    0  0.20557287391E+02 -0.55361491037E+02 -0.17074105150E+02  0.61473749042E+02  0.00000000000E+00 0. -1.
         -5    1    5    5    0  501  0.49676459574E+02  0.97637186062E+02 -0.84663053413E+02  0.13853047806E+03  0.47000000000E+01 0.  1.
         13    1    6    6    0    0  0.79956227566E+01 -0.65255703667E+01 -0.40128180812E+02  0.41434091605E+02  0.00000000000E+00 0. -1.
        -14    1    6    6    0    0 -0.57985964670E+02  0.22427247858E+02 -0.13959848523E+01  0.62187637991E+02  0.00000000000E+00 0.  1.
</event>
<event>
12    1  0.1348628E-002  0.3245963E+03  0.7818608E-02  0.1073553E+00
          1   -1    0    0  502    0  0.00000000000E+00  0.00000000000E+00  0.54193794815E+03  0.54193794815E+03  0.00000000000E+00 0. -1.
         -1   -1    0    0    0  501 -0.00000000000E+00 -0.00000000000E+00 -0.22969450672E+03  0.22969450672E+03  0.00000000000E+00 0.  1.
          6    2    1    2  502    0 -0.19657107876E+03 -0.19248230158E+03  0.30724648535E+03  0.44681892287E+03  0.17192184749E+03 0.  0.
         24    2    3    3    0    0 -0.43156252109E+02 -0.10468038160E+03  0.18417793254E+03  0.23138158887E+03  0.82434728397E+02 0.  0.
         -6    2    1    2    0  501  0.19657107876E+03  0.19248230158E+03  0.49969560754E+01  0.32481353200E+03  0.17259558386E+03 0.  0.
        -24    2    5    5    0    0  0.95675710056E+02  0.59460409523E+02  0.56931428174E+02  0.14990218706E+03  0.80870862348E+02 0.  0.
          5    1    3    3  502    0 -0.15341482665E+03 -0.87801919990E+02  0.12306855281E+03  0.21543733400E+03  0.47000000000E+01 0. -1.
        -13    1    4    4    0    0 -0.31019883698E+02 -0.78320897177E+02  0.18399430960E+03  0.20236180985E+03  0.00000000000E+00 0.  1.
         14    1    4    4    0    0 -0.12136368410E+02 -0.26359484418E+02  0.18362293712E+00  0.29019779020E+02  0.00000000000E+00 0. -1.
         -5    1    5    5    0  501  0.10089536871E+03  0.13302189206E+03 -0.51934472098E+02  0.17491134493E+03  0.47000000000E+01 0.  1.
         11    1    6    6    0    0  0.36416437574E+02  0.23156157567E+02 -0.18838807755E+02  0.47087845953E+02  0.00000000000E+00 0. -1.
        -12    1    6    6    0    0  0.59259272483E+02  0.36304251956E+02  0.75770235929E+02  0.10281434111E+03  0.00000000000E+00 0.  1.
</event>
<event>
12    1  0.1348628E-002  0.1952810E+03  0.7818608E-02  0.1153783E+00
          2   -1    0    0  502    0  0.00000000000E+00  0.00000000000E+00  0.94529337402E+03  0.94529337402E+03  0.00000000000E+00 0. -1.
         -2   -1    0    0    0  501 -0.00000000000E+00 -0.00000000000E+00 -0.55136817017E+02  0.55136817017E+02  0.00000000000E+00 0.  1.
          6    2    1    2  502    0  0.92163084805E+02  0.76732212066E+01  0.18536509239E+03  0.26898927400E+03  0.17158700279E+03 0.  0.
         24    2    3    3    0    0  0.17386610239E+02  0.61081385805E+02  0.10329931396E+03  0.14569760687E+03  0.80770133566E+02 0.  0.
         -6    2    1    2    0  501 -0.92163084805E+02 -0.76732212066E+01  0.70479146461E+03  0.73144091703E+03  0.17240038863E+03 0.  0.
        -24    2    5    5    0    0 -0.11178747735E+03 -0.13059735506E+02  0.35530367825E+03  0.38132960026E+03  0.80650873964E+02 0.  0.
          5    1    3    3  502    0  0.74776474566E+02 -0.53408164599E+02  0.82065778434E+02  0.12329166713E+03  0.47000000000E+01 0. -1.
        -13    1    4    4    0    0  0.22718139697E+02  0.16022032940E+02 -0.50287978336E+01  0.28250809165E+02  0.00000000000E+00 0.  1.
         14    1    4    4    0    0 -0.53315294585E+01  0.45059352866E+02  0.10832811179E+03  0.11744679771E+03  0.00000000000E+00 0. -1.
         -5    1    5    5    0  501  0.19624392545E+02  0.53865142993E+01  0.34948778636E+03  0.35011131677E+03  0.47000000000E+01 0.  1.
         11    1    6    6    0    0 -0.27352824409E+02 -0.41034305321E+02  0.11710844720E+03  0.12706840528E+03  0.00000000000E+00 0. -1.
        -12    1    6    6    0    0 -0.84434652941E+02  0.27974569815E+02  0.23819523106E+03  0.25426119498E+03  0.00000000000E+00 0.  1.
</event>
<event>
12    1  0.1348628E-002  0.1743525E+03  0.7818608E-02  0.1173383E+00
         -2   -1    0    0    0  501 -0.00000000000E+00  0.00000000000E+00  0.20216431426E+02  0.20216431426E+02  0.00000000000E+00 0.  1.
          2   -1    0    0  502    0  0.00000000000E+00 -0.00000000000E+00 -0.19045183871E+04  0.19045183871E+04  0.00000000000E+00 0. -1.
          6    2    1    2  502    0  0.18134613885E+02 -0.13340977183E+02 -0.50623199469E+03  0.53584080697E+03  0.17420588990E+03 0.  0.
         24    2    3    3    0    0  0.56337788387E+02 -0.41749543545E+02 -0.20618401722E+03  0.23200300820E+03  0.79978597551E+02 0.  0.
         -6    2    1    2    0  501 -0.18134613885E+02  0.13340977183E+02 -0.13780699610E+04  0.13888940116E+04  0.17158937051E+03 0.  0.
        -24    2    5    5    0    0 -0.72935029057E+02  0.29427978148E+02 -0.10396981530E+04  0.10457039074E+04  0.79617136258E+02 0.  0.
          5    1    3    3  502    0 -0.38203174503E+02  0.28408566363E+02 -0.30004797746E+03  0.30383779878E+03  0.47000000000E+01 0. -1.
        -13    1    4    4    0    0 -0.17446462946E+02 -0.12005007542E+02 -0.18369751931E+02  0.28034747393E+02  0.00000000000E+00 0.  1.
         14    1    4    4    0    0  0.73784251333E+02 -0.29744536003E+02 -0.18781426529E+03  0.20396826080E+03  0.00000000000E+00 0. -1.
         -5    1    5    5    0  501  0.54800415172E+02 -0.16087000965E+02 -0.33837180807E+03  0.34319010417E+03  0.47000000000E+01 0.  1.
         11    1    6    6    0    0 -0.31527359431E+02 -0.26743899377E+02 -0.44846613472E+03  0.45036772147E+03  0.00000000000E+00 0. -1.
        -12    1    6    6    0    0 -0.41407669625E+02  0.56171877524E+02 -0.59123201823E+03  0.59533618596E+03  0.00000000000E+00 0.  1.
</event>
<event>
12    1  0.1348628E-002  0.2063492E+03  0.7818608E-02  0.1144490E+00
          2   -1    0    0  502    0  0.00000000000E+00  0.00000000000E+00  0.51210112839E+03  0.51210112839E+03  0.00000000000E+00 0.  1.
         -2   -1    0    0    0  501 -0.00000000000E+00 -0.00000000000E+00 -0.92444395738E+02  0.92444395738E+02  0.00000000000E+00 0. -1.
          6    2    1    2  502    0  0.72107547140E+02  0.97074945095E+02  0.30120342164E+03  0.36253504416E+03  0.16150886575E+03 0.  0.
         24    2    3    3    0    0  0.61790733009E+02  0.73288521851E+02  0.31101800734E+03  0.33441660400E+03  0.76895786731E+02 0.  0.
         -6    2    1    2    0  501 -0.72107547140E+02 -0.97074945095E+02  0.11845331102E+03  0.24201047997E+03  0.17295907668E+03 0.  0.
        -24    2    5    5    0    0 -0.10148299539E+03 -0.11639174925E+03  0.86061814344E+02  0.19397554540E+03  0.79837576851E+02 0.  0.
          5    1    3    3  502    0  0.10316814130E+02  0.23786423244E+02 -0.98145857041E+01  0.28118440161E+02  0.47000000000E+01 0. -1.
        -13    1    4    4    0    0  0.20164349793E+02  0.39509931267E+02  0.45512498938E+02  0.63553310149E+02  0.00000000000E+00 0.  1.
         14    1    4    4    0    0  0.41626383217E+02  0.33778590584E+02  0.26550550840E+03  0.27086329385E+03  0.00000000000E+00 0. -1.
         -5    1    5    5    0  501  0.29375448253E+02  0.19316804153E+02  0.32391496672E+02  0.48034934573E+02  0.47000000000E+01 0.  1.
         11    1    6    6    0    0 -0.23207299866E+02  0.13243427237E+01 -0.75322404490E+01  0.24434960547E+02  0.00000000000E+00 0. -1.
        -12    1    6    6    0    0 -0.78275695527E+02 -0.11771609197E+03  0.93594054793E+02  0.16954058485E+03  0.00000000000E+00 0.  1.
</event>
<event>
12    1  0.1348628E-002  0.2194098E+03  0.7818608E-02  0.1134324E+00
          1   -1    0    0  502    0  0.00000000000E+00  0.00000000000E+00  0.37723292977E+03  0.37723292977E+03  0.00000000000E+00 0.  1.
         -1   -1    0    0    0  501 -0.00000000000E+00 -0.00000000000E+00 -0.13458034300E+03  0.13458034300E+03  0.00000000000E+00 0. -1.
          6    2    1    2  502    0  0.59106883235E+02  0.11788308012E+03  0.17916608438E+03  0.28271999017E+03  0.17447080795E+03 0.  0.
         24    2    3    3    0    0  0.49498452302E+02  0.14997281877E+03  0.11774172500E+03  0.21259784533E+03  0.79954905315E+02 0.  0.
         -6    2    1    2    0  501 -0.59106883235E+02 -0.11788308012E+03  0.63486502397E+02  0.22909328260E+03  0.17624741678E+03 0.  0.
        -24    2    5    5    0    0 -0.93685007700E+02 -0.13176752916E+03  0.41478218264E+02  0.18556307255E+03  0.81078042006E+02 0.  0.
          5    1    3    3  502    0  0.96084309330E+01 -0.32089738647E+02  0.61424359380E+02  0.70122144838E+02  0.47000000000E+01 0. -1.
        -11    1    4    4    0    0 -0.25321055258E+01  0.92248978436E+02  0.93062750255E+02  0.13106090594E+03  0.00000000000E+00 0.  1.
         12    1    4    4    0    0  0.52030557828E+02  0.57723840336E+02  0.24678974741E+02  0.81536939391E+02  0.00000000000E+00 0. -1.
         -5    1    5    5    0  501  0.34578124465E+02  0.13884449035E+02  0.22008284133E+02  0.43530210050E+02  0.47000000000E+01 0.  1.
         13    1    6    6    0    0 -0.63944385209E+01 -0.46717060242E+02 -0.17337871777E+02  0.50239171563E+02  0.00000000000E+00 0. -1.
        -14    1    6    6    0    0 -0.87290569179E+02 -0.85050468918E+02  0.58816090041E+02  0.13532390099E+03  0.00000000000E+00 0.  1.
</event>
<event>
12    1  0.1348628E-002  0.1821589E+03  0.7818608E-02  0.1165730E+00
         -2   -1    0    0    0  501 -0.00000000000E+00  0.00000000000E+00  0.17915343207E+03  0.17915343207E+03  0.00000000000E+00 0. -1.
          2   -1    0    0  502    0  0.00000000000E+00 -0.00000000000E+00 -0.18627924913E+03  0.18627924913E+03  0.00000000000E+00 0.  1.
          6    2    1    2  502    0  0.15539049905E+01  0.50294502342E+02 -0.16733871576E+02  0.17908564090E+03  0.17105464838E+03 0.  0.
         24    2    3    3    0    0  0.28849178588E+02  0.62761026257E+02  0.41328613633E+02  0.11355863603E+03  0.80101735246E+02 0.  0.
         -6    2    1    2    0  501 -0.15539049905E+01 -0.50294502342E+02  0.96080545203E+01  0.18634704030E+03  0.17916738858E+03 0.  0.
        -24    2    5    5    0    0  0.39748862311E+02 -0.60383936148E+02  0.55921522297E+02  0.12330148091E+03  0.82763800901E+02 0.  0.
          5    1    3    3  502    0 -0.27295273598E+02 -0.12466523915E+02 -0.58062485209E+02  0.65527004875E+02  0.47000000000E+01 0. -1.
        -13    1    4    4    0    0 -0.21291939241E+01 -0.12871143651E+02 -0.10528748783E+02  0.16764675857E+02  0.00000000000E+00 0.  1.
         14    1    4    4    0    0  0.30978372512E+02  0.75632169908E+02  0.51857362417E+02  0.96793960170E+02  0.00000000000E+00 0. -1.
         -5    1    5    5    0  501 -0.41302767301E+02  0.10089433806E+02 -0.46313467777E+02  0.63045559390E+02  0.47000000000E+01 0.  1.
         13    1    6    6    0    0  0.36102089640E+02  0.19545423073E+01  0.48388239007E+02  0.60403665337E+02  0.00000000000E+00 0. -1.
        -14    1    6    6    0    0  0.36467726705E+01 -0.62338478455E+02  0.75332832904E+01  0.62897815575E+02  0.00000000000E+00 0.  1.
</event>
<event>
12    1  0.1348628E-002  0.2503192E+03  0.7818608E-02  0.1113103E+00
         -2   -1    0    0    0  501 -0.00000000000E+00  0.00000000000E+00  0.23890987666E+03  0.23890987666E+03  0.00000000000E+00 0.  1.
          2   -1    0    0  502    0  0.00000000000E+00 -0.00000000000E+00 -0.11618725313E+04  0.11618725313E+04  0.00000000000E+00 0. -1.
          6    2    1    2  502    0  0.43733836787E+02  0.17745590497E+03  0.15476138755E+03  0.29439612054E+03  0.17121548418E+03 0.  0.
         24    2    3    3    0    0  0.75628538747E+02  0.10852412570E+03  0.44226388867E+02  0.16019873554E+03  0.78806723478E+02 0.  0.
         -6    2    1    2    0  501 -0.43733836787E+02 -0.17745590497E+03 -0.10777240422E+04  0.11063862874E+04  0.17087498119E+03 0.  0.
        -24    2    5    5    0    0 -0.29096228539E+02 -0.90727320446E+02 -0.89483793165E+03  0.90339484333E+03  0.79430987865E+02 0.  0.
          5    1    3    3  502    0 -0.31894701960E+02  0.68931779276E+02  0.11053499868E+03  0.13419738500E+03  0.47000000000E+01 0. -1.
        -11    1    4    4    0    0 -0.18766399871E+01 -0.96380026507E+01  0.11545148594E+02  0.15155966772E+02  0.00000000000E+00 0.  1.
         12    1    4    4    0    0  0.77505178734E+02  0.11816212835E+03  0.32681240273E+02  0.14504276877E+03  0.00000000000E+00 0. -1.
         -5    1    5    5    0  501 -0.14637608248E+02 -0.86728584529E+02 -0.18288611054E+03  0.20299144410E+03  0.47000000000E+01 0.  1.
         13    1    6    6    0    0  0.17736802061E+02 -0.55920382249E+02 -0.29860244100E+03  0.30431086255E+03  0.00000000000E+00 0. -1.
        -14    1    6    6    0    0 -0.46833030600E+02 -0.34806938197E+02 -0.59623549066E+03  0.59908398077E+03  0.00000000000E+00 0.  1.
</event>
<event>
12    1  0.1348628E-002  0.1759459E+03  0.7818608E-02  0.1171785E+00
         -2   -1    0    0    0  501 -0.00000000000E+00  0.00000000000E+00  0.15232358199E+03  0.15232358199E+03  0.00000000000E+00 0. -1.
          2   -1    0    0  502    0  0.00000000000E+00 -0.00000000000E+00 -0.25559685090E+03  0.25559685090E+03  0.00000000000E+00 0.  1.
          6    2    1    2  502    0  0.21122637236E+02 -0.28765578563E+02 -0.14390871247E+03  0.22714983193E+03  0.17208632807E+03 0.  0.
         24    2    3    3    0    0  0.50216718157E+02  0.21665447398E+02 -0.13759435668E+03  0.16839853396E+03  0.80216886347E+02 0.  0.
         -6    2    1    2    0  501 -0.21122637236E+02  0.28765578563E+02  0.40635443555E+02  0.18077060096E+03  0.17249100435E+03 0.  0.
        -24    2    5    5    0    0  0.19138137832E+02  0.55494888413E+02  0.78347250142E+02  0.11929169099E+03  0.68163516458E+02 0.  0.
          5    1    3    3  502    0 -0.29094080921E+02 -0.50431025961E+02 -0.63143557850E+01  0.58751297969E+02  0.47000000000E+01 0. -1.
        -11    1    4    4    0    0  0.32578119692E+02  0.48674806190E+02 -0.57615547979E+02  0.82159126147E+02  0.00000000000E+00 0.  1.
         12    1    4    4    0    0  0.17638598465E+02 -0.27009358792E+02 -0.79978808704E+02  0.86239407812E+02  0.00000000000E+00 0. -1.
         -5    1    5    5    0  501 -0.40260775068E+02 -0.26729309850E+02 -0.37711806586E+02  0.61478909962E+02  0.47000000000E+01 0.  1.
         11    1    6    6    0    0 -0.48085038248E+01  0.17613542832E+02  0.71697121451E+02  0.73985375747E+02  0.00000000000E+00 0. -1.
        -12    1    6    6    0    0  0.23946641657E+02  0.37881345581E+02  0.66501286908E+01  0.45306315247E+02  0.00000000000E+00 0.  1.
</event>
<event>
12    1  0.1348628E-002  0.2298241E+03  0.7818608E-02  0.1126764E+00
          1   -1    0    0  502    0  0.00000000000E+00  0.00000000000E+00  0.14065562336E+04  0.14065562336E+04  0.00000000000E+00 0. -1.
         -1   -1    0    0    0  501 -0.00000000000E+00 -0.00000000000E+00 -0.38617691067E+02  0.38617691067E+02  0.00000000000E+00 0.  1.
          6    2    1    2  502    0  0.14749676252E+03 -0.22995266162E+02  0.56178943509E+03  0.60669817866E+03  0.17375624705E+03 0.  0.
         24    2    3    3    0    0  0.12115687687E+03 -0.60534602690E+02  0.27862166564E+03  0.31980261052E+03  0.79374115403E+02 0.  0.
         -6    2    1    2    0  501 -0.14749676252E+03  0.22995266162E+02  0.80614910745E+03  0.83847574601E+03  0.17573023642E+03 0.  0.
        -24    2    5    5    0    0 -0.24543577480E+02 -0.32457926278E+02  0.41463344151E+03  0.42435118874E+03  0.80604816175E+02 0.  0.
          5    1    3    3  502    0  0.26339885654E+02  0.37539336528E+02  0.28316776945E+03  0.28689556814E+03  0.47000000000E+01 0. -1.
        -11    1    4    4    0    0  0.95173023354E+02 -0.78203848182E+02  0.24200778982E+03  0.27155389259E+03  0.00000000000E+00 0.  1.
         12    1    4    4    0    0  0.25983853514E+02  0.17669245493E+02  0.36613875821E+02  0.48248717935E+02  0.00000000000E+00 0. -1.
         -5    1    5    5    0  501 -0.12295318504E+03  0.55453192440E+02  0.39151566593E+03  0.41412455727E+03  0.47000000000E+01 0.  1.
         11    1    6    6    0    0  0.24877394413E+01  0.18256678912E+02  0.23561899003E+03  0.23633832451E+03  0.00000000000E+00 0. -1.
        -12    1    6    6    0    0 -0.27031316921E+02 -0.50714605190E+02  0.17901445149E+03  0.18801286423E+03  0.00000000000E+00 0.  1.
</event>
<event>
12    1  0.1348628E-002  0.3018180E+03  0.7818608E-02  0.1084335E+00
          2   -1    0    0  502    0  0.00000000000E+00  0.00000000000E+00  0.28765481827E+03  0.28765481827E+03  0.00000000000E+00 0.  1.
         -2   -1    0    0    0  501 -0.00000000000E+00 -0.00000000000E+00 -0.31780676370E+03  0.31780676370E+03  0.00000000000E+00 0. -1.
          6    2    1    2  502    0  0.78883753505E+02 -0.23645432244E+03  0.29709785056E+01  0.30162712949E+03  0.16981403170E+03 0.  0.
         24    2    3    3    0    0  0.47637801005E+01 -0.18581098662E+03  0.35864410738E+02  0.20590573269E+03  0.81009249158E+02 0.  0.
         -6    2    1    2    0  501 -0.78883753505E+02  0.23645432244E+03 -0.33122923934E+02  0.30383445248E+03  0.17054311261E+03 0.  0.
        -24    2    5    5    0    0 -0.87397046334E+02  0.18128052409E+03  0.30151484588E+02  0.21932193890E+03  0.81805432194E+02 0.  0.
          5    1    3    3  502    0  0.74119973405E+02 -0.50643335820E+02 -0.32893432232E+02  0.95721396796E+02  0.47000000000E+01 0. -1.
        -11    1    4    4    0    0 -0.29997152883E+02 -0.13786506067E+03  0.39672643960E+02  0.14656235128E+03  0.00000000000E+00 0.  1.
         12    1    4    4    0    0  0.34760932983E+02 -0.47945925946E+02 -0.38082332216E+01  0.59343381408E+02  0.00000000000E+00 0. -1.
         -5    1    5    5    0  501  0.85132928291E+01  0.55173798344E+02 -0.63274408522E+02  0.84512513584E+02  0.47000000000E+01 0.  1.
         11    1    6    6    0    0 -0.76884166143E+02  0.99669114133E+02 -0.12754362776E+02  0.12652186011E+03  0.00000000000E+00 0. -1.
        -12    1    6    6    0    0 -0.10512880191E+02  0.81611409960E+02  0.42905847364E+02  0.92800078791E+02  0.00000000000E+00 0.  1.
</event>
<event>
12    1  0.1348628E-002  0.1753630E+03  0.7818608E-02  0.1172368E+00
         -2   -1    0    0    0  501 -0.00000000000E+00  0.00000000000E+00  0.54344395971E+02  0.54344395971E+02  0.00000000000E+00 0. -1.
          2   -1    0    0  502    0  0.00000000000E+00 -0.00000000000E+00 -0.56928964876E+03  0.56928964876E+03  0.00000000000E+00 0.  1.
          6    2    1    2  502    0  0.12190519442E+02 -0.22260597750E+02 -0.28041872740E+03  0.33031758135E+03  0.17271623807E+03 0.  0.
         24    2    3    3    0    0 -0.68181395509E+01 -0.22822621590E+02 -0.29395661576E+03  0.30650562198E+03  0.83473620217E+02 0.  0.
         -6    2    1    2    0  501 -0.12190519442E+02  0.22260597750E+02 -0.23452652539E+03  0.29331646338E+03  0.17432072053E+03 0.  0.
        -24    2    5    5    0    0  0.19327630340E+02 -0.34710870498E+02 -0.60504060823E+02  0.10745347585E+03  0.79417292020E+02 0.  0.
          5    1    3    3  502    0  0.19008658993E+02  0.56202384042E+00  0.13537888363E+02  0.23811959366E+02  0.47000000000E+01 0. -1.
        -13    1    4    4    0    0 -0.11679274289E+02  0.11834106903E+02 -0.24889942577E+03  0.24945415547E+03  0.00000000000E+00 0.  1.
         14    1    4    4    0    0  0.48611347380E+01 -0.34656728494E+02 -0.45057189999E+02  0.57051466515E+02  0.00000000000E+00 0. -1.
         -5    1    5    5    0  501 -0.31518149783E+02  0.56971468247E+02 -0.17402246456E+03  0.18586298753E+03  0.47000000000E+01 0.  1.
         13    1    6    6    0    0 -0.29722712307E+02 -0.10056790123E+02 -0.10201425306E+02  0.32994662185E+02  0.00000000000E+00 0. -1.
        -14    1    6    6    0    0  0.49050342647E+02 -0.24654080374E+02 -0.50302635518E+02  0.74458813669E+02  0.00000000000E+00 0.  1.
</event>
<event>
12    1  0.1348628E-002  0.2186996E+03  0.7818608E-02  0.1134856E+00
         -2   -1    0    0    0  501 -0.00000000000E+00  0.00000000000E+00  0.33262257728E+02  0.33262257728E+02  0.00000000000E+00 0.  1.
          2   -1    0    0  502    0  0.00000000000E+00 -0.00000000000E+00 -0.14603670353E+04  0.14603670353E+04  0.00000000000E+00 0. -1.
          6    2    1    2  502    0 -0.10381940020E+03 -0.87490544506E+02 -0.61815063740E+03  0.65539491379E+03  0.17029157132E+03 0.  0.
         24    2    3    3    0    0 -0.81061565664E+02  0.22213694522E+01 -0.22864917990E+03  0.25502056154E+03  0.78607426052E+02 0.  0.
         -6    2    1    2    0  501  0.10381940020E+03  0.87490544506E+02 -0.80895414014E+03  0.83823437921E+03  0.17261810566E+03 0.  0.
        -24    2    5    5    0    0  0.23394073865E+02  0.10641084721E+03 -0.55180072610E+03  0.56809334322E+03  0.79846441350E+02 0.  0.
          5    1    3    3  502    0 -0.22757834540E+02 -0.89711913959E+02 -0.38950145751E+03  0.40037435225E+03  0.47000000000E+01 0. -1.
        -11    1    4    4    0    0 -0.85280823802E+02 -0.98723581110E+01 -0.22624842259E+03  0.24198890695E+03  0.00000000000E+00 0.  1.
         12    1    4    4    0    0  0.42192581377E+01  0.12093727563E+02 -0.24007573034E+01  0.13031654586E+02  0.00000000000E+00 0. -1.
         -5    1    5    5    0  501  0.80425326339E+02 -0.18920302699E+02 -0.25715341404E+03  0.27014103598E+03  0.47000000000E+01 0.  1.
         11    1    6    6    0    0  0.42623995282E+02  0.34972385701E+02 -0.32174142036E+03  0.32643133170E+03  0.00000000000E+00 0. -1.
        -12    1    6    6    0    0 -0.19229921417E+02  0.71438461505E+02 -0.23005930574E+03  0.24166201153E+03  0.00000000000E+00 0.  1.
</event>
<event>
12    1  0.1348628E-002  0.2105402E+03  0.7818608E-02  0.1141139E+00
          1   -1    0    0  502    0  0.00000000000E+00  0.00000000000E+00  0.71402205292E+02  0.71402205292E+02  0.00000000000E+00 0.  1.
         -1   -1    0    0    0  501 -0.00000000000E+00 -0.00000000000E+00 -0.69459115149E+03  0.69459115149E+03  0.00000000000E+00 0. -1.
          6    2    1    2  502    0 -0.42697121187E+02  0.11106228099E+03 -0.43661758701E+03  0.48479390408E+03  0.17387448843E+03 0.  0.
         24    2    3    3    0    0  0.94611534564E+01  0.76386087901E+01 -0.27001974017E+03  0.28183116327E+03  0.79814050998E+02 0.  0.
         -6    2    1    2    0  501  0.42697121187E+02 -0.11106228099E+03 -0.18657135919E+03  0.28119945271E+03  0.17351191808E+03 0.  0.
        -24    2    5    5    0    0  0.77233746296E+02 -0.79164357963E+02 -0.72535714249E+02  0.15776333852E+03  0.85998802329E+02 0.  0.
          5    1    3    3  502    0 -0.52158274643E+02  0.10342367220E+03 -0.16659784684E+03  0.20296274081E+03  0.47000000000E+01 0. -1.
        -13    1    4    4    0    0  0.37967906600E+01  0.19971837380E+02 -0.12313670747E+02  0.23767969936E+02  0.00000000000E+00 0.  1.
         14    1    4    4    0    0  0.56643627964E+01 -0.12333228589E+02 -0.25770606942E+03  0.25806319333E+03  0.00000000000E+00 0. -1.
         -5    1    5    5    0  501 -0.34536625109E+02 -0.31897923031E+02 -0.11403564494E+03  0.12343611418E+03  0.47000000000E+01 0.  1.
         11    1    6    6    0    0  0.11374591059E+02 -0.44018371250E+02 -0.69502079506E+02  0.83051414106E+02  0.00000000000E+00 0. -1.
        -12    1    6    6    0    0  0.65859155237E+02 -0.35145986713E+02 -0.30336347427E+01  0.74711924418E+02  0.00000000000E+00 0.  1.
</event>
<event>
12    1  0.1348628E-002  0.1761872E+03  0.7818608E-02  0.1171545E+00
         -2   -1    0    0    0  501 -0.00000000000E+00  0.00000000000E+00  0.14896845974E+03  0.14896845974E+03  0.00000000000E+00 0.  1.
          2   -1    0    0  502    0  0.00000000000E+00 -0.00000000000E+00 -0.33486120827E+03  0.33486120827E+03  0.00000000000E+00 0. -1.
          6    2    1    2  502    0 -0.15176378961E+02 -0.40972521628E+02 -0.24148075470E+03  0.29866871617E+03  0.17023800140E+03 0.  0.
         24    2    3    3    0    0 -0.16492506970E+02 -0.91446089546E+02 -0.19197365376E+03  0.22780013148E+03  0.80028907826E+02 0.  0.
         -6    2    1    2    0  501  0.15176378961E+02  0.40972521628E+02  0.55588006175E+02  0.18516095184E+03  0.17113001387E+03 0.  0.
        -24    2    5    5    0    0 -0.51640303994E+02  0.41916521300E+02  0.50953303511E+02  0.11801237981E+03  0.83108163832E+02 0.  0.
          5    1    3    3  502    0  0.13161280092E+01  0.50473567918E+02 -0.49507100947E+02  0.70868584686E+02  0.47000000000E+01 0. -1.
        -11    1    4    4    0    0 -0.43838397793E+02 -0.38163135849E+02 -0.63687413285E+02  0.86222483552E+02  0.00000000000E+00 0.  1.
         12    1    4    4    0    0  0.27345890823E+02 -0.53282953696E+02 -0.12828624047E+03  0.14157764793E+03  0.00000000000E+00 0. -1.
         -5    1    5    5    0  501  0.66816682955E+02 -0.94399967165E+00  0.46347026635E+01  0.67148572027E+02  0.47000000000E+01 0.  1.
         11    1    6    6    0    0 -0.98999453742E+01 -0.25178963571E+02  0.17378790384E+02  0.32156048889E+02  0.00000000000E+00 0. -1.
        -12    1    6    6    0    0 -0.41740358620E+02  0.67095484871E+02  0.33574513127E+02  0.85856330923E+02  0.00000000000E+00 0.  1.
</event>
<event>
12    1  0.1348628E-002  0.2110599E+03  0.7818608E-02  0.1140729E+00
          2   -1    0    0  502    0  0.00000000000E+00  0.00000000000E+00  0.22453548636E+04  0.22453548636E+04  0.00000000000E+00 0.  1.
         -2   -1    0    0    0  501 -0.00000000000E+00 -0.00000000000E+00 -0.24385192878E+02  0.24385192878E+02  0.00000000000E+00 0. -1.
          6    2    1    2  502    0  0.11870101039E+03 -0.29729457862E+02  0.16002815762E+04  0.16141337611E+04  0.17190958404E+03 0.  0.
         24    2    3    3    0    0  0.15175846035E+03 -0.11461977259E+02  0.13740488841E+04  0.13847218677E+04  0.79261011060E+02 0.  0.
         -6    2    1    2    0  501 -0.11870101039E+03  0.29729457862E+02  0.62068809454E+03  0.65560629539E+03  0.17202364174E+03 0.  0.
        -24    2    5    5    0    0 -0.75964843618E+02  0.78790550640E+02  0.43393859069E+03  0.45779113429E+03  0.96391979975E+02 0.  0.
          5    1    3    3  502    0 -0.33057449963E+02 -0.18267480603E+02  0.22623269210E+03  0.22941189338E+03  0.47000000000E+01 0. -1.
        -13    1    4    4    0    0  0.12177707690E+03  0.81977740901E+01  0.12389264642E+04  0.12449239509E+04  0.00000000000E+00 0.  1.
         14    1    4    4    0    0  0.29981383455E+02 -0.19659751350E+02  0.13512241987E+03  0.13979791675E+03  0.00000000000E+00 0. -1.
         -5    1    5    5    0  501 -0.42736166771E+02 -0.49061092778E+02  0.18674950385E+03  0.19781516111E+03  0.47000000000E+01 0.  1.
         13    1    6    6    0    0  0.20643994267E+02  0.41918360497E+01  0.37786140574E+02  0.43261280705E+02  0.00000000000E+00 0. -1.
        -14    1    6    6    0    0 -0.96608837885E+02  0.74598714591E+02  0.39615245012E+03  0.41452985358E+03  0.00000000000E+00 0.  1.
</event>
<event>
12    1  0.1348628E-002  0.2194821E+03  0.7818608E-02  0.1134270E+00
          1   -1    0    0  502    0  0.00000000000E+00  0.00000000000E+00  0.18548554293E+04  0.18548554293E+04  0.00000000000E+00 0.  1.
         -1   -1    0    0    0  501 -0.00000000000E+00 -0.00000000000E+00 -0.29794257592E+02  0.29794257592E+02  0.00000000000E+00 0. -1.
          6    2    1    2  502    0 -0.12328197912E+03 -0.39060065719E+02  0.57623086942E+03  0.61673906006E+03  0.17776647104E+03 0.  0.
         24    2    3    3    0    0 -0.10440193886E+03 -0.89828624844E+02  0.35401433186E+03  0.38796803463E+03  0.78892978447E+02 0.  0.
         -6    2    1    2    0  501  0.12328197912E+03  0.39060065719E+02  0.12488303022E+04  0.12679106268E+04  0.17690703378E+03 0.  0.
        -24    2    5    5    0    0  0.13212610498E+03 -0.11645597799E+02  0.10885965308E+04  0.10995472270E+04  0.79804573670E+02 0.  0.
          5    1    3    3  502    0 -0.18880040265E+02  0.50768559125E+02  0.22221653756E+03  0.22877102544E+03  0.47000000000E+01 0. -1.
        -13    1    4    4    0    0 -0.95071167319E+02 -0.68391830878E+02  0.19669644591E+03  0.22892239126E+03  0.00000000000E+00 0.  1.
         14    1    4    4    0    0 -0.93307715388E+01 -0.21436793966E+02  0.15731788595E+03  0.15904564337E+03  0.00000000000E+00 0. -1.
         -5    1    5    5    0  501 -0.88441258569E+01  0.50705663518E+02  0.16023377150E+03  0.16836339983E+03  0.47000000000E+01 0.  1.
         11    1    6    6    0    0  0.59435263662E+02  0.20150169994E+01  0.22290033090E+03  0.23069713561E+03  0.00000000000E+00 0. -1.
        -12    1    6    6    0    0  0.72690841317E+02 -0.13660614798E+02  0.86569619985E+03  0.86885009135E+03  0.00000000000E+00 0.  1.
</event>
<event>
12    1  0.1348628E-002  0.1884060E+03  0.7818608E-02  0.1159907E+00
         -2   -1    0    0    0  501 -0.00000000000E+00  0.00000000000E+00  0.19414946888E+03  0.19414946888E+03  0.00000000000E+00 0.  1.
          2   -1    0    0  502    0  0.00000000000E+00 -0.00000000000E+00 -0.19419587670E+03  0.19419587670E+03  0.00000000000E+00 0. -1.
          6    2    1    2  502    0 -0.63445588155E+02  0.18083347304E+02 -0.46693080012E+02  0.18917798422E+03  0.17104302349E+03 0.  0.
         24    2    3    3    0    0  0.72804761642E+01 -0.41856186143E+02 -0.22161217717E+02  0.93163266014E+02  0.79895737759E+02 0.  0.
         -6    2    1    2    0  501  0.63445588155E+02 -0.18083347304E+02  0.46646672198E+02  0.19916736136E+03  0.18204223603E+03 0.  0.
        -24    2    5    5    0    0 -0.13818956221E+02  0.21675783304E+02  0.70317587401E+02  0.10898421155E+03  0.79197172523E+02 0.  0.
          5    1    3    3  502    0 -0.70726064319E+02  0.59939533447E+02 -0.24531862295E+02  0.96014718203E+02  0.47000000000E+01 0. -1.
        -13    1    4    4    0    0  0.36616386729E+02  0.30355599870E+01 -0.11371770083E+02  0.38461559464E+02  0.00000000000E+00 0.  1.
         14    1    4    4    0    0 -0.29335910565E+02 -0.44891746130E+02 -0.10789447634E+02  0.54701706550E+02  0.00000000000E+00 0. -1.
         -5    1    5    5    0  501  0.77264544376E+02 -0.39759130608E+02 -0.23670915203E+02  0.90183149817E+02  0.47000000000E+01 0.  1.
         13    1    6    6    0    0  0.15985712354E+02  0.25148007452E+02 -0.28186919975E+01  0.29931760771E+02  0.00000000000E+00 0. -1.
        -14    1    6    6    0    0 -0.29804668575E+02 -0.34722241478E+01  0.73136279399E+02  0.79052450776E+02  0.00000000000E+00 0.  1.
</event>
<event>
12    1  0.1348628E-002  0.1724056E+03  0.7818608E-02  0.1175362E+00
         -1   -1    0    0    0  501 -0.00000000000E+00  0.00000000000E+00  0.22205818007E+02  0.22205818007E+02  0.00000000000E+00 0.  1.
          1   -1    0    0  502    0  0.00000000000E+00 -0.00000000000E+00 -0.19718264545E+04  0.19718264545E+04  0.00000000000E+00 0. -1.
          6    2    1    2  502    0  0.10211702975E+02  0.69804681930E+01 -0.15376583783E+04  0.15472308773E+04  0.17139747187E+03 0.  0.
         24    2    3    3    0    0 -0.42621249429E+02 -0.72105445307E+01 -0.49837529196E+03  0.50649838076E+03  0.79335460069E+02 0.  0.
         -6    2    1    2    0  501 -0.10211702975E+02 -0.69804681930E+01 -0.41196225817E+03  0.44680139523E+03  0.17252703791E+03 0.  0.
        -24    2    5    5    0    0  0.60601758269E+01  0.56848557940E+02 -0.30775346948E+03  0.32343008472E+03  0.81402318480E+02 0.  0.
          5    1    3    3  502    0  0.52832952405E+02  0.14191012724E+02 -0.10392830864E+04  0.10407324965E+04  0.47000000000E+01 0. -1.
        -13    1    4    4    0    0 -0.10302834561E+02 -0.40474948795E+02 -0.29228555079E+03  0.29525448867E+03  0.00000000000E+00 0.  1.
         14    1    4    4    0    0 -0.32318414869E+02  0.33264404264E+02 -0.20608974117E+03  0.21124389209E+03  0.00000000000E+00 0. -1.
         -5    1    5    5    0  501 -0.16271878802E+02 -0.63829026133E+02 -0.10420878870E+03  0.12337131052E+03  0.47000000000E+01 0.  1.
         11    1    6    6    0    0  0.13263350518E+02 -0.18939748203E+02 -0.62947337505E+02  0.67059658722E+02  0.00000000000E+00 0. -1.
        -12    1    6    6    0    0 -0.72031746914E+01  0.75788306143E+02 -0.24480613197E+03  0.25637042599E+03  0.00000000000E+00 0.  1.
</event>
<event>
12    1  0.1348628E-002  0.2284926E+03  0.7818608E-02  0.1127705E+00
          1   -1    0    0  502    0  0.00000000000E+00  0.00000000000E+00  0.15751311683E+03  0.15751311683E+03  0.00000000000E+00 0. -1.
         -1   -1    0    0    0  501 -0.00000000000E+00 -0.00000000000E+00 -0.45056431668E+03  0.45056431668E+03  0.00000000000E+00 0.  1.
          6    2    1    2  502    0  0.14877532736E+03 -0.15638984520E+02  0.10630611112E+02  0.22694345368E+03  0.17032805232E+03 0.  0.
         24    2    3    3    0    0  0.36155966014E+02 -0.55399591348E+02 -0.11421698946E+02  0.10540160581E+03  0.81256844020E+02 0.  0.
         -6    2    1    2    0  501 -0.14877532736E+03  0.15638984520E+02 -0.30368181096E+03  0.38113397983E+03  0.17510508962E+03 0.  0.
        -24    2    5    5    0    0 -0.22955072277E+02  0.42591957434E+02 -0.79684409767E+02  0.12276578311E+03  0.79880048582E+02 0.  0.
          5    1    3    3  502    0  0.11261936135E+03  0.39760606827E+02  0.22052310059E+02  0.12154184787E+03  0.47000000000E+01 0. -1.
        -11    1    4    4    0    0  0.38644375073E+02 -0.21935848379E+02 -0.41155843587E+02  0.60567091974E+02  0.00000000000E+00 0.  1.
         12    1    4    4    0    0 -0.24884090589E+01 -0.33463742968E+02  0.29734144641E+02  0.44834513833E+02  0.00000000000E+00 0. -1.
         -5    1    5    5    0  501 -0.12582025508E+03 -0.26952972913E+02 -0.22399740119E+03  0.25836819672E+03  0.47000000000E+01 0.  1.
         13    1    6    6    0    0 -0.44236924228E+02  0.53539073363E+02 -0.58550626148E+02  0.90837842687E+02  0.00000000000E+00 0. -1.
        -14    1    6    6    0    0  0.21281851951E+02 -0.10947115929E+02 -0.21133783619E+02  0.31927940423E+02  0.00000000000E+00 0.  1.
</event>
<event>
12    1  0.1348628E-002  0.2109399E+03  0.7818608E-02  0.1140824E+00
         -2   -1    0    0    0  501 -0.00000000000E+00  0.00000000000E+00  0.97003862273E+02  0.97003862273E+02  0.00000000000E+00 0.  1.
          2   -1    0    0  502    0  0.00000000000E+00 -0.00000000000E+00 -0.46291261038E+03  0.46291261038E+03  0.00000000000E+00 0. -1.
          6    2    1    2  502    0  0.92135665396E+01  0.12381897555E+03 -0.15595275060E+03  0.26205132357E+03  0.17009881613E+03 0.  0.
         24    2    3    3    0    0  0.31422333406E+02  0.99502316079E+02 -0.35803679430E+02  0.13738208696E+03  0.81877105561E+02 0.  0.
         -6    2    1    2    0  501 -0.92135665396E+01 -0.12381897555E+03 -0.20995599751E+03  0.29786514909E+03  0.17095642028E+03 0.  0.
        -24    2    5    5    0    0  0.23293254141E+02 -0.70849221930E+02 -0.38830549266E+02  0.11574294499E+03  0.79538857307E+02 0.  0.
          5    1    3    3  502    0 -0.22208766866E+02  0.24316659469E+02 -0.12014907117E+03  0.12466923661E+03  0.47000000000E+01 0. -1.
        -11    1    4    4    0    0  0.16802744470E+02  0.10191733725E+03 -0.51819784053E+02  0.11556282219E+03  0.00000000000E+00 0.  1.
         12    1    4    4    0    0  0.14619588936E+02 -0.24150211662E+01  0.16016104623E+02  0.21819264772E+02  0.00000000000E+00 0. -1.
         -5    1    5    5    0  501 -0.32506820681E+02 -0.52969753618E+02 -0.17112544824E+03  0.18212220410E+03  0.47000000000E+01 0.  1.
         11    1    6    6    0    0 -0.22503748505E+02 -0.56456323852E+02 -0.25600081552E+02  0.65947701818E+02  0.00000000000E+00 0. -1.
        -12    1    6    6    0    0  0.45797002646E+02 -0.14392898079E+02 -0.13230467713E+02  0.49795243170E+02  0.00000000000E+00 0.  1.
</event>
<event>
12    1  0.1348628E-002  0.2203877E+03  0.7818608E-02  0.1133594E+00
         -1   -1    0    0    0  501 -0.00000000000E+00  0.00000000000E+00  0.13258239415E+03  0.13258239415E+03  0.00000000000E+00 0.  1.
          1   -1    0    0  502    0  0.00000000000E+00 -0.00000000000E+00 -0.42267314109E+03  0.42267314109E+03  0.00000000000E+00 0. -1.
          6    2    1    2  502    0  0.54298853749E+02 -0.12788592498E+03 -0.24649573408E+03  0.33076873737E+03  0.17130275939E+03 0.  0.
         24    2    3    3    0    0 -0.29757364797E+01 -0.96237150240E+01 -0.49094449610E+02  0.93585925809E+02  0.79035369478E+02 0.  0.
         -6    2    1    2    0  501 -0.54298853749E+02  0.12788592498E+03 -0.43595012866E+02  0.22448679787E+03  0.17085263224E+03 0.  0.
        -24    2    5    5    0    0 -0.14046380932E+02  0.13325819227E+03 -0.74560812535E+02  0.17320235995E+03  0.80527610809E+02 0.  0.
          5    1    3    3  502    0  0.57274590229E+02 -0.11826220996E+03 -0.19740128447E+03  0.23718281156E+03  0.47000000000E+01 0. -1.
        -11    1    4    4    0    0  0.14303579756E+02 -0.26933375483E+02  0.79535684923E+01  0.31516001658E+02  0.00000000000E+00 0.  1.
         12    1    4    4    0    0 -0.17279316235E+02  0.17309660459E+02 -0.57048018102E+02  0.62069924151E+02  0.00000000000E+00 0. -1.
         -5    1    5    5    0  501 -0.40252472817E+02 -0.53722672838E+01  0.30965799669E+02  0.51284437920E+02  0.47000000000E+01 0.  1.
         11    1    6    6    0    0 -0.28179131450E+02  0.70853078684E+02 -0.78059291683E+02  0.10912137841E+03  0.00000000000E+00 0. -1.
        -12    1    6    6    0    0  0.14132750518E+02  0.62405113584E+02  0.34984791481E+01  0.64080981539E+02  0.00000000000E+00 0.  1.
</event>
<event>
12    1  0.1348628E-002  0.2001374E+03  0.7818608E-02  0.1149623E+00
         -1   -1    0    0    0  501 -0.00000000000E+00  0.00000000000E+00  0.34400335108E+03  0.34400335108E+03  0.00000000000E+00 0. -1.
          1   -1    0    0  502    0  0.00000000000E+00 -0.00000000000E+00 -0.13973382534E+03  0.13973382534E+03  0.00000000000E+00 0.  1.
          6    2    1    2  502    0  0.90613139802E+02  0.50410926599E+02  0.33174915610E+01  0.20002400576E+03  0.17101635741E+03 0.  0.
         24    2    3    3    0    0  0.47410453784E+02  0.54548416972E+02 -0.67520633244E+02  0.11681510700E+03  0.62156676139E+02 0.  0.
         -6    2    1    2    0  501 -0.90613139802E+02 -0.50410926599E+02  0.20095203418E+03  0.28371317066E+03  0.17134596739E+03 0.  0.
        -24    2    5    5    0    0 -0.72255395619E+02 -0.99659935561E+02  0.13505112166E+03  0.19928869598E+03  0.79525052215E+02 0.  0.
          5    1    3    3  502    0  0.43202686018E+02 -0.41374903730E+01  0.70838124805E+02  0.83208898752E+02  0.47000000000E+01 0. -1.
        -11    1    4    4    0    0  0.61222789352E+02  0.51006398675E+02 -0.49397906358E+02  0.93755190760E+02  0.00000000000E+00 0.  1.
         12    1    4    4    0    0 -0.13812335567E+02  0.35420182967E+01 -0.18122726886E+02  0.23059916245E+02  0.00000000000E+00 0. -1.
         -5    1    5    5    0  501 -0.18357744183E+02  0.49249008963E+02  0.65900912518E+02  0.84424474686E+02  0.47000000000E+01 0.  1.
         11    1    6    6    0    0 -0.71080296849E+02 -0.74930856545E+02  0.58205216615E+02  0.11855331756E+03  0.00000000000E+00 0. -1.
        -12    1    6    6    0    0 -0.11750987704E+01 -0.24729079017E+02  0.76845905046E+02  0.80735378419E+02  0.00000000000E+00 0.  1.
</event>
<event>
12    1  0.1348628E-002  0.1977986E+03  0.7818608E-02  0.1151610E+00
         -2   -1    0    0    0  501 -0.00000000000E+00  0.00000000000E+00  0.71459858359E+03  0.71459858359E+03  0.00000000000E+00 0. -1.
          2   -1    0    0  502    0  0.00000000000E+00 -0.00000000000E+00 -0.56243693873E+02  0.56243693873E+02  0.00000000000E+00 0.  1.
          6    2    1    2  502    0 -0.76290588624E+02  0.62683475435E+02  0.26736753981E+03  0.33294405441E+03  0.17209552585E+03 0.  0.
         24    2    3    3    0    0  0.17318281114E+02  0.15802459783E+02  0.65898852944E+02  0.10584898201E+03  0.79446255903E+02 0.  0.
         -6    2    1    2    0  501  0.76290588624E+02 -0.62683475435E+02  0.39098734991E+03  0.43789822306E+03  0.17068765028E+03 0.  0.
        -24    2    5    5    0    0  0.72035091670E+02 -0.77476759843E+02  0.39882012609E+03  0.41999870070E+03  0.78420104990E+02 0.  0.
          5    1    3    3  502    0 -0.93608869738E+02  0.46881015653E+02  0.20146868686E+03  0.22709507240E+03  0.47000000000E+01 0. -1.
        -11    1    4    4    0    0 -0.31582005084E+02  0.10596004529E+02  0.21932864619E+02  0.39884193705E+02  0.00000000000E+00 0.  1.
         12    1    4    4    0    0  0.48900286198E+02  0.52064552540E+01  0.43965988325E+02  0.65964788304E+02  0.00000000000E+00 0. -1.
         -5    1    5    5    0  501  0.42554969536E+01  0.14793284408E+02 -0.78327761794E+01  0.17899522356E+02  0.47000000000E+01 0.  1.
         11    1    6    6    0    0  0.62460330569E+02 -0.23985647452E+02  0.29849556086E+03  0.30590227857E+03  0.00000000000E+00 0. -1.
        -12    1    6    6    0    0  0.95747611009E+01 -0.53491112391E+02  0.10032456523E+03  0.11409642213E+03  0.00000000000E+00 0.  1.
</event>
<event>
12    1  0.1348628E-002  0.4251202E+03  0.7818608E-02  0.1035413E+00
          1   -1    0    0  502    0  0.00000000000E+00  0.00000000000E+00  0.25348083404E+04  0.25348083404E+04  0.00000000000E+00 0.  1.
         -1   -1    0    0    0  501 -0.00000000000E+00 -0.00000000000E+00 -0.72561094700E+02  0.72561094700E+02  0.00000000000E+00 0. -1.
          6    2    1    2  502    0  0.38700942482E+03 -0.33928724555E+02  0.10573643663E+04  0.11393928469E+04  0.17108244593E+03 0.  0.
         24    2    3    3    0    0  0.14220877154E+03 -0.59690496955E+02  0.35799475413E+03  0.39795439826E+03  0.80132196909E+02 0.  0.
         -6    2    1    2    0  501 -0.38700942482E+03  0.33928724555E+02  0.14048828795E+04  0.14679765882E+04  0.17416057330E+03 0.  0.
        -24    2    5    5    0    0 -0.18390361746E+03 -0.24387510553E+02  0.50315554746E+03  0.54180866416E+03  0.77303508575E+02 0.  0.
          5    1    3    3  502    0  0.24480065328E+03  0.25761772400E+02  0.69936961214E+03  0.74143844866E+03  0.47000000000E+01 0. -1.
        -11    1    4    4    0    0  0.12280637235E+03 -0.15167935651E+02  0.27924473060E+03  0.30543262912E+03  0.00000000000E+00 0.  1.
         12    1    4    4    0    0  0.19402399183E+02 -0.44522561304E+02  0.78750023536E+02  0.92521769147E+02  0.00000000000E+00 0. -1.
         -5    1    5    5    0  501 -0.20310580736E+03  0.58316235108E+02  0.90172733199E+03  0.92616792404E+03  0.47000000000E+01 0.  1.
         11    1    6    6    0    0 -0.60094773337E+02 -0.56024298041E+01  0.27501043231E+03  0.28155551297E+03  0.00000000000E+00 0. -1.
        -12    1    6    6    0    0 -0.12380884412E+03 -0.18785080749E+02  0.22814511514E+03  0.26025315119E+03  0.00000000000E+00 0.  1.
</event>
<event>
12    1  0.1348628E-002  0.2177491E+03  0.7818608E-02  0.1135572E+00
         -1   -1    0    0    0  501 -0.00000000000E+00  0.00000000000E+00  0.14752718967E+02  0.14752718967E+02  0.00000000000E+00 0. -1.
          1   -1    0    0  502    0  0.00000000000E+00 -0.00000000000E+00 -0.32409999931E+04  0.32409999931E+04  0.00000000000E+00 0.  1.
          6    2    1    2  502    0  0.11672154890E+03 -0.66087814204E+02 -0.17636714683E+04  0.17770939051E+04  0.17185511425E+03 0.  0.
         24    2    3    3    0    0  0.90624025078E+02 -0.98388903166E+02 -0.16167738529E+04  0.16243672195E+04  0.81963906928E+02 0.  0.
         -6    2    1    2    0  501 -0.11672154890E+03  0.66087814204E+02 -0.14625758058E+04  0.14786588070E+04  0.17120852911E+03 0.  0.
        -24    2    5    5    0    0 -0.12313631130E+03  0.65598534587E+01 -0.12146554324E+04  0.12235679822E+04  0.80778740443E+02 0.  0.
          5    1    3    3  502    0  0.26097523826E+02  0.32301088962E+02 -0.14689761539E+03  0.15272668563E+03  0.47000000000E+01 0. -1.
        -13    1    4    4    0    0  0.82763936374E+02 -0.45027054684E+02 -0.74632477561E+03  0.75224861283E+03  0.00000000000E+00 0.  1.
         14    1    4    4    0    0  0.78600887043E+01 -0.53361848482E+02 -0.87044907732E+03  0.87211860666E+03  0.00000000000E+00 0. -1.
         -5    1    5    5    0  501  0.64147623952E+01  0.59527960746E+02 -0.24792037345E+03  0.25509082473E+03  0.47000000000E+01 0.  1.
         11    1    6    6    0    0 -0.12863066592E+03  0.88970068594E+01 -0.12069612854E+04  0.12138288798E+04  0.00000000000E+00 0. -1.
        -12    1    6    6    0    0  0.54943546216E+01 -0.23371534008E+01 -0.76941469576E+01  0.97391024295E+01  0.00000000000E+00 0.  1.
</event>
<event>
12    1  0.1348628E-002  0.1863837E+03  0.7818608E-02  0.1161764E+00
         -1   -1    0    0    0  501 -0.00000000000E+00  0.00000000000E+00  0.43669487852E+02  0.43669487852E+02  0.00000000000E+00 0.  1.
          1   -1    0    0  502    0  0.00000000000E+00 -0.00000000000E+00 -0.92383237877E+03  0.92383237877E+03  0.00000000000E+00 0. -1.
          6    2    1    2  502    0  0.66366794525E+02 -0.27326357423E+02 -0.62161356590E+03  0.64913008050E+03  0.17267065436E+03 0.  0.
         24    2    3    3    0    0  0.10104226160E+03 -0.25170631335E+02 -0.58050756608E+03  0.59510389803E+03  0.79476511403E+02 0.  0.
         -6    2    1    2    0  501 -0.66366794525E+02  0.27326357423E+02 -0.25854932502E+03  0.31837178612E+03  0.17135215056E+03 0.  0.
        -24    2    5    5    0    0 -0.85490145950E+02  0.59517548902E+02 -0.13369356271E+03  0.18793779223E+03  0.81214169687E+02 0.  0.
          5    1    3    3  502    0 -0.34675467071E+02 -0.21557260878E+01 -0.41105999822E+02  0.54026182476E+02  0.47000000000E+01 0. -1.
        -11    1    4    4    0    0  0.24180100345E+02 -0.23620440924E+02 -0.59303483761E+02  0.68260571843E+02  0.00000000000E+00 0.  1.
         12    1    4    4    0    0  0.76862161250E+02 -0.15501904110E+01 -0.52120408232E+03  0.52684332618E+03  0.00000000000E+00 0. -1.
         -5    1    5    5    0  501  0.19123351425E+02 -0.32191191479E+02 -0.12485576231E+03  0.13043399388E+03  0.47000000000E+01 0.  1.
         11    1    6    6    0    0 -0.60254009973E+01  0.51464355805E+02 -0.45567027496E+02  0.69001734547E+02  0.00000000000E+00 0. -1.
        -12    1    6    6    0    0 -0.79464744952E+02  0.80531930967E+01 -0.88126535210E+02  0.11893605768E+03  0.00000000000E+00 0.  1.
</event>
<event>
12    1  0.1348628E-002  0.1751245E+03  0.7818608E-02  0.1172607E+00
         -2   -1    0    0    0  501 -0.00000000000E+00  0.00000000000E+00  0.34598747188E+02  0.34598747188E+02  0.00000000000E+00 0. -1.
          2   -1    0    0  502    0  0.00000000000E+00 -0.00000000000E+00 -0.98015182183E+03  0.98015182183E+03  0.00000000000E+00 0.  1.
          6    2    1    2  502    0 -0.30014249248E+02 -0.19486496794E+02 -0.63281615574E+03  0.65695004947E+03  0.17276140144E+03 0.  0.
         24    2    3    3    0    0  0.13858639672E+02  0.45888732886E+02 -0.41367841829E+03  0.42405052390E+03  0.79944826999E+02 0.  0.
         -6    2    1    2    0  501  0.30014249248E+02  0.19486496794E+02 -0.31273691891E+03  0.35780051955E+03  0.17010659195E+03 0.  0.
        -24    2    5    5    0    0  0.30932822208E+01 -0.45366320946E+02 -0.23751269427E+03  0.25478886775E+03  0.80233507443E+02 0.  0.
          5    1    3    3  502    0 -0.43872888919E+02 -0.65375229679E+02 -0.21913773745E+03  0.23289952557E+03  0.47000000000E+01 0. -1.
        -11    1    4    4    0    0 -0.26594770797E+02  0.34566948191E+02 -0.29391937287E+03  0.29713760026E+03  0.00000000000E+00 0.  1.
         12    1    4    4    0    0  0.40453410469E+02  0.11321784695E+02 -0.11975904542E+03  0.12691292364E+03  0.00000000000E+00 0. -1.
         -5    1    5    5    0  501  0.26920967027E+02  0.64852817739E+02 -0.75224224632E+02  0.10301165180E+03  0.47000000000E+01 0.  1.
         11    1    6    6    0    0 -0.76463308096E+01 -0.37165540504E+02 -0.34366474418E+02  0.51193733403E+02  0.00000000000E+00 0. -1.
        -12    1    6    6    0    0  0.10739613030E+02 -0.82007804423E+01 -0.20314621986E+03  0.20359513435E+03  0.00000000000E+00 0.  1.
</event>
<event>
12    1  0.1348628E-002  0.1854877E+03  0.7818608E-02  0.1162595E+00
         -1   -1    0    0    0  501 -0.00000000000E+00  0.00000000000E+00  0.16784535824E+03  0.16784535824E+03  0.00000000000E+00 0. -1.
          1   -1    0    0  502    0  0.00000000000E+00 -0.00000000000E+00 -0.31867883718E+03  0.31867883718E+03  0.00000000000E+00 0.  1.
          6    2    1    2  502    0 -0.40967649077E+02 -0.54476548091E+02  0.70020124154E+02  0.19777196861E+03  0.17194444224E+03 0.  0.
         24    2    3    3    0    0 -0.14215929767E+02 -0.94516840499E+02  0.16709363201E+02  0.12577886661E+03  0.80034959051E+02 0.  0.
         -6    2    1    2    0  501  0.40967649077E+02  0.54476548091E+02 -0.22085360310E+03  0.28875222681E+03  0.17307654931E+03 0.  0.
        -24    2    5    5    0    0  0.40561969526E+02 -0.95597115376E+01 -0.42179747426E+02  0.98891109607E+02  0.79143281521E+02 0.  0.
          5    1    3    3  502    0 -0.26751719310E+02  0.40040292408E+02  0.53310760952E+02  0.71993101999E+02  0.47000000000E+01 0. -1.
        -11    1    4    4    0    0  0.21818006364E+02 -0.82850698974E+02  0.37843423327E+01  0.85758876911E+02  0.00000000000E+00 0.  1.
         12    1    4    4    0    0 -0.36033936131E+02 -0.11666141525E+02  0.12925020869E+02  0.40019989700E+02  0.00000000000E+00 0. -1.
         -5    1    5    5    0  501  0.40567955125E+00  0.64036259629E+02 -0.17867385568E+03  0.18986111720E+03  0.47000000000E+01 0.  1.
         11    1    6    6    0    0 -0.15508094450E+02  0.14064798622E+02  0.54360340085E+01  0.21630303268E+02  0.00000000000E+00 0. -1.
        -12    1    6    6    0    0  0.56070063975E+02 -0.23624510160E+02 -0.47615781434E+02  0.77260806338E+02  0.00000000000E+00 0.  1.
</event>
<event>
12    1  0.1348628E-002  0.1831489E+03  0.7818608E-02  0.1164790E+00
          1   -1    0    0  502    0  0.00000000000E+00  0.00000000000E+00  0.38391923402E+03  0.38391923402E+03  0.00000000000E+00 0. -1.
         -1   -1    0    0    0  501 -0.00000000000E+00 -0.00000000000E+00 -0.12321853174E+03  0.12321853174E+03  0.00000000000E+00 0.  1.
          6    2    1    2  502    0  0.40443951269E+02  0.50528770884E+02 -0.70570780893E+01  0.18200311208E+03  0.16996017349E+03 0.  0.
         24    2    3    3    0    0  0.18415744808E+02  0.66033748307E+02  0.51656222896E+02  0.11723438569E+03  0.79849484988E+02 0.  0.
         -6    2    1    2    0  501 -0.40443951269E+02 -0.50528770884E+02  0.26775778037E+03  0.32513465368E+03  0.17271202679E+03 0.  0.
        -24    2    5    5    0    0 -0.81077728241E+02  0.66551876413E+01  0.14829065876E+03  0.18651433739E+03  0.78610362154E+02 0.  0.
          5    1    3    3  502    0  0.22028206461E+02 -0.15504977423E+02 -0.58713300986E+02  0.64768726384E+02  0.47000000000E+01 0. -1.
        -11    1    4    4    0    0 -0.25944686493E+02  0.26368615893E+01  0.40624255354E+01  0.26392860729E+02  0.00000000000E+00 0.  1.
         12    1    4    4    0    0  0.44360431300E+02  0.63396886718E+02  0.47593797361E+02  0.90841524965E+02  0.00000000000E+00 0. -1.
         -5    1    5    5    0  501  0.40633776972E+02 -0.57183958525E+02  0.11946712160E+03  0.13862031629E+03  0.47000000000E+01 0.  1.
         13    1    6    6    0    0  0.64699769109E+01 -0.18327130908E+02  0.43840227501E+02  0.47955290385E+02  0.00000000000E+00 0. -1.
        -14    1    6    6    0    0 -0.87547705152E+02  0.24982318549E+02  0.10445043126E+03  0.13855904701E+03  0.00000000000E+00 0.  1.
</event>
<event>
12    1  0.1348628E-002  0.2620911E+03  0.7818608E-02  0.1105893E+00
         -2   -1    0    0    0  501 -0.00000000000E+00  0.00000000000E+00  0.69647832682E+02  0.69647832682E+02  0.00000000000E+00 0.  1.
          2   -1    0    0  502    0  0.00000000000E+00 -0.00000000000E+00 -0.98715939061E+03  0.98715939061E+03  0.00000000000E+00 0. -1.
          6    2    1    2  502    0  0.18657073609E+03  0.64268988130E+02 -0.44276241968E+03  0.51447329043E+03  0.17235157058E+03 0.  0.
         24    2    3    3    0    0  0.17878405300E+03  0.94350231540E+02 -0.31293544016E+03  0.38089691434E+03  0.79297956102E+02 0.  0.
         -6    2    1    2    0  501 -0.18657073609E+03 -0.64268988130E+02 -0.47474913825E+03  0.54233393286E+03  0.17262736766E+03 0.  0.
        -24    2    5    5    0    0 -0.88412029846E+02 -0.61249058733E+02 -0.14476570628E+03  0.19801517509E+03  0.81760416044E+02 0.  0.
          5    1    3    3  502    0  0.77866830913E+01 -0.30081243411E+02 -0.12982697952E+03  0.13357637609E+03  0.47000000000E+01 0. -1.
        -11    1    4    4    0    0  0.57296175677E+01 -0.31056505831E+01  0.34236283873E+01  0.73617127322E+01  0.00000000000E+00 0.  1.
         12    1    4    4    0    0  0.17305443544E+03  0.97455882123E+02 -0.31635906855E+03  0.37353520161E+03  0.00000000000E+00 0. -1.
         -5    1    5    5    0  501 -0.98158706248E+02 -0.30199293961E+01 -0.32998343196E+03  0.34431875778E+03  0.47000000000E+01 0.  1.
         11    1    6    6    0    0 -0.88959531946E+01 -0.50224583564E+02 -0.79967083568E+02  0.94849255304E+02  0.00000000000E+00 0. -1.
        -12    1    6    6    0    0 -0.79516076652E+02 -0.11024475170E+02 -0.64798622715E+02  0.10316591978E+03  0.00000000000E+00 0.  1.
</event>
<event>
12    1  0.1348628E-002  0.2370822E+03  0.7818608E-02  0.1121752E+00
          1   -1    0    0  502    0  0.00000000000E+00  0.00000000000E+00  0.99177372569E+02  0.99177372569E+02  0.00000000000E+00 0.  1.
         -1   -1    0    0    0  501 -0.00000000000E+00 -0.00000000000E+00 -0.94648730114E+03  0.94648730114E+03  0.00000000000E+00 0. -1.
          6    2    1    2  502    0 -0.12722127693E+03 -0.10213744877E+03 -0.75537073342E+03  0.79185599794E+03  0.17272424502E+03 0.  0.
         24    2    3    3    0    0 -0.10951465510E+03 -0.85672569308E+02 -0.34636284088E+03  0.38210709571E+03  0.81886300686E+02 0.  0.
         -6    2    1    2    0  501  0.12722127693E+03  0.10213744877E+03 -0.91939195146E+02  0.25380867577E+03  0.17131467114E+03 0.  0.
        -24    2    5    5    0    0  0.15851947378E+03  0.67088930082E+02 -0.85349673984E+02  0.20612757283E+03  0.74663654643E+02 0.  0.
          5    1    3    3  502    0 -0.17706621829E+02 -0.16464879461E+02 -0.40900789255E+03  0.40974890223E+03  0.47000000000E+01 0. -1.
        -13    1    4    4    0    0 -0.10652554561E+03 -0.39210318515E+02 -0.26643125965E+03  0.28960448384E+03  0.00000000000E+00 0.  1.
         14    1    4    4    0    0 -0.29891094858E+01 -0.46462250793E+02 -0.79931581230E+02  0.92502611867E+02  0.00000000000E+00 0. -1.
         -5    1    5    5    0  501 -0.31298196851E+02  0.35048518687E+02 -0.65895211620E+01  0.47681102939E+02  0.47000000000E+01 0.  1.
         11    1    6    6    0    0  0.13809181791E+03  0.34627092576E+02 -0.88518961457E+02  0.16764245360E+03  0.00000000000E+00 0. -1.
        -12    1    6    6    0    0  0.20427655873E+02  0.32461837506E+02  0.31692874734E+01  0.38485119225E+02  0.00000000000E+00 0.  1.
</event>
<event>
12    1  0.1348628E-002  0.1764253E+03  0.7818608E-02  0.1171308E+00
          2   -1    0    0  502    0  0.00000000000E+00  0.00000000000E+00  0.44560487692E+03  0.44560487692E+03  0.00000000000E+00 0.  1.
         -2   -1    0    0    0  501 -0.00000000000E+00 -0.00000000000E+00 -0.74177360118E+02  0.74177360118E+02  0.00000000000E+00 0. -1.
          6    2    1    2  502    0 -0.29607580514E+01  0.29821871163E+01  0.12366934294E+03  0.21604340303E+03  0.17709597985E+03 0.  0.
         24    2    3    3    0    0  0.23747156476E+02  0.50236369823E+02  0.23859406593E+02  0.10233155723E+03  0.82552141268E+02 0.  0.
         -6    2    1    2    0  501  0.29607580514E+01 -0.29821871163E+01  0.24775817386E+03  0.30373883401E+03  0.17565735693E+03 0.  0.
        -24    2    5    5    0    0 -0.16912481885E+01  0.30933121973E+02  0.25317038833E+03  0.26876353675E+03  0.84728240901E+02 0.  0.
          5    1    3    3  502    0 -0.26707914527E+02 -0.47254182707E+02  0.99809936347E+02  0.11371184580E+03  0.47000000000E+01 0. -1.
        -13    1    4    4    0    0  0.22639588186E+02  0.64184664306E+02  0.41577061874E+02  0.79755088611E+02  0.00000000000E+00 0.  1.
         14    1    4    4    0    0  0.11075682903E+01 -0.13948294483E+02 -0.17717655281E+02  0.22576468616E+02  0.00000000000E+00 0. -1.
         -5    1    5    5    0  501  0.46520062398E+01 -0.33915309089E+02 -0.54122144684E+01  0.34975297256E+02  0.47000000000E+01 0.  1.
         11    1    6    6    0    0  0.99223816726E+01  0.67302470214E+01 -0.20255903596E+01  0.12159477757E+02  0.00000000000E+00 0. -1.
        -12    1    6    6    0    0 -0.11613629861E+02  0.24202874952E+02  0.25519597869E+03  0.25660405900E+03  0.00000000000E+00 0.  1.
</event>
<event>
12    1  0.1348628E-002  0.1796188E+03  0.7818608E-02  0.1168172E+00
         -2   -1    0    0    0  501 -0.00000000000E+00  0.00000000000E+00  0.29772832868E+02  0.29772832868E+02  0.00000000000E+00 0.  1.
          2   -1    0    0  502    0  0.00000000000E+00 -0.00000000000E+00 -0.15209152316E+04  0.15209152316E+04  0.00000000000E+00 0. -1.
          6    2    1    2  502    0  0.12853885254E+02 -0.53448867205E+02 -0.11666619527E+04  0.11806896799E+04  0.17293352608E+03 0.  0.
         24    2    3    3    0    0  0.11352222826E+02  0.30715499363E+02 -0.79135411076E+03  0.79602883987E+03  0.79676034176E+02 0.  0.
         -6    2    1    2    0  501 -0.12853885254E+02  0.53448867205E+02 -0.32448044598E+03  0.36999838457E+03  0.16908353258E+03 0.  0.
        -24    2    5    5    0    0  0.48281198548E+02  0.15395690767E+02 -0.11992227682E+03  0.15308439867E+03  0.80531852158E+02 0.  0.
          5    1    3    3  502    0  0.15016624283E+01 -0.84164366568E+02 -0.37530784196E+03  0.38466084000E+03  0.47000000000E+01 0. -1.
        -13    1    4    4    0    0 -0.12271109135E+02  0.85692701831E+01 -0.26076906874E+02  0.30066885156E+02  0.00000000000E+00 0.  1.
         14    1    4    4    0    0  0.23623331960E+02  0.22146229180E+02 -0.76527720389E+03  0.76596195472E+03  0.00000000000E+00 0. -1.
         -5    1    5    5    0  501 -0.61135083802E+02  0.38053176437E+02 -0.20455816916E+03  0.21691398590E+03  0.47000000000E+01 0.  1.
         11    1    6    6    0    0  0.96995777121E+01  0.87138596531E+01 -0.11247284643E+03  0.11322612041E+03  0.00000000000E+00 0. -1.
        -12    1    6    6    0    0  0.38581620836E+02  0.66818311143E+01 -0.74494303905E+01  0.39858278269E+02  0.00000000000E+00 0.  1.
</event>
<event>
12    1  0.1348628E-002  0.2199922E+03  0.7818608E-02  0.1133889E+00
          2   -1    0    0  502    0  0.00000000000E+00  0.00000000000E+00  0.32144637179E+03  0.32144637179E+03  0.00000000000E+00 0.  1.
         -2   -1    0    0    0  501 -0.00000000000E+00 -0.00000000000E+00 -0.15535630350E+03  0.15535630350E+03  0.00000000000E+00 0. -1.
          6    2    1    2  502    0 -0.13463321722E+03 -0.23476813789E+02  0.12490838045E+03  0.25290638176E+03  0.17228543313E+03 0.  0.
         24    2    3    3    0    0 -0.32029287386E+02 -0.66540841094E+02  0.86282804661E+02  0.13502465303E+03  0.73029964820E+02 0.  0.
         -6    2    1    2    0  501  0.13463321722E+03  0.23476813789E+02  0.41181687842E+02  0.22389629353E+03  0.17250030400E+03 0.  0.
        -24    2    5    5    0    0  0.22757129468E+02  0.55526538233E+02 -0.20024984353E+01  0.99677101005E+02  0.79564006153E+02 0.  0.
          5    1    3    3  502    0 -0.10260392983E+03  0.43064027305E+02  0.38625575785E+02  0.11788172873E+03  0.47000000000E+01 0. -1.
        -13    1    4    4    0    0 -0.54301901436E+02 -0.55141066333E+02  0.74297676127E+02  0.10728177093E+03  0.00000000000E+00 0.  1.
         14    1    4    4    0    0  0.22272614050E+02 -0.11399774762E+02  0.11985128534E+02  0.27742882100E+02  0.00000000000E+00 0. -1.
         -5    1    5    5    0  501  0.11187608775E+03 -0.32049724444E+02  0.43184186278E+02  0.12421919252E+03  0.47000000000E+01 0.  1.
         13    1    6    6    0    0  0.45422413267E+02  0.88125716011E+01 -0.94470313017E+01  0.47223971091E+02  0.00000000000E+00 0. -1.
        -14    1    6    6    0    0 -0.22665283799E+02  0.46713966632E+02  0.74445328664E+01  0.52453129914E+02  0.00000000000E+00 0.  1.
</event>
<event>
12    1  0.1348628E-002  0.2214890E+03  0.7818608E-02  0.1132778E+00
          2   -1    0    0  502    0  0.00000000000E+00  0.00000000000E+00  0.18600318635E+04  0.18600318635E+04  0.00000000000E+00 0. -1.
         -2   -1    0    0    0  501 -0.00000000000E+00 -0.00000000000E+00 -0.27877507513E+02  0.27877507513E+02  0.00000000000E+00 0.  1.
          6    2    1    2  502    0 -0.10078887109E+03 -0.97695044161E+02  0.11358421454E+04  0.11572643384E+04  0.17152449252E+03 0.  0.
         24    2    3    3    0    0 -0.10016972424E+03 -0.17790562303E+02  0.50182215444E+03  0.51821148576E+03  0.79794683553E+02 0.  0.
         -6    2    1    2    0  501  0.10078887109E+03  0.97695044161E+02  0.69631221059E+03  0.73064503259E+03  0.17113956540E+03 0.  0.
        -24    2    5    5    0    0  0.40859815307E+02  0.12599907896E+03  0.47062464380E+03  0.49538012251E+03  0.79803621603E+02 0.  0.
          5    1    3    3  502    0 -0.61914684578E+00 -0.79904481858E+02  0.63401999095E+03  0.63905285265E+03  0.47000000000E+01 0. -1.
        -11    1    4    4    0    0 -0.59571534868E+02  0.14915403428E+02  0.39034674100E+03  0.39514783972E+03  0.00000000000E+00 0.  1.
         12    1    4    4    0    0 -0.40598189372E+02 -0.32705965731E+02  0.11147541344E+03  0.12306364604E+03  0.00000000000E+00 0. -1.
         -5    1    5    5    0  501  0.59929055779E+02 -0.28304034797E+02  0.22568756679E+03  0.23526491008E+03  0.47000000000E+01 0.  1.
         11    1    6    6    0    0  0.42329278334E+02  0.34085550459E+02  0.25919461702E+03  0.26483096882E+03  0.00000000000E+00 0. -1.
        -12    1    6    6    0    0 -0.14694630274E+01  0.91913528499E+02  0.21143002678E+03  0.23054915369E+03  0.00000000000E+00 0.  1.
</event>
<event>
12    1  0.1348628E-002  0.2728270E+03  0.7818608E-02  0.1099672E+00
          2   -1    0    0  502    0  0.00000000000E+00  0.00000000000E+00  0.96008961980E+03  0.96008961980E+03  0.00000000000E+00 0.  1.
         -2   -1    0    0    0  501 -0.00000000000E+00 -0.00000000000E+00 -0.88239820949E+02  0.88239820949E+02  0.00000000000E+00 0. -1.
          6    2    1    2  502    0 -0.18511607635E+03 -0.10749773224E+03  0.62061691837E+03  0.67854088491E+03  0.17154780372E+03 0.  0.
         24    2    3    3    0    0 -0.17299774564E+03 -0.11558622922E+03  0.62442883853E+03  0.66276436888E+03  0.77825689102E+02 0.  0.
         -6    2    1    2    0  501  0.18511607635E+03  0.10749773224E+03  0.25123288048E+03  0.36978855584E+03  0.16673899255E+03 0.  0.
        -24    2    5    5    0    0  0.97120441427E+02  0.11608338328E+02  0.65676389969E+02  0.14309204329E+03  0.81208441634E+02 0.  0.
          5    1    3    3  502    0 -0.12118330714E+02  0.80884969819E+01 -0.38119201590E+01  0.15776516029E+02  0.47000000000E+01 0. -1.
        -11    1    4    4    0    0 -0.56123944658E+01 -0.32906383360E+02  0.66121062682E+02  0.74069723691E+02  0.00000000000E+00 0.  1.
         12    1    4    4    0    0 -0.16738535117E+03 -0.82679845862E+02  0.55830777585E+03  0.58869464519E+03  0.00000000000E+00 0. -1.
         -5    1    5    5    0  501  0.87995634927E+02  0.95889393912E+02  0.18555649051E+03  0.22669651255E+03  0.47000000000E+01 0.  1.
         11    1    6    6    0    0  0.15761866491E+02  0.23282246765E+02 -0.11470928155E+02  0.30365797247E+02  0.00000000000E+00 0. -1.
        -12    1    6    6    0    0  0.81358574936E+02 -0.11673908437E+02  0.77147318124E+02  0.11272624605E+03  0.00000000000E+00 0.  1.
</event>
<event>
12    1  0.1348628E-002  0.1955278E+03  0.7818608E-02  0.1153568E+00
          2   -1    0    0  502    0  0.00000000000E+00  0.00000000000E+00  0.15202855165E+04  0.15202855165E+04  0.00000000000E+00 0.  1.
         -2   -1    0    0    0  501 -0.00000000000E+00 -0.00000000000E+00 -0.31289713637E+02  0.31289713637E+02  0.00000000000E+00 0. -1.
          6    2    1    2  502    0  0.66486453163E+02  0.65435860735E+02  0.10855397407E+04  0.11028546857E+04  0.17084972634E+03 0.  0.
         24    2    3    3    0    0  0.51858747602E+02 -0.22298389201E+02  0.70871130885E+03  0.71564282461E+03  0.81770320173E+02 0.  0.
         -6    2    1    2    0  501 -0.66486453163E+02 -0.65435860735E+02  0.40345606224E+03  0.44872054443E+03  0.17283238270E+03 0.  0.
        -24    2    5    5    0    0 -0.93936313672E+02 -0.23776989316E+02  0.36420607684E+03  0.38506830359E+03  0.79007314701E+02 0.  0.
          5    1    3    3  502    0  0.14627705561E+02  0.87734249936E+02  0.37682843180E+03  0.38721186113E+03  0.47000000000E+01 0. -1.
        -13    1    4    4    0    0  0.23251804551E+02  0.30257891880E+02  0.33579689652E+03  0.33795819585E+03  0.00000000000E+00 0.  1.
         14    1    4    4    0    0  0.28606943051E+02 -0.52556281081E+02  0.37291441234E+03  0.37768462876E+03  0.00000000000E+00 0. -1.
         -5    1    5    5    0  501  0.27449860509E+02 -0.41658871419E+02  0.39249985398E+02  0.63652240837E+02  0.47000000000E+01 0.  1.
         13    1    6    6    0    0 -0.70802055165E+02 -0.29542518792E+02  0.14037778657E+03  0.15997379284E+03  0.00000000000E+00 0. -1.
        -14    1    6    6    0    0 -0.23134258507E+02  0.57655294760E+01  0.22382829027E+03  0.22509451076E+03  0.00000000000E+00 0.  1.
</event>
<event>
12    1  0.1348628E-002  0.1818977E+03  0.7818608E-02  0.1165979E+00
         -1   -1    0    0    0  501 -0.00000000000E+00  0.00000000000E+00  0.26915734463E+02  0.26915734463E+02  0.00000000000E+00 0.  1.
          1   -1    0    0  502    0  0.00000000000E+00 -0.00000000000E+00 -0.13202221632E+04  0.13202221632E+04  0.00000000000E+00 0. -1.
          6    2    1    2  502    0 -0.19308105939E+02 -0.46909866708E+02 -0.47912106171E+03  0.51346350429E+03  0.17752306869E+03 0.  0.
         24    2    3    3    0    0  0.45196598147E+02  0.73223102367E+01 -0.24854614384E+03  0.26792558743E+03  0.88952718181E+02 0.  0.
         -6    2    1    2    0  501  0.19308105939E+02  0.46909866708E+02 -0.81418536704E+03  0.83367439338E+03  0.17187740902E+03 0.  0.
        -24    2    5    5    0    0  0.14212997743E+02  0.97010471039E+02 -0.63894553788E+03  0.65128163474E+03  0.79393492025E+02 0.  0.
          5    1    3    3  502    0 -0.64504704086E+02 -0.54232176945E+02 -0.23057491787E+03  0.24553791686E+03  0.47000000000E+01 0. -1.
        -13    1    4    4    0    0  0.21394274697E+02 -0.39949751691E+02 -0.14022007784E+03  0.14736135138E+03  0.00000000000E+00 0.  1.
         14    1    4    4    0    0  0.23802323450E+02  0.47272061928E+02 -0.10832606600E+03  0.12056423605E+03  0.00000000000E+00 0. -1.
         -5    1    5    5    0  501  0.50951081960E+01 -0.50100604331E+02 -0.17523982916E+03  0.18239275864E+03  0.47000000000E+01 0.  1.
         13    1    6    6    0    0 -0.16503699378E+02  0.62995854869E+02 -0.51560539524E+03  0.51970161961E+03  0.00000000000E+00 0. -1.
        -14    1    6    6    0    0  0.30716697121E+02  0.34014616170E+02 -0.12334014264E+03  0.13158001513E+03  0.00000000000E+00 0.  1.
</event>
<event>
12    1  0.1348628E-002  0.1878116E+03  0.7818608E-02  0.1160450E+00
          2   -1    0    0  502    0  0.00000000000E+00  0.00000000000E+00  0.26187413941E+04  0.26187413941E+04  0.00000000000E+00 0.  1.
         -2   -1    0    0    0  501 -0.00000000000E+00 -0.00000000000E+00 -0.13628963766E+02  0.13628963766E+02  0.00000000000E+00 0. -1.
          6    2    1    2  502    0  0.21267072849E+02 -0.76401814900E+02  0.11497548445E+04  0.11647396100E+04  0.16850113026E+03 0.  0.
         24    2    3    3    0    0  0.34850475877E+02 -0.68098047826E+02  0.11402467495E+04  0.11456096530E+04  0.80043284698E+02 0.  0.
         -6    2    1    2    0  501 -0.21267072849E+02  0.76401814900E+02  0.14553575858E+04  0.14676307479E+04  0.17200227844E+03 0.  0.
        -24    2    5    5    0    0  0.13282865387E+02  0.51404070965E+02  0.40479043805E+03  0.41618792612E+03  0.80859619647E+02 0.  0.
          5    1    3    3  502    0 -0.13583403028E+02 -0.83037670734E+01  0.95080950209E+01  0.19129957040E+02  0.47000000000E+01 0. -1.
        -13    1    4    4    0    0  0.50329955949E+02 -0.38775484019E+02  0.43837950124E+03  0.44295962540E+03  0.00000000000E+00 0.  1.
         14    1    4    4    0    0 -0.15479480072E+02 -0.29322563807E+02  0.70186724829E+03  0.70265002759E+03  0.00000000000E+00 0. -1.
         -5    1    5    5    0  501 -0.34549938236E+02  0.24997743935E+02  0.10505671478E+04  0.10514428217E+04  0.47000000000E+01 0.  1.
         13    1    6    6    0    0 -0.16989253730E+02  0.49698637772E+02  0.34674869924E+03  0.35070393462E+03  0.00000000000E+00 0. -1.
        -14    1    6    6    0    0  0.30272119117E+02  0.17054331932E+01  0.58041738816E+02  0.65483991502E+02  0.00000000000E+00 0.  1.
</event>
<event>
12    1  0.1348628E-002  0.1785038E+03  0.7818608E-02  0.1169259E+00
          2   -1    0    0  502    0  0.00000000000E+00  0.00000000000E+00  0.18983206250E+03  0.18983206250E+03  0.00000000000E+00 0. -1.
         -2   -1    0    0    0  501 -0.00000000000E+00 -0.00000000000E+00 -0.24519825584E+03  0.24519825584E+03  0.00000000000E+00 0.  1.
          6    2    1    2  502    0  0.50234626112E+02  0.29110625385E+02  0.94646802908E+02  0.20056185651E+03  0.16702124061E+03 0.  0.
         24    2    3    3    0    0  0.15866796259E+02 -0.31041044684E+02  0.96953764808E+02  0.13108680189E+03  0.81045761405E+02 0.  0.
         -6    2    1    2    0  501 -0.50234626112E+02 -0.29110625385E+02 -0.15001299625E+03  0.23446846183E+03  0.17058902185E+03 0.  0.
        -24    2    5    5    0    0  0.76330761914E+01 -0.61010446212E+02 -0.44763678902E+02  0.11010697928E+03  0.79619228450E+02 0.  0.
          5    1    3    3  502    0  0.34367829853E+02  0.60151670069E+02 -0.23069619002E+01  0.69475054618E+02  0.47000000000E+01 0. -1.
        -13    1    4    4    0    0  0.15617538014E+02  0.83957529816E+01 -0.76383652152E+01  0.19306495925E+02  0.00000000000E+00 0.  1.
         14    1    4    4    0    0  0.24925824543E+00 -0.39436797666E+02  0.10459213002E+03  0.11178030597E+03  0.00000000000E+00 0. -1.
         -5    1    5    5    0  501 -0.57867702304E+02  0.31899820827E+02 -0.10524931735E+03  0.12436148254E+03  0.47000000000E+01 0.  1.
         11    1    6    6    0    0  0.33105951762E+02 -0.10565829806E+02 -0.40601366966E+02  0.53442602866E+02  0.00000000000E+00 0. -1.
        -12    1    6    6    0    0 -0.25472875571E+02 -0.50444616406E+02 -0.41623119356E+01  0.56664376418E+02  0.00000000000E+00 0.  1.
</event>
<event>
12    1  0.1348628E-002  0.1761429E+03  0.7818608E-02  0.1171589E+00
          2   -1    0    0  502    0  0.00000000000E+00  0.00000000000E+00  0.18446380167E+04  0.18446380167E+04  0.00000000000E+00 0.  1.
         -2   -1    0    0    0  501 -0.00000000000E+00 -0.00000000000E+00 -0.16819810956E+02  0.16819810956E+02  0.00000000000E+00 0. -1.
          6    2    1    2  502    0  0.31024955359E+02 -0.16183425868E+02  0.91133039223E+03  0.92814314372E+03  0.17234314695E+03 0.  0.
         24    2    3    3    0    0 -0.41333915394E+02 -0.61651455484E+01  0.67125113972E+03  0.67715248732E+03  0.78809243851E+02 0.  0.
         -6    2    1    2    0  501 -0.31024955359E+02  0.16183425868E+02  0.91648781349E+03  0.93331468392E+03  0.17292176210E+03 0.  0.
        -24    2    5    5    0    0 -0.82534314636E+02 -0.17827427566E+02  0.59678228392E+03  0.60767121648E+03  0.77365901227E+02 0.  0.
          5    1    3    3  502    0  0.72358870753E+02 -0.10018280320E+02  0.24007925251E+03  0.25099065640E+03  0.47000000000E+01 0. -1.
        -11    1    4    4    0    0  0.28617810382E+00 -0.44182202586E+01  0.52670305929E+03  0.52672166771E+03  0.00000000000E+00 0.  1.
         12    1    4    4    0    0 -0.41620093497E+02 -0.17469252898E+01  0.14454808043E+03  0.15043081961E+03  0.00000000000E+00 0. -1.
         -5    1    5    5    0  501  0.51509359276E+02  0.34010853434E+02  0.31970552957E+03  0.32564346743E+03  0.47000000000E+01 0.  1.
         11    1    6    6    0    0 -0.35203892913E+02 -0.31442024736E+02  0.13010494184E+03  0.13840235145E+03  0.00000000000E+00 0. -1.
        -12    1    6    6    0    0 -0.47330421722E+02  0.13614597170E+02  0.46667734208E+03  0.46926886503E+03  0.00000000000E+00 0.  1.
</event>
<event>
12    1  0.1348628E-002  0.2144041E+03  0.7818608E-02  0.1138125E+00
         -2   -1    0    0    0  501 -0.00000000000E+00  0.00000000000E+00  0.17051399075E+03  0.17051399075E+03  0.00000000000E+00 0.  1.
          2   -1    0    0  502    0  0.00000000000E+00 -0.00000000000E+00 -0.47355148752E+03  0.47355148752E+03  0.00000000000E+00 0. -1.
          6    2    1    2  502    0 -0.12280256584E+03 -0.35364442613E+02 -0.36291368103E+03  0.42158076866E+03  0.17231625184E+03 0.  0.
         24    2    3    3    0    0 -0.57857419665E+02 -0.52659035584E+02 -0.10530017051E+03  0.15530312078E+03  0.83129287112E+02 0.  0.
         -6    2    1    2    0  501  0.12280256584E+03  0.35364442613E+02  0.59876184258E+02  0.22248470962E+03  0.17199760055E+03 0.  0.
        -24    2    5    5    0    0  0.13269613097E+03  0.50461982470E+02  0.84062786925E+02  0.19194129643E+03  0.98082792986E+02 0.  0.
          5    1    3    3  502    0 -0.64945146171E+02  0.17294592971E+02 -0.25761351052E+03  0.26627764788E+03  0.47000000000E+01 0. -1.
        -13    1    4    4    0    0 -0.47174978960E+01 -0.29897913609E+02 -0.90787284363E+02  0.95699900870E+02  0.00000000000E+00 0.  1.
         14    1    4    4    0    0 -0.53139921769E+02 -0.22761121975E+02 -0.14512886144E+02  0.59603219908E+02  0.00000000000E+00 0. -1.
         -5    1    5    5    0  501 -0.98935651350E+01 -0.15097539856E+02 -0.24186602667E+02  0.30543413191E+02  0.47000000000E+01 0.  1.
         11    1    6    6    0    0  0.10091148171E+03 -0.10458573101E+02  0.34272345889E+02  0.10708455811E+03  0.00000000000E+00 0. -1.
        -12    1    6    6    0    0  0.31784649256E+02  0.60920555571E+02  0.49790441036E+02  0.84856738318E+02  0.00000000000E+00 0.  1.
</event>
<event>
12    1  0.1348628E-002  0.2295641E+03  0.7818608E-02  0.1126947E+00
          1   -1    0    0  502    0  0.00000000000E+00  0.00000000000E+00  0.15822754116E+04  0.15822754116E+04  0.00000000000E+00 0.  1.
         -1   -1    0    0    0  501 -0.00000000000E+00 -0.00000000000E+00 -0.54240830055E+02  0.54240830055E+02  0.00000000000E+00 0. -1.
          6    2    1    2  502    0 -0.10648647558E+03 -0.10991178890E+03  0.12762832695E+04  0.12971105916E+04  0.17371508861E+03 0.  0.
         24    2    3    3    0    0 -0.62739704702E+02  0.10004081728E+02  0.65018972340E+03  0.65812012652E+03  0.79618291367E+02 0.  0.
         -6    2    1    2    0  501  0.10648647558E+03  0.10991178890E+03  0.25175131210E+03  0.33940565011E+03  0.16851558196E+03 0.  0.
        -24    2    5    5    0    0  0.60734104498E+02  0.13779331232E+03  0.21451777267E+03  0.27399093260E+03  0.79859426437E+02 0.  0.
          5    1    3    3  502    0 -0.43746770878E+02 -0.11991587063E+03  0.62609354607E+03  0.63899046505E+03  0.47000000000E+01 0. -1.
        -13    1    4    4    0    0  0.36777408675E+01  0.75128488919E+01  0.37225251819E+03  0.37234648645E+03  0.00000000000E+00 0.  1.
         14    1    4    4    0    0 -0.66417445570E+02  0.24912328358E+01  0.27793720521E+03  0.28577364007E+03  0.00000000000E+00 0. -1.
         -5    1    5    5    0  501  0.45752371082E+02 -0.27881523419E+02  0.37233539436E+02  0.65414717509E+02  0.47000000000E+01 0.  1.
         13    1    6    6    0    0  0.77317822055E+02  0.96792474413E+02  0.13669559258E+03  0.18447903334E+03  0.00000000000E+00 0. -1.
        -14    1    6    6    0    0 -0.16583717557E+02  0.41000837907E+02  0.77822180089E+02  0.89511899269E+02  0.00000000000E+00 0.  1.
</event>
<event>
12    1  0.1348628E-002  0.2007361E+03  0.7818608E-02  0.1149119E+00
          2   -1    0    0  502    0  0.00000000000E+00  0.00000000000E+00  0.79225138419E+03  0.79225138419E+03  0.00000000000E+00 0. -1.
         -2   -1    0    0    0  501 -0.00000000000E+00 -0.00000000000E+00 -0.68889800458E+02  0.68889800458E+02  0.00000000000E+00 0.  1.
          6    2    1    2  502    0 -0.85761320381E+02 -0.18107526238E+02  0.59216243770E+03  0.62798361866E+03  0.18980038486E+03 0.  0.
         24    2    3    3    0    0 -0.58143423901E+02  0.58745875254E+02  0.24198464607E+03  0.26837860023E+03  0.81478638449E+02 0.  0.
         -6    2    1    2    0  501  0.85761320381E+02  0.18107526238E+02  0.13119914603E+03  0.23315756599E+03  0.17165764789E+03 0.  0.
        -24    2    5    5    0    0  0.95016676192E+02 -0.37895041673E+02  0.63509296453E+02  0.14469313834E+03  0.80240081065E+02 0.  0.
          5    1    3    3  502    0 -0.27617896479E+02 -0.76853401492E+02  0.35017779163E+03  0.35960501843E+03  0.47000000000E+01 0. -1.
        -11    1    4    4    0    0  0.70007851616E+01  0.51713466506E+01 -0.30588520442E+01  0.92255295180E+01  0.00000000000E+00 0.  1.
         12    1    4    4    0    0 -0.65144209063E+02  0.53574528604E+02  0.24504349812E+03  0.25915307071E+03  0.00000000000E+00 0. -1.
         -5    1    5    5    0  501 -0.92553558114E+01  0.56002567911E+02  0.67689849572E+02  0.88464427647E+02  0.47000000000E+01 0.  1.
         13    1    6    6    0    0 -0.73090080320E+01 -0.21501370149E+02  0.25906962522E+02  0.34451432826E+02  0.00000000000E+00 0. -1.
        -14    1    6    6    0    0  0.10232568422E+03 -0.16393671524E+02  0.37602333932E+02  0.11024170552E+03  0.00000000000E+00 0.  1.
</event>
<event>
12    1  0.1348628E-002  0.3317530E+03  0.7818608E-02  0.1070364E+00
          2   -1    0    0  502    0  0.00000000000E+00  0.00000000000E+00  0.19512961861E+04  0.19512961861E+04  0.00000000000E+00 0. -1.
         -2   -1    0    0    0  501 -0.00000000000E+00 -0.00000000000E+00 -0.69211350617E+02  0.69211350617E+02  0.00000000000E+00 0.  1.
          6    2    1    2  502    0  0.28273387857E+03  0.36475181512E+02  0.13729925095E+04  0.14122383992E+04  0.16745142632E+03 0.  0.
         24    2    3    3    0    0  0.22311749525E+03 -0.25204778032E+02  0.87788402149E+03  0.90973164757E+03  0.80713182824E+02 0.  0.
         -6    2    1    2    0  501 -0.28273387857E+03 -0.36475181512E+02  0.50909232605E+03  0.60826913755E+03  0.17189375292E+03 0.  0.
        -24    2    5    5    0    0 -0.82524853053E+02 -0.69445317553E+01  0.10660197362E+03  0.15774024061E+03  0.81605299070E+02 0.  0.
          5    1    3    3  502    0  0.59616383314E+02  0.61679959544E+02  0.49510848799E+03  0.50250675165E+03  0.47000000000E+01 0. -1.
        -13    1    4    4    0    0 -0.51340962456E+01 -0.81857986347E+01  0.31889492182E+02  0.33321253806E+02  0.00000000000E+00 0.  1.
         14    1    4    4    0    0  0.22825159150E+03 -0.17018979398E+02  0.84599452931E+03  0.87641039376E+03  0.00000000000E+00 0. -1.
         -5    1    5    5    0  501 -0.20020902552E+03 -0.29530649756E+02  0.40249035243E+03  0.45052889694E+03  0.47000000000E+01 0.  1.
         13    1    6    6    0    0 -0.19589059534E+02 -0.27300911147E+02  0.79403628362E+02  0.86220688932E+02  0.00000000000E+00 0. -1.
        -14    1    6    6    0    0 -0.62935793519E+02  0.20356379391E+02  0.27198345256E+02  0.71519551680E+02  0.00000000000E+00 0.  1.
</event>
<event>
12    1  0.1348628E-002  0.1759148E+03  0.7818608E-02  0.1171816E+00
          1   -1    0    0  502    0  0.00000000000E+00  0.00000000000E+00  0.34985978133E+03  0.34985978133E+03  0.00000000000E+00 0.  1.
         -1   -1    0    0    0  501 -0.00000000000E+00 -0.00000000000E+00 -0.91853232564E+02  0.91853232564E+02  0.00000000000E+00 0. -1.
          6    2    1    2  502    0  0.83780753695E+01  0.49329957846E+02  0.88990537042E+02  0.20006539153E+03  0.17205582907E+03 0.  0.
         24    2    3    3    0    0  0.53096539067E+02  0.61614424099E+02  0.18129826209E+02  0.11524806166E+03  0.79610585973E+02 0.  0.
         -6    2    1    2    0  501 -0.83780753695E+01 -0.49329957846E+02  0.16901601172E+03  0.24164762236E+03  0.16529828883E+03 0.  0.
        -24    2    5    5    0    0 -0.52570298380E+02 -0.59962104981E+02  0.69327443840E+02  0.13198497743E+03  0.79086342014E+02 0.  0.
          5    1    3    3  502    0 -0.44718463698E+02 -0.12284466253E+02  0.70860710833E+02  0.84817329870E+02  0.47000000000E+01 0. -1.
        -11    1    4    4    0    0  0.14061386453E+02 -0.87064552582E+01 -0.20238290515E+02  0.26136437307E+02  0.00000000000E+00 0.  1.
         12    1    4    4    0    0  0.39035152615E+02  0.70320879357E+02  0.38368116724E+02  0.89111624349E+02  0.00000000000E+00 0. -1.
         -5    1    5    5    0  501  0.44192223011E+02  0.10632147134E+02  0.99688567879E+02  0.10966264493E+03  0.47000000000E+01 0.  1.
         11    1    6    6    0    0  0.18831018886E+02 -0.47769547855E+01  0.24366057197E+02  0.31162979842E+02  0.00000000000E+00 0. -1.
        -12    1    6    6    0    0 -0.71401317266E+02 -0.55185150195E+02  0.44961386643E+02  0.10082199759E+03  0.00000000000E+00 0.  1.
</event>
<event>
12    1  0.1348628E-002  0.1944090E+03  0.7818608E-02  0.1154544E+00
         -2   -1    0    0    0  501 -0.00000000000E+00  0.00000000000E+00  0.30880245210E+02  0.30880245210E+02  0.00000000000E+00 0. -1.
          2   -1    0    0  502    0  0.00000000000E+00 -0.00000000000E+00 -0.12896332404E+04  0.12896332404E+04  0.00000000000E+00 0.  1.
          6    2    1    2  502    0 -0.88935375744E+02  0.13795542372E+02 -0.47939422126E+03  0.51719891682E+03  0.17197698140E+03 0.  0.
         24    2    3    3    0    0  0.14121980078E+02 -0.17060924845E+02 -0.27431740481E+03  0.28557091591E+03  0.76224693865E+02 0.  0.
         -6    2    1    2    0  501  0.88935375744E+02 -0.13795542372E+02 -0.77935877390E+03  0.80331456876E+03  0.17266841021E+03 0.  0.
        -24    2    5    5    0    0 -0.10759494708E+02  0.77470165685E+01 -0.21869544692E+03  0.23342983896E+03  0.80535757415E+02 0.  0.
          5    1    3    3  502    0 -0.10305735582E+03  0.30856467218E+02 -0.20507681645E+03  0.23162800090E+03  0.47000000000E+01 0. -1.
        -11    1    4    4    0    0 -0.17727856221E+02  0.18951954904E+02 -0.15099278864E+03  0.15320664380E+03  0.00000000000E+00 0.  1.
         12    1    4    4    0    0  0.31849836299E+02 -0.36012879749E+02 -0.12332461617E+03  0.13236427212E+03  0.00000000000E+00 0. -1.
         -5    1    5    5    0  501  0.99694870452E+02 -0.21542558941E+02 -0.56066332698E+03  0.56988472980E+03  0.47000000000E+01 0.  1.
         13    1    6    6    0    0  0.28318657902E+01  0.42234008418E+02 -0.89208714152E+02  0.98741711610E+02  0.00000000000E+00 0. -1.
        -14    1    6    6    0    0 -0.13591360499E+02 -0.34486991849E+02 -0.12948673277E+03  0.13468812735E+03  0.00000000000E+00 0.  1.
</event>
<event>
12    1  0.1348628E-002  0.1753423E+03  0.7818608E-02  0.1172388E+00
          2   -1    0    0  502    0  0.00000000000E+00  0.00000000000E+00  0.50884930879E+03  0.50884930879E+03  0.00000000000E+00 0.  1.
         -2   -1    0    0    0  501 -0.00000000000E+00 -0.00000000000E+00 -0.61085888122E+02  0.61085888122E+02  0.00000000000E+00 0. -1.
          6    2    1    2  502    0  0.81267214995E+01 -0.29094710504E+02  0.25245525563E+03  0.30686434954E+03  0.17181247668E+03 0.  0.
         24    2    3    3    0    0  0.15332528689E+02  0.39037694142E+02  0.68771178857E+02  0.11076264562E+03  0.76025394598E+02 0.  0.
         -6    2    1    2    0  501 -0.81267214995E+01  0.29094710504E+02  0.19530816504E+03  0.26307084737E+03  0.17363307757E+03 0.  0.
        -24    2    5    5    0    0 -0.62154834318E+02 -0.18487297097E+02  0.12560814088E+03  0.16275500720E+03  0.80664637420E+02 0.  0.
          5    1    3    3  502    0 -0.72058071891E+01 -0.68132404646E+02  0.18368407677E+03  0.19610170391E+03  0.47000000000E+01 0. -1.
        -13    1    4    4    0    0 -0.66491050402E+01 -0.23077847548E+01 -0.13996952830E+02  0.15666880891E+02  0.00000000000E+00 0.  1.
         14    1    4    4    0    0  0.21981633729E+02  0.41345478897E+02  0.82768131688E+02  0.95095764730E+02  0.00000000000E+00 0. -1.
         -5    1    5    5    0  501  0.54028112818E+02  0.47582007601E+02  0.69700024161E+02  0.10031584018E+03  0.47000000000E+01 0.  1.
         13    1    6    6    0    0 -0.18247757973E+02 -0.34733851187E+02  0.10407259267E+03  0.11122286471E+03  0.00000000000E+00 0. -1.
        -14    1    6    6    0    0 -0.43907076344E+02  0.16246554090E+02  0.21535548211E+02  0.51532142490E+02  0.00000000000E+00 0.  1.
</event>
<event>
12    1  0.1348628E-002  0.1883808E+03  0.7818608E-02  0.1159930E+00
          2   -1    0    0  502    0  0.00000000000E+00  0.00000000000E+00  0.12067430219E+04  0.12067430219E+04  0.00000000000E+00 0.  1.
         -2   -1    0    0    0  501 -0.00000000000E+00 -0.00000000000E+00 -0.29430115585E+02  0.29430115585E+02  0.00000000000E+00 0. -1.
          6    2    1    2  502    0  0.42872810973E+02  0.64044882576E+02  0.60657940890E+03  0.63523578284E+03  0.17218041581E+03 0.  0.
         24    2    3    3    0    0  0.36209940289E+02  0.56191371579E+02  0.61332557300E+03  0.62205730755E+03  0.79488397660E+02 0.  0.
         -6    2    1    2    0  501 -0.42872810973E+02 -0.64044882576E+02  0.57073349745E+03  0.60093735469E+03  0.17160755881E+03 0.  0.
        -24    2    5    5    0    0 -0.20871936438E+02 -0.43092469767E+02  0.56287467247E+03  0.56920577400E+03  0.69819177667E+02 0.  0.
          5    1    3    3  502    0  0.66628706848E+01  0.78535109972E+01 -0.67461641019E+01  0.13178475285E+02  0.47000000000E+01 0. -1.
        -11    1    4    4    0    0  0.92079385223E+01 -0.20533333048E+02  0.13797680989E+03  0.13979987112E+03  0.00000000000E+00 0.  1.
         12    1    4    4    0    0  0.27002001766E+02  0.76724704627E+02  0.47534876311E+03  0.48225743643E+03  0.00000000000E+00 0. -1.
         -5    1    5    5    0  501 -0.22000874535E+02 -0.20952412809E+02  0.78588249877E+01  0.31731580689E+02  0.47000000000E+01 0.  1.
         13    1    6    6    0    0 -0.79259819377E+01 -0.12266518863E+01  0.46644244481E+01  0.92780773849E+01  0.00000000000E+00 0. -1.
        -14    1    6    6    0    0 -0.12945954501E+02 -0.41865817880E+02  0.55821024802E+03  0.55992769662E+03  0.00000000000E+00 0.  1.
</event>
<event>
12    1  0.1348628E-002  0.1853615E+03  0.7818608E-02  0.1162713E+00
          2   -1    0    0  502    0  0.00000000000E+00  0.00000000000E+00  0.76079669658E+03  0.76079669658E+03  0.00000000000E+00 0.  1.
         -2   -1    0    0    0  501 -0.00000000000E+00 -0.00000000000E+00 -0.74617614657E+02  0.74617614657E+02  0.00000000000E+00 0. -1.
          6    2    1    2  502    0  0.68632753661E+02  0.13566390694E+02  0.60584280415E+03  0.63364574226E+03  0.17195034608E+03 0.  0.
         24    2    3    3    0    0  0.70360307250E+02  0.49595340874E+02  0.23902512848E+03  0.26502891291E+03  0.75478751745E+02 0.  0.
         -6    2    1    2    0  501 -0.68632753661E+02 -0.13566390694E+02  0.80336277772E+02  0.20176856897E+03  0.17135383295E+03 0.  0.
        -24    2    5    5    0    0  0.11064264595E+02  0.39889135751E+02  0.59151687367E+02  0.10338165471E+03  0.73995157350E+02 0.  0.
          5    1    3    3  502    0 -0.17275535887E+01 -0.36028950180E+02  0.36681767567E+03  0.36861682935E+03  0.47000000000E+01 0. -1.
        -13    1    4    4    0    0  0.12529328414E+01  0.33155527831E+02  0.13531473090E+03  0.13932313255E+03  0.00000000000E+00 0.  1.
         14    1    4    4    0    0  0.69107374408E+02  0.16439813044E+02  0.10371039758E+03  0.12570578036E+03  0.00000000000E+00 0. -1.
         -5    1    5    5    0  501 -0.79697018256E+02 -0.53455526445E+02  0.21184590405E+02  0.98386914257E+02  0.47000000000E+01 0.  1.
         11    1    6    6    0    0  0.28963321591E+02  0.29732798181E+02  0.80919023313E+00  0.41515877374E+02  0.00000000000E+00 0. -1.
        -12    1    6    6    0    0 -0.17899056997E+02  0.10156337570E+02  0.58342497134E+02  0.61865777341E+02  0.00000000000E+00 0.  1.
</event>
<event>
12    1  0.1348628E-002  0.1953731E+03  0.7818608E-02  0.1153702E+00
         -2   -1    0    0    0  501 -0.00000000000E+00  0.00000000000E+00  0.11105475760E+03  0.11105475760E+03  0.00000000000E+00 0.  1.
          2   -1    0    0  502    0  0.00000000000E+00 -0.00000000000E+00 -0.63473262524E+03  0.63473262524E+03  0.00000000000E+00 0. -1.
          6    2    1    2  502    0  0.70603554003E+01  0.10138962620E+03 -0.12035632662E+02  0.19937632285E+03  0.17110335106E+03 0.  0.
         24    2    3    3    0    0 -0.43136377402E+02  0.11799627551E+02  0.17591797647E+02  0.92390555259E+02  0.78908586928E+02 0.  0.
         -6    2    1    2    0  501 -0.70603554003E+01 -0.10138962620E+03 -0.51164223498E+03  0.54641105999E+03  0.16265781552E+03 0.  0.
        -24    2    5    5    0    0 -0.35749871501E+02 -0.48111134632E+01 -0.29527575482E+03  0.30769147305E+03  0.78645222838E+02 0.  0.
          5    1    3    3  502    0  0.50196732802E+02  0.89589998645E+02 -0.29627430310E+02  0.10698576760E+03  0.47000000000E+01 0. -1.
        -13    1    4    4    0    0 -0.33987489143E+02  0.41660354241E+02 -0.47740137019E+01  0.53977085328E+02  0.00000000000E+00 0.  1.
         14    1    4    4    0    0 -0.91488882589E+01 -0.29860726690E+02  0.22365811349E+02  0.38413469931E+02  0.00000000000E+00 0. -1.
         -5    1    5    5    0  501  0.28689516101E+02 -0.96578512733E+02 -0.21636648016E+03  0.23871958695E+03  0.47000000000E+01 0.  1.
         13    1    6    6    0    0  0.10031239917E+02 -0.10062994395E+02 -0.21232889920E+03  0.21280378536E+03  0.00000000000E+00 0. -1.
        -14    1    6    6    0    0 -0.45781111419E+02  0.52518809315E+01 -0.82946855624E+02  0.94887687683E+02  0.00000000000E+00 0.  1.
</event>
<event>
12    1  0.1348628E-002  0.1732767E+03  0.7818608E-02  0.1174473E+00
          2   -1    0    0  502    0  0.00000000000E+00  0.00000000000E+00  0.56254641692E+03  0.56254641692E+03  0.00000000000E+00 0.  1.
         -2   -1    0    0    0  501 -0.00000000000E+00 -0.00000000000E+00 -0.53821215597E+02  0.53821215597E+02  0.00000000000E+00 0. -1.
          6    2    1    2  502    0  0.16476849867E+02  0.24837461282E+02  0.22541683958E+03  0.28396781593E+03  0.17010756260E+03 0.  0.
         24    2    3    3    0    0 -0.61723194448E+01  0.39720224680E+02  0.23773089556E+03  0.25383133485E+03  0.79363556309E+02 0.  0.
         -6    2    1    2    0  501 -0.16476849867E+02 -0.24837461282E+02  0.28330836174E+03  0.33239981659E+03  0.17128229380E+03 0.  0.
        -24    2    5    5    0    0 -0.25184314417E+02 -0.24840499320E+02  0.51827672064E+02  0.10070773722E+03  0.78769541355E+02 0.  0.
          5    1    3    3  502    0  0.22649169312E+02 -0.14882763398E+02 -0.12314055986E+02  0.30136481077E+02  0.47000000000E+01 0. -1.
        -13    1    4    4    0    0  0.35363872679E+02  0.12934011848E+02  0.77723356569E+02  0.86364415761E+02  0.00000000000E+00 0.  1.
         14    1    4    4    0    0 -0.41536192124E+02  0.26786212831E+02  0.16000753899E+03  0.16746691909E+03  0.00000000000E+00 0. -1.
         -5    1    5    5    0  501  0.87074645496E+01  0.30380387448E-02  0.23148068968E+03  0.23169207937E+03  0.47000000000E+01 0.  1.
         11    1    6    6    0    0 -0.12182403288E+02  0.27972771973E+02  0.10045176798E+02  0.32121527029E+02  0.00000000000E+00 0. -1.
        -12    1    6    6    0    0 -0.13001911129E+02 -0.52813271294E+02  0.41782495266E+02  0.68586210191E+02  0.00000000000E+00 0.  1.
</event>
<event>
12    1  0.1348628E-002  0.1978003E+03  0.7818608E-02  0.1151608E+00
          2   -1    0    0  502    0  0.00000000000E+00  0.00000000000E+00  0.60011917208E+03  0.60011917208E+03  0.00000000000E+00 0. -1.
         -2   -1    0    0    0  501 -0.00000000000E+00 -0.00000000000E+00 -0.79081585971E+02  0.79081585971E+02  0.00000000000E+00 0.  1.
          6    2    1    2  502    0  0.82539176124E+02  0.43869779514E+02  0.11931098680E+03  0.23185886788E+03  0.17545982416E+03 0.  0.
         24    2    3    3    0    0  0.49918616946E+02  0.11704997080E+02  0.14992388026E+03  0.17656046504E+03  0.77894497034E+02 0.  0.
         -6    2    1    2    0  501 -0.82539176124E+02 -0.43869779514E+02  0.40172659931E+03  0.44734189017E+03  0.17318554488E+03 0.  0.
        -24    2    5    5    0    0  0.57720928859E+01  0.15970123853E+02  0.11223671590E+03  0.13878690825E+03  0.79852135811E+02 0.  0.
          5    1    3    3  502    0  0.32620559178E+02  0.32164782434E+02 -0.30612893467E+02  0.55298402839E+02  0.47000000000E+01 0. -1.
        -13    1    4    4    0    0  0.33543546677E+02  0.75794248080E+01  0.10270915442E+02  0.35890234161E+02  0.00000000000E+00 0.  1.
         14    1    4    4    0    0  0.16375070269E+02  0.41255722723E+01  0.13965296482E+03  0.14067023088E+03  0.00000000000E+00 0. -1.
         -5    1    5    5    0  501 -0.88311269009E+02 -0.59839903367E+02  0.28948988341E+03  0.30855498191E+03  0.47000000000E+01 0.  1.
         13    1    6    6    0    0 -0.78937844399E+01  0.17496503631E+02  0.12097902898E+03  0.12249230558E+03  0.00000000000E+00 0. -1.
        -14    1    6    6    0    0  0.13665877326E+02 -0.15263797784E+01 -0.87423130812E+01  0.16294602674E+02  0.00000000000E+00 0.  1.
</event>
<event>
12    1  0.1348628E-002  0.2163962E+03  0.7818608E-02  0.1136599E+00
         -2   -1    0    0    0  501 -0.00000000000E+00  0.00000000000E+00  0.11761429510E+04  0.11761429510E+04  0.00000000000E+00 0.  1.
          2   -1    0    0  502    0  0.00000000000E+00 -0.00000000000E+00 -0.42363922749E+02  0.42363922749E+02  0.00000000000E+00 0. -1.
          6    2    1    2  502    0 -0.13205185711E+03  0.19812572488E+02  0.71930448178E+03  0.75150158502E+03  0.17182975231E+03 0.  0.
         24    2    3    3    0    0 -0.14253904806E+03  0.18182375474E+02  0.72118315341E+03  0.73974326357E+03  0.80417512054E+02 0.  0.
         -6    2    1    2    0  501  0.13205185711E+03 -0.19812572488E+02  0.41447454642E+03  0.46700528868E+03  0.16874406369E+03 0.  0.
        -24    2    5    5    0    0  0.37637230185E+02 -0.42688129315E+02  0.99615886050E+02  0.13746700731E+03  0.75729887529E+02 0.  0.
          5    1    3    3  502    0  0.10487190946E+02  0.16301970145E+01 -0.18786716206E+01  0.11758321449E+02  0.47000000000E+01 0. -1.
        -11    1    4    4    0    0 -0.93632099802E+01  0.22588387997E+01  0.24065895881E+03  0.24085162758E+03  0.00000000000E+00 0.  1.
         12    1    4    4    0    0 -0.13317583808E+03  0.15923536674E+02  0.48052419460E+03  0.49889163599E+03  0.00000000000E+00 0. -1.
         -5    1    5    5    0  501  0.94414626930E+02  0.22875556826E+02  0.31485866037E+03  0.32953828137E+03  0.47000000000E+01 0.  1.
         11    1    6    6    0    0  0.34102419892E+02 -0.36739735462E+02  0.11232140087E+03  0.12299951340E+03  0.00000000000E+00 0. -1.
        -12    1    6    6    0    0  0.35348102930E+01 -0.59483938522E+01 -0.12705514818E+02  0.14467493909E+02  0.00000000000E+00 0.  1.
</event>
<event>
12    1  0.1348628E-002  0.1813714E+03  0.7818608E-02  0.1166482E+00
         -1   -1    0    0    0  501 -0.00000000000E+00  0.00000000000E+00  0.19101728916E+02  0.19101728916E+02  0.00000000000E+00 0. -1.
          1   -1    0    0  502    0  0.00000000000E+00 -0.00000000000E+00 -0.18325971104E+04  0.18325971104E+04  0.00000000000E+00 0.  1.
          6    2    1    2  502    0 -0.32999644384E+02 -0.49897695853E+02 -0.11307461120E+04  0.11450891837E+04  0.17048082619E+03 0.  0.
         24    2    3    3    0    0 -0.65829192097E+02 -0.73891463319E+01 -0.44958536328E+03  0.46179802199E+03  0.82111705769E+02 0.  0.
         -6    2    1    2    0  501  0.32999644384E+02  0.49897695853E+02 -0.68274926941E+03  0.70660965560E+03  0.17196477527E+03 0.  0.
        -24    2    5    5    0    0  0.45071744938E+02  0.40225410904E+02 -0.19902738441E+03  0.22261767144E+03  0.79354785729E+02 0.  0.
          5    1    3    3  502    0  0.32829547713E+02 -0.42508549522E+02 -0.68116074875E+03  0.68329116168E+03  0.47000000000E+01 0. -1.
        -11    1    4    4    0    0 -0.26754674259E+02  0.45743975960E+01 -0.38096901026E+03  0.38193471233E+03  0.00000000000E+00 0.  1.
         12    1    4    4    0    0 -0.39074517838E+02 -0.11963543928E+02 -0.68616353020E+02  0.79863309657E+02  0.00000000000E+00 0. -1.
         -5    1    5    5    0  501 -0.12072100554E+02  0.96722849499E+01 -0.48372188500E+03  0.48399198416E+03  0.47000000000E+01 0.  1.
         11    1    6    6    0    0  0.46631031204E+02  0.59599898727E+02 -0.12536692797E+03  0.14643588231E+03  0.00000000000E+00 0. -1.
        -12    1    6    6    0    0 -0.15592862660E+01 -0.19374487823E+02 -0.73660456440E+02  0.76181789129E+02  0.00000000000E+00 0.  1.
</event>
<event>
12    1  0.1348628E-002  0.1775836E+03  0.7818608E-02  0.1170162E+00
          1   -1    0    0  502    0  0.00000000000E+00  0.00000000000E+00  0.23121509200E+03  0.23121509200E+03  0.00000000000E+00 0.  1.
         -1   -1    0    0    0  501 -0.00000000000E+00 -0.00000000000E+00 -0.31916016837E+03  0.31916016837E+03  0.00000000000E+00 0. -1.
          6    2    1    2  502    0 -0.32273735198E+02 -0.35761108158E+02  0.16429984298E+03  0.24173900199E+03  0.17065419959E+03 0.  0.
         24    2    3    3    0    0 -0.17298995814E+02  0.37297685541E+02  0.13683210752E+03  0.16212495393E+03  0.76623119455E+02 0.  0.
         -6    2    1    2    0  501  0.32273735198E+02  0.35761108158E+02 -0.25224491936E+03  0.30863625838E+03  0.17119693282E+03 0.  0.
        -24    2    5    5    0    0  0.19534477108E+02  0.89539675635E+02 -0.15666627805E+03  0.19812929167E+03  0.79447745296E+02 0.  0.
          5    1    3    3  502    0 -0.14974739384E+02 -0.73058793699E+02  0.27467735460E+02  0.79614048055E+02  0.47000000000E+01 0. -1.
        -11    1    4    4    0    0 -0.58089728807E+01  0.20639230525E+02 -0.22677774524E+01  0.21560723948E+02  0.00000000000E+00 0.  1.
         12    1    4    4    0    0 -0.11490022933E+02  0.16658455016E+02  0.13909988497E+03  0.14056422998E+03  0.00000000000E+00 0. -1.
         -5    1    5    5    0  501  0.12739258090E+02 -0.53778567477E+02 -0.95578641314E+02  0.11050696671E+03  0.47000000000E+01 0.  1.
         13    1    6    6    0    0  0.11639264431E+02  0.64438004752E+01 -0.90886189724E+02  0.91854746875E+02  0.00000000000E+00 0. -1.
        -14    1    6    6    0    0  0.78952126772E+01  0.83095875160E+02 -0.65780088321E+02  0.10627454480E+03  0.00000000000E+00 0.  1.
</event>
<event>
12    1  0.1348628E-002  0.2357229E+03  0.7818608E-02  0.1122675E+00
          1   -1    0    0  502    0  0.00000000000E+00  0.00000000000E+00  0.35473749752E+03  0.35473749752E+03  0.00000000000E+00 0. -1.
         -1   -1    0    0    0  501 -0.00000000000E+00 -0.00000000000E+00 -0.15672415249E+03  0.15672415249E+03  0.00000000000E+00 0.  1.
          6    2    1    2  502    0  0.78930511532E+02 -0.14057721334E+03  0.92686332253E+02  0.25237998298E+03  0.17062508919E+03 0.  0.
         24    2    3    3    0    0  0.69559565898E+01 -0.13955572801E+03  0.75116539722E+02  0.17813600948E+03  0.81029357528E+02 0.  0.
         -6    2    1    2    0  501 -0.78930511532E+02  0.14057721334E+03  0.10532701278E+03  0.25908166703E+03  0.17331345017E+03 0.  0.
        -24    2    5    5    0    0 -0.68414770640E+02  0.13786521916E+03  0.13981040135E+03  0.22262443447E+03  0.79544270708E+02 0.  0.
          5    1    3    3  502    0  0.71974554942E+02 -0.10214853336E+01  0.17569792530E+02  0.74243973500E+02  0.47000000000E+01 0. -1.
        -11    1    4    4    0    0  0.22833170455E+02 -0.85623187181E+02  0.56864238660E+01  0.88797631007E+02  0.00000000000E+00 0.  1.
         12    1    4    4    0    0 -0.15877213865E+02 -0.53932540825E+02  0.69430115856E+02  0.89338378471E+02  0.00000000000E+00 0. -1.
         -5    1    5    5    0  501 -0.10515740892E+02  0.27119941811E+01 -0.34483388568E+02  0.36457232562E+02  0.47000000000E+01 0.  1.
         13    1    6    6    0    0 -0.39131926811E+02  0.29732688621E+02  0.84343880886E+02  0.97617778665E+02  0.00000000000E+00 0. -1.
        -14    1    6    6    0    0 -0.29282843829E+02  0.10813253054E+03  0.55466520460E+02  0.12500665580E+03  0.00000000000E+00 0.  1.
</event>
<event>
12    1  0.1348628E-002  0.2228294E+03  0.7818608E-02  0.1131791E+00
          2   -1    0    0  502    0  0.00000000000E+00  0.00000000000E+00  0.15163702107E+04  0.15163702107E+04  0.00000000000E+00 0. -1.
         -2   -1    0    0    0  501 -0.00000000000E+00 -0.00000000000E+00 -0.32960730013E+02  0.32960730013E+02  0.00000000000E+00 0.  1.
          6    2    1    2  502    0 -0.13950130078E+03  0.29217274556E+02  0.67669047856E+03  0.71221444541E+03  0.17036769182E+03 0.  0.
         24    2    3    3    0    0 -0.97165423420E+02 -0.27549597760E+02  0.26336142024E+03  0.29283656716E+03  0.78701445686E+02 0.  0.
         -6    2    1    2    0  501  0.13950130078E+03 -0.29217274556E+02  0.80671900216E+03  0.83711649535E+03  0.17220399611E+03 0.  0.
        -24    2    5    5    0    0  0.71739423857E+02 -0.54550455530E+02  0.68390216364E+03  0.69449984889E+03  0.80533058668E+02 0.  0.
          5    1    3    3  502    0 -0.42335877359E+02  0.56766872316E+02  0.41332905832E+03  0.41937787824E+03  0.47000000000E+01 0. -1.
        -13    1    4    4    0    0 -0.71361443074E+01 -0.29239066148E+02  0.29097382963E+02  0.41862933964E+02  0.00000000000E+00 0.  1.
         14    1    4    4    0    0 -0.90029279113E+02  0.16894683881E+01  0.23426403727E+03  0.25097363320E+03  0.00000000000E+00 0. -1.
         -5    1    5    5    0  501  0.67761876922E+02  0.25333180974E+02  0.12281683852E+03  0.14261664646E+03  0.47000000000E+01 0.  1.
         11    1    6    6    0    0  0.17261030531E+02  0.21308904699E+02  0.14737561417E+03  0.14990525090E+03  0.00000000000E+00 0. -1.
        -12    1    6    6    0    0  0.54478393327E+02 -0.75859360229E+02  0.53652654947E+03  0.54459459799E+03  0.00000000000E+00 0.  1.
</event>
<event>
12    1  0.1348628E-002  0.1729839E+03  0.7818608E-02  0.1174771E+00
          2   -1    0    0  502    0  0.00000000000E+00  0.00000000000E+00  0.37734864267E+03  0.37734864267E+03  0.00000000000E+00 0.  1.
         -2   -1    0    0    0  501 -0.00000000000E+00 -0.00000000000E+00 -0.95045644330E+02  0.95045644330E+02  0.00000000000E+00 0. -1.
          6    2    1    2  502    0 -0.51980105846E+02  0.19162969394E+02  0.23389836307E+03  0.28819560372E+03  0.15899405951E+03 0.  0.
         24    2    3    3    0    0 -0.20301005475E+02  0.58736029827E+02  0.20708104616E+03  0.23065560895E+03  0.80357938242E+02 0.  0.
         -6    2    1    2    0  501  0.51980105846E+02 -0.19162969394E+02  0.48404635269E+02  0.18419868328E+03  0.16886975871E+03 0.  0.
        -24    2    5    5    0    0  0.92718240870E+02  0.17183154539E+02  0.35816441363E+02  0.12797423134E+03  0.78756926204E+02 0.  0.
          5    1    3    3  502    0 -0.31679100372E+02 -0.39573060433E+02  0.26817316918E+02  0.57539994778E+02  0.47000000000E+01 0. -1.
        -11    1    4    4    0    0 -0.98134865300E+01 -0.18629441352E+01  0.13721360925E+03  0.13757670458E+03  0.00000000000E+00 0.  1.
         12    1    4    4    0    0 -0.10487518945E+02  0.60598973962E+02  0.69867436904E+02  0.93078904369E+02  0.00000000000E+00 0. -1.
         -5    1    5    5    0  501 -0.40738135024E+02 -0.36346123932E+02  0.12588193906E+02  0.56224451940E+02  0.47000000000E+01 0.  1.
         11    1    6    6    0    0  0.54622503331E+02  0.41645573278E+02  0.44544718395E+02  0.81866987123E+02  0.00000000000E+00 0. -1.
        -12    1    6    6    0    0  0.38095737539E+02 -0.24462418740E+02 -0.87282770316E+01  0.46107244216E+02  0.00000000000E+00 0.  1.
</event>
<event>
12    1  0.1348628E-002  0.1846130E+03  0.7818608E-02  0.1163412E+00
         -2   -1    0    0    0  501 -0.00000000000E+00  0.00000000000E+00  0.11838552457E+02  0.11838552457E+02  0.00000000000E+00 0.  1.
          2   -1    0    0  502    0  0.00000000000E+00 -0.00000000000E+00 -0.29010817205E+04  0.29010817205E+04  0.00000000000E+00 0. -1.
          6    2    1    2  502    0 -0.69323890037E+02  0.70120235178E+01 -0.15740307547E+04  0.15848509796E+04  0.17124497233E+03 0.  0.
         24    2    3    3    0    0  0.23130940993E+02  0.12822920616E+02 -0.90856519616E+03  0.91295205720E+03  0.85388964981E+02 0.  0.
         -6    2    1    2    0  501  0.69323890037E+02 -0.70120235178E+01 -0.13152124133E+04  0.13280692933E+04  0.17067333002E+03 0.  0.
        -24    2    5    5    0    0  0.87679714061E+01  0.33678945783E+02 -0.36902755749E+03  0.37906421135E+03  0.79354832400E+02 0.  0.
          5    1    3    3  502    0 -0.92454831030E+02 -0.58108970985E+01 -0.66546555859E+03  0.67189892244E+03  0.47000000000E+01 0. -1.
        -13    1    4    4    0    0 -0.12313415544E+02  0.41402310703E+02 -0.38692930105E+03  0.38933283389E+03  0.00000000000E+00 0.  1.
         14    1    4    4    0    0  0.35444356537E+02 -0.28579390087E+02 -0.52163589511E+03  0.52361922330E+03  0.00000000000E+00 0. -1.
         -5    1    5    5    0  501  0.60555918631E+02 -0.40690969300E+02 -0.94618485576E+03  0.94900508194E+03  0.47000000000E+01 0.  1.
         11    1    6    6    0    0  0.10474409089E+02  0.35695171266E+02 -0.37269367534E+03  0.37454563692E+03  0.00000000000E+00 0. -1.
        -12    1    6    6    0    0 -0.17064376829E+01 -0.20162254838E+01  0.36661178494E+01  0.45185744270E+01  0.00000000000E+00 0.  1.
</event>
<event>
12    1  0.1348628E-002  0.1804318E+03  0.7818608E-02  0.1167386E+00
          1   -1    0    0  502    0  0.00000000000E+00  0.00000000000E+00  0.96046335400E+03  0.96046335400E+03  0.00000000000E+00 0. -1.
         -1   -1    0    0    0  501 -0.00000000000E+00 -0.00000000000E+00 -0.40867940020E+02  0.40867940020E+02  0.00000000000E+00 0.  1.
          6    2    1    2  502    0  0.13464756815E+02  0.63502473681E+02  0.65951526749E+03  0.68290666781E+03  0.16488561203E+03 0.  0.
         24    2    3    3    0    0  0.65383102298E+02  0.77311527263E+02  0.48090530859E+03  0.49633278975E+03  0.69457181317E+02 0.  0.
         -6    2    1    2    0  501 -0.13464756815E+02 -0.63502473681E+02  0.26008014649E+03  0.31842462620E+03  0.17186825226E+03 0.  0.
        -24    2    5    5    0    0 -0.58899989248E+02 -0.59308426537E+02  0.24430547029E+03  0.26991812368E+03  0.78637983732E+02 0.  0.
          5    1    3    3  502    0 -0.51918345483E+02 -0.13809053582E+02  0.17860995890E+03  0.18657387807E+03  0.47000000000E+01 0. -1.
        -13    1    4    4    0    0  0.61371672413E+02  0.43612508352E+02  0.20575243749E+03  0.21909495337E+03  0.00000000000E+00 0.  1.
         14    1    4    4    0    0  0.40114298854E+01  0.33699018911E+02  0.27515287110E+03  0.27723783638E+03  0.00000000000E+00 0. -1.
         -5    1    5    5    0  501  0.45435232433E+02 -0.41940471444E+01  0.15774676196E+02  0.48506502521E+02  0.47000000000E+01 0.  1.
         13    1    6    6    0    0  0.85864630152E+01  0.12686724423E+02  0.44702137855E+02  0.47254221531E+02  0.00000000000E+00 0. -1.
        -14    1    6    6    0    0 -0.67486452263E+02 -0.71995150960E+02  0.19960333244E+03  0.22266390215E+03  0.00000000000E+00 0.  1.
</event>
<event>
12    1  0.1348628E-002  0.1732716E+03  0.7818608E-02  0.1174478E+00
         -2   -1    0    0    0  501 -0.00000000000E+00  0.00000000000E+00  0.25200218204E+02  0.25200218204E+02  0.00000000000E+00 0. -1.
          2   -1    0    0  502    0  0.00000000000E+00 -0.00000000000E+00 -0.18053044163E+04  0.18053044163E+04  0.00000000000E+00 0.  1.
          6    2    1    2  502    0  0.20071863916E+02  0.32486617305E+01 -0.35579665559E+03  0.39567756978E+03  0.17191871791E+03 0.  0.
         24    2    3    3    0    0 -0.30127525103E+02 -0.38843927576E+02 -0.14107743201E+03  0.17113759625E+03  0.83478838943E+02 0.  0.
         -6    2    1    2    0  501 -0.20071863916E+02 -0.32486617305E+01 -0.14243075425E+04  0.14348270647E+04  0.17223035887E+03 0.  0.
        -24    2    5    5    0    0  0.49801315129E+02  0.67650847657E+01 -0.10333443862E+04  0.10375150767E+04  0.78172734769E+02 0.  0.
          5    1    3    3  502    0  0.50199389019E+02  0.42092589306E+02 -0.21471922359E+03  0.22453997352E+03  0.47000000000E+01 0. -1.
        -11    1    4    4    0    0 -0.44354223354E+02  0.80019522336E+01 -0.88372138361E+02  0.99201629056E+02  0.00000000000E+00 0.  1.
         12    1    4    4    0    0  0.14226698251E+02 -0.46845879809E+02 -0.52705293645E+02  0.71935967196E+02  0.00000000000E+00 0. -1.
         -5    1    5    5    0  501 -0.69873179045E+02 -0.10013746496E+02 -0.39096315625E+03  0.39731198800E+03  0.47000000000E+01 0.  1.
         13    1    6    6    0    0 -0.62059889365E+01  0.58391375076E+01 -0.12459872539E+02  0.15094974303E+02  0.00000000000E+00 0. -1.
        -14    1    6    6    0    0  0.56007304066E+02  0.92594725812E+00 -0.10208845137E+04  0.10224201024E+04  0.00000000000E+00 0.  1.
</event>
<event>
12    1  0.1348628E-002  0.1972128E+03  0.7818608E-02  0.1152112E+00
          1   -1    0    0  502    0  0.00000000000E+00  0.00000000000E+00  0.24902921579E+03  0.24902921579E+03  0.00000000000E+00 0.  1.
         -1   -1    0    0    0  501 -0.00000000000E+00 -0.00000000000E+00 -0.27868255221E+03  0.27868255221E+03  0.00000000000E+00 0. -1.
          6    2    1    2  502    0  0.93902964488E+02  0.12598675153E+02 -0.18978853390E+03  0.27410612691E+03  0.17360296038E+03 0.  0.
         24    2    3    3    0    0  0.44465961196E+02 -0.48650743170E+02 -0.51974030233E+02  0.11532818146E+03  0.79089652317E+02 0.  0.
         -6    2    1    2    0  501 -0.93902964488E+02 -0.12598675153E+02  0.16013519747E+03  0.25360564109E+03  0.17232540837E+03 0.  0.
        -24    2    5    5    0    0 -0.12412455246E+03  0.22573268302E+02  0.12017729376E+03  0.19221236740E+03  0.81157595331E+02 0.  0.
          5    1    3    3  502    0  0.49437003292E+02  0.61249418323E+02 -0.13781450367E+03  0.15877794545E+03  0.47000000000E+01 0. -1.
        -13    1    4    4    0    0 -0.61037278324E+01 -0.32718598966E+02  0.90470051231E+01  0.34490730834E+02  0.00000000000E+00 0.  1.
         14    1    4    4    0    0  0.50569689028E+02 -0.15932144204E+02 -0.61021035356E+02  0.80837450623E+02  0.00000000000E+00 0. -1.
         -5    1    5    5    0  501  0.30221587972E+02 -0.35171943455E+02  0.39957903714E+02  0.61393273697E+02  0.47000000000E+01 0.  1.
         13    1    6    6    0    0 -0.10094918640E+03  0.24790025564E+02  0.13042031869E+03  0.16677752586E+03  0.00000000000E+00 0. -1.
        -14    1    6    6    0    0 -0.23175366055E+02 -0.22167572619E+01 -0.10243024930E+02  0.25434841542E+02  0.00000000000E+00 0.  1.
</event>
<event>
12    1  0.1348628E-002  0.1758313E+03  0.7818608E-02  0.1171900E+00
         -1   -1    0    0    0  501 -0.00000000000E+00  0.00000000000E+00  0.65418713530E+02  0.65418713530E+02  0.00000000000E+00 0.  1.
          1   -1    0    0  502    0  0.00000000000E+00 -0.00000000000E+00 -0.51562100866E+03  0.51562100866E+03  0.00000000000E+00 0. -1.
          6    2    1    2  502    0  0.34113179898E+01 -0.28654931509E+02 -0.31140308460E+03  0.35865313617E+03  0.17557747233E+03 0.  0.
         24    2    3    3    0    0  0.85348823666E+01 -0.60362746740E+02 -0.90869138858E+02  0.13574295765E+03  0.80327110894E+02 0.  0.
         -6    2    1    2    0  501 -0.34113179898E+01  0.28654931509E+02 -0.13879921052E+03  0.22238658602E+03  0.17134126943E+03 0.  0.
        -24    2    5    5    0    0 -0.50587230956E+02 -0.15890911462E+02 -0.12301865997E+03  0.15544620459E+03  0.78856469729E+02 0.  0.
          5    1    3    3  502    0 -0.51235643768E+01  0.31707815231E+02 -0.22053394575E+03  0.22291017851E+03  0.47000000000E+01 0. -1.
        -13    1    4    4    0    0 -0.34326581324E+02 -0.23974536712E+02 -0.54715797230E+02  0.68897830608E+02  0.00000000000E+00 0.  1.
         14    1    4    4    0    0  0.42861463691E+02 -0.36388210028E+02 -0.36153341627E+02  0.66845127045E+02  0.00000000000E+00 0. -1.
         -5    1    5    5    0  501  0.47175912966E+02  0.44545842971E+02 -0.15780550554E+02  0.66940381430E+02  0.47000000000E+01 0.  1.
         13    1    6    6    0    0 -0.14311969409E+02 -0.45252929932E+02 -0.72656382553E+02  0.86784849262E+02  0.00000000000E+00 0. -1.
        -14    1    6    6    0    0 -0.36275261547E+02  0.29362018470E+02 -0.50362277415E+02  0.68661355328E+02  0.00000000000E+00 0.  1.
</event>
<event>
12    1  0.1348628E-002  0.2677086E+03  0.7818608E-02  0.1102598E+00
          2   -1    0    0  502    0  0.00000000000E+00  0.00000000000E+00  0.52222168375E+03  0.52222168375E+03  0.00000000000E+00 0.  1.
         -2   -1    0    0    0  501 -0.00000000000E+00 -0.00000000000E+00 -0.14277516011E+03  0.14277516011E+03  0.00000000000E+00 0. -1.
          6    2    1    2  502    0  0.15680454709E+02  0.20479020399E+03  0.25515252672E+03  0.36976253005E+03  0.17157101278E+03 0.  0.
         24    2    3    3    0    0 -0.24840806971E+02  0.21033109565E+03  0.22105620671E+03  0.31630859505E+03  0.79555297065E+02 0.  0.
         -6    2    1    2    0  501 -0.15680454709E+02 -0.20479020399E+03  0.12429399691E+03  0.29523431381E+03  0.17184120016E+03 0.  0.
        -24    2    5    5    0    0  0.30064465536E+02 -0.11086294989E+03  0.13039173025E+03  0.19047650197E+03  0.78005312240E+02 0.  0.
          5    1    3    3  502    0  0.40521261680E+02 -0.55408916599E+01  0.34096320017E+02  0.53453935002E+02  0.47000000000E+01 0. -1.
        -13    1    4    4    0    0  0.13863690476E+02  0.16003668313E+03  0.17716040909E+03  0.23914379024E+03  0.00000000000E+00 0.  1.
         14    1    4    4    0    0 -0.38704497447E+02  0.50294412515E+02  0.43895797619E+02  0.77164804811E+02  0.00000000000E+00 0. -1.
         -5    1    5    5    0  501 -0.45744920245E+02 -0.93927254092E+02 -0.60977333362E+01  0.10475781184E+03  0.47000000000E+01 0.  1.
         11    1    6    6    0    0 -0.91082766664E+01 -0.63890812791E+02  0.10707455989E+03  0.12501983058E+03  0.00000000000E+00 0. -1.
        -12    1    6    6    0    0  0.39172742202E+02 -0.46972137102E+02  0.23317170361E+02  0.65456671388E+02  0.00000000000E+00 0.  1.
</event>
<event>
12    1  0.1348628E-002  0.1747070E+03  0.7818608E-02  0.1173026E+00
         -2   -1    0    0    0  501 -0.00000000000E+00  0.00000000000E+00  0.98567309833E+02  0.98567309833E+02  0.00000000000E+00 0. -1.
          2   -1    0    0  502    0  0.00000000000E+00 -0.00000000000E+00 -0.35363294738E+03  0.35363294738E+03  0.00000000000E+00 0.  1.
          6    2    1    2  502    0 -0.19174011652E+02 -0.24686272177E+02 -0.47718463591E+02  0.18097513564E+03  0.17174950711E+03 0.  0.
         24    2    3    3    0    0 -0.13334780880E+02  0.26407477602E+02  0.28157266426E+02  0.89193414754E+02  0.79293520091E+02 0.  0.
         -6    2    1    2    0  501  0.19174011652E+02  0.24686272177E+02 -0.20734717395E+03  0.27122512158E+03  0.17202662954E+03 0.  0.
        -24    2    5    5    0    0  0.24300246998E+02 -0.33363033072E+02 -0.18976560523E+03  0.21017430923E+03  0.80365797171E+02 0.  0.
          5    1    3    3  502    0 -0.58392307721E+01 -0.51093749779E+02 -0.75875730017E+02  0.91781720882E+02  0.47000000000E+01 0. -1.
        -11    1    4    4    0    0  0.11813053758E+02 -0.24858204749E+02  0.97505605626E+01  0.29198493347E+02  0.00000000000E+00 0.  1.
         12    1    4    4    0    0 -0.25147834638E+02  0.51265682351E+02  0.18406705863E+02  0.59994921407E+02  0.00000000000E+00 0. -1.
         -5    1    5    5    0  501 -0.51262353462E+01  0.58049305248E+02 -0.17581568727E+02  0.61050812341E+02  0.47000000000E+01 0.  1.
         13    1    6    6    0    0  0.37386255837E+02  0.11768700448E+02 -0.55669798154E+02  0.68083484504E+02  0.00000000000E+00 0. -1.
        -14    1    6    6    0    0 -0.13086008839E+02 -0.45131733520E+02 -0.13409580707E+03  0.14209082473E+03  0.00000000000E+00 0.  1.
</event>
<event>
12    1  0.1348628E-002  0.1754067E+03  0.7818608E-02  0.1172324E+00
          1   -1    0    0  502    0  0.00000000000E+00  0.00000000000E+00  0.75341900250E+03  0.75341900250E+03  0.00000000000E+00 0. -1.
         -1   -1    0    0    0  501 -0.00000000000E+00 -0.00000000000E+00 -0.41409497083E+02  0.41409497083E+02  0.00000000000E+00 0.  1.
          6    2    1    2  502    0  0.14509452961E+02 -0.31072659538E+02  0.30911549636E+03  0.35537338121E+03  0.17193549833E+03 0.  0.
         24    2    3    3    0    0  0.64807636684E+02 -0.27031792719E+02  0.11869571908E+03  0.15832511943E+03  0.77765172955E+02 0.  0.
         -6    2    1    2    0  501 -0.14509452961E+02  0.31072659538E+02  0.40289400906E+03  0.43945511838E+03  0.17210805947E+03 0.  0.
        -24    2    5    5    0    0  0.47495012020E+02  0.38935897099E+02  0.16537158162E+03  0.19380215642E+03  0.80247963056E+02 0.  0.
          5    1    3    3  502    0 -0.50298183722E+02 -0.40408668183E+01  0.19041977727E+03  0.19704826177E+03  0.47000000000E+01 0. -1.
        -13    1    4    4    0    0 -0.75097171870E+00  0.18813621834E+02  0.53175237937E+01  0.19565080739E+02  0.00000000000E+00 0.  1.
         14    1    4    4    0    0  0.65558608403E+02 -0.45845414554E+02  0.11337819529E+03  0.13876003869E+03  0.00000000000E+00 0. -1.
         -5    1    5    5    0  501 -0.62004464982E+02 -0.78632375618E+01  0.23752242744E+03  0.24565296196E+03  0.47000000000E+01 0.  1.
         13    1    6    6    0    0  0.50181538211E+01  0.53965505460E+01  0.12757786959E+03  0.12779052170E+03  0.00000000000E+00 0. -1.
        -14    1    6    6    0    0  0.42476858199E+02  0.33539346553E+02  0.37793712028E+02  0.66011634721E+02  0.00000000000E+00 0.  1.
</event>
<event>
12    1  0.1348628E-002  0.1767994E+03  0.7818608E-02  0.1170937E+00
         -2   -1    0    0    0  501 -0.00000000000E+00  0.00000000000E+00  0.40478828895E+03  0.40478828895E+03  0.00000000000E+00 0.  1.
          2   -1    0    0  502    0  0.00000000000E+00 -0.00000000000E+00 -0.78181701180E+02  0.78181701180E+02  0.00000000000E+00 0. -1.
          6    2    1    2  502    0 -0.18577504396E+02 -0.32283749867E+02  0.13715466264E+03  0.22429140286E+03  0.17351618869E+03 0.  0.
         24    2    3    3    0    0 -0.65802469895E+02 -0.25987962589E+01  0.14218136253E+03  0.16808863114E+03  0.60840194628E+02 0.  0.
         -6    2    1    2    0  501  0.18577504396E+02  0.32283749867E+02  0.18945192513E+03  0.25867858727E+03  0.17214881760E+03 0.  0.
        -24    2    5    5    0    0  0.72326916215E+02  0.27007297032E+02  0.82809599562E+02  0.13904783943E+03  0.80723571331E+02 0.  0.
          5    1    3    3  502    0  0.47224965498E+02 -0.29684953608E+02 -0.50266998918E+01  0.56202771718E+02  0.47000000000E+01 0. -1.
        -11    1    4    4    0    0  0.37164062738E+01 -0.17559664169E+02  0.37015958503E+02  0.41137995396E+02  0.00000000000E+00 0.  1.
         12    1    4    4    0    0 -0.69518876168E+02  0.14960867910E+02  0.10516540403E+03  0.12695063575E+03  0.00000000000E+00 0. -1.
         -5    1    5    5    0  501 -0.53749411818E+02  0.52764528344E+01  0.10664232557E+03  0.11963074784E+03  0.47000000000E+01 0.  1.
         11    1    6    6    0    0  0.53091942165E+02  0.21096465309E+02  0.35128442373E+01  0.57237708252E+02  0.00000000000E+00 0. -1.
        -12    1    6    6    0    0  0.19234974050E+02  0.59108317238E+01  0.79296755324E+02  0.81810131178E+02  0.00000000000E+00 0.  1.
</event>
<event>
12    1  0.1348628E-002  0.2251808E+03  0.7818608E-02  0.1130078E+00
         -2   -1    0    0    0  501 -0.00000000000E+00  0.00000000000E+00  0.35844322539E+02  0.35844322539E+02  0.00000000000E+00 0. -1.
          2   -1    0    0  502    0  0.00000000000E+00 -0.00000000000E+00 -0.15381710548E+04  0.15381710548E+04  0.00000000000E+00 0.  1.
          6    2    1    2  502    0  0.11178542087E+03 -0.91716175713E+02 -0.52809562285E+03  0.57409716481E+03  0.17261150180E+03 0.  0.
         24    2    3    3    0    0  0.17357535756E+02 -0.33264916415E+02 -0.10828290866E+03  0.13981847525E+03  0.80101054941E+02 0.  0.
         -6    2    1    2    0  501 -0.11178542087E+03  0.91716175713E+02 -0.97423110942E+03  0.99991821255E+03  0.17263354255E+03 0.  0.
        -24    2    5    5    0    0 -0.11802198346E+03  0.12388421280E+03 -0.75956502754E+03  0.78271486535E+03  0.80168838191E+02 0.  0.
          5    1    3    3  502    0  0.94427885116E+02 -0.58451259298E+02 -0.41981271419E+03  0.43427868955E+03  0.47000000000E+01 0. -1.
        -11    1    4    4    0    0  0.21664231246E+02  0.64163725912E+01 -0.95154938958E+02  0.97800670554E+02  0.00000000000E+00 0.  1.
         12    1    4    4    0    0 -0.43066954901E+01 -0.39681289006E+02 -0.13127969701E+02  0.42017804699E+02  0.00000000000E+00 0. -1.
         -5    1    5    5    0  501  0.62365625913E+01 -0.32168037090E+02 -0.21466608188E+03  0.21720334719E+03  0.47000000000E+01 0.  1.
         13    1    6    6    0    0 -0.96715963684E+02  0.44379795774E+02 -0.40894363261E+03  0.42256175709E+03  0.00000000000E+00 0. -1.
        -14    1    6    6    0    0 -0.21306019779E+02  0.79504417029E+02 -0.35062139493E+03  0.36015310826E+03  0.00000000000E+00 0.  1.
</event>
<event>
12    1  0.1348628E-002  0.1905284E+03  0.7818608E-02  0.1157986E+00
         -1   -1    0    0    0  501 -0.00000000000E+00  0.00000000000E+00  0.80887836614E+03  0.80887836614E+03  0.00000000000E+00 0.  1.
          1   -1    0    0  502    0  0.00000000000E+00 -0.00000000000E+00 -0.52968612977E+02  0.52968612977E+02  0.00000000000E+00 0. -1.
          6    2    1    2  502    0  0.82903093233E+02 -0.73415901071E+01  0.54481810896E+03  0.57687186560E+03  0.17037475066E+03 0.  0.
         24    2    3    3    0    0  0.34530851062E+02  0.43431047315E+02  0.43984300438E+03  0.45054056661E+03  0.80288841773E+02 0.  0.
         -6    2    1    2    0  501 -0.82903093233E+02  0.73415901071E+01  0.21109164421E+03  0.28497511352E+03  0.17240739908E+03 0.  0.
        -24    2    5    5    0    0 -0.61346396485E+02  0.45575377397E+02  0.21386737097E+03  0.24074493916E+03  0.79864748012E+02 0.  0.
          5    1    3    3  502    0  0.48372242172E+02 -0.50772637422E+02  0.10497510457E+03  0.12633129899E+03  0.47000000000E+01 0. -1.
        -11    1    4    4    0    0  0.34315744390E+01  0.44835783587E+02  0.38385361669E+03  0.38647848871E+03  0.00000000000E+00 0.  1.
         12    1    4    4    0    0  0.31099276623E+02 -0.14047362720E+01  0.55989387694E+02  0.64062077899E+02  0.00000000000E+00 0. -1.
         -5    1    5    5    0  501 -0.21556696748E+02 -0.38233787290E+02 -0.27757267645E+01  0.44230174364E+02  0.47000000000E+01 0.  1.
         13    1    6    6    0    0  0.45891749078E+01  0.25349851649E+02  0.14015814758E+02  0.29327778100E+02  0.00000000000E+00 0. -1.
        -14    1    6    6    0    0 -0.65935571393E+02  0.20225525748E+02  0.19985155622E+03  0.21141716106E+03  0.00000000000E+00 0.  1.
</event>
<event>
12    1  0.1348628E-002  0.1862950E+03  0.7818608E-02  0.1161846E+00
          1   -1    0    0  502    0  0.00000000000E+00  0.00000000000E+00  0.26274712843E+03  0.26274712843E+03  0.00000000000E+00 0.  1.
         -1   -1    0    0    0  501 -0.00000000000E+00 -0.00000000000E+00 -0.14062600689E+03  0.14062600689E+03  0.00000000000E+00 0. -1.
          6    2    1    2  502    0 -0.38966766511E+02 -0.59748312374E+02  0.11056707508E+02  0.18558352432E+03  0.17096995056E+03 0.  0.
         24    2    3    3    0    0 -0.60520656290E+02 -0.82020385601E+02  0.46885528091E+02  0.13797669924E+03  0.80307056328E+02 0.  0.
         -6    2    1    2    0  501  0.38966766511E+02  0.59748312374E+02  0.11106441403E+03  0.21778961099E+03  0.17323031163E+03 0.  0.
        -24    2    5    5    0    0  0.17856857793E+02 -0.10746961375E+02 -0.37699630528E+01  0.81318969357E+02  0.78512404159E+02 0.  0.
          5    1    3    3  502    0  0.21553889779E+02  0.22272073227E+02 -0.35828820583E+02  0.47606825087E+02  0.47000000000E+01 0. -1.
        -11    1    4    4    0    0  0.16394920849E+02 -0.32694028550E+02  0.24114451524E+02  0.43808671570E+02  0.00000000000E+00 0.  1.
         12    1    4    4    0    0 -0.76915577139E+02 -0.49326357051E+02  0.22771076567E+02  0.94168027667E+02  0.00000000000E+00 0. -1.
         -5    1    5    5    0  501  0.21109908717E+02  0.70495273749E+02  0.11483437709E+03  0.13647064163E+03  0.47000000000E+01 0.  1.
         11    1    6    6    0    0  0.13024158088E+02  0.28649146156E+02 -0.21224768467E+02  0.37959097274E+02  0.00000000000E+00 0. -1.
        -12    1    6    6    0    0  0.48326997058E+01 -0.39396107531E+02  0.17454805415E+02  0.43359872084E+02  0.00000000000E+00 0.  1.
</event>
<event>
12    1  0.1348628E-002  0.3079870E+03  0.7818608E-02  0.1081315E+00
         -2   -1    0    0    0  501 -0.00000000000E+00  0.00000000000E+00  0.44727232241E+02  0.44727232241E+02  0.00000000000E+00 0. -1.
          2   -1    0    0  502    0  0.00000000000E+00 -0.00000000000E+00 -0.31111770185E+04  0.31111770185E+04  0.00000000000E+00 0.  1.
          6    2    1    2  502    0 -0.66803072512E+02 -0.24538739306E+03 -0.24182354051E+04  0.24375741887E+04  0.17096148067E+03 0.  0.
         24    2    3    3    0    0  0.25148766811E+01 -0.21725306630E+03 -0.17932113329E+04  0.18080714491E+04  0.79437151340E+02 0.  0.
         -6    2    1    2    0  501  0.66803072512E+02  0.24538739306E+03 -0.64821438115E+03  0.71833006201E+03  0.17646124473E+03 0.  0.
        -24    2    5    5    0    0  0.56944518830E+02  0.22248689021E+03 -0.39283875238E+03  0.46169719996E+03  0.78095611552E+02 0.  0.
          5    1    3    3  502    0 -0.69317949193E+02 -0.28134326757E+02 -0.62502407214E+03  0.62950273961E+03  0.47000000000E+01 0. -1.
        -13    1    4    4    0    0 -0.24211985589E+02 -0.12860908108E+03 -0.12706511572E+04  0.12773726470E+04  0.00000000000E+00 0.  1.
         14    1    4    4    0    0  0.26726862270E+02 -0.88643985224E+02 -0.52256017570E+03  0.53069880206E+03  0.00000000000E+00 0. -1.
         -5    1    5    5    0  501  0.98585536818E+01  0.22900502844E+02 -0.25537562878E+03  0.25663286205E+03  0.47000000000E+01 0.  1.
         13    1    6    6    0    0  0.22266967560E+02  0.19703834682E+03 -0.30338832702E+03  0.36244227807E+03  0.00000000000E+00 0. -1.
        -14    1    6    6    0    0  0.34677551270E+02  0.25448543389E+02 -0.89450425362E+02  0.99254921893E+02  0.00000000000E+00 0.  1.
</event>
<event>
12    1  0.1348628E-002  0.1734943E+03  0.7818608E-02  0.1174252E+00
          2   -1    0    0  502    0  0.00000000000E+00  0.00000000000E+00  0.58568438511E+03  0.58568438511E+03  0.00000000000E+00 0. -1.
         -2   -1    0    0    0  501 -0.00000000000E+00 -0.00000000000E+00 -0.56127843131E+02  0.56127843131E+02  0.00000000000E+00 0.  1.
          6    2    1    2  502    0 -0.21643900930E+02 -0.11506902259E+02  0.35768236047E+03  0.39744590841E+03  0.17153924297E+03 0.  0.
         24    2    3    3    0    0  0.52763630651E+02  0.12349739749E+02  0.20418394617E+03  0.22513957274E+03  0.77847456900E+02 0.  0.
         -6    2    1    2    0  501  0.21643900930E+02  0.11506902259E+02  0.17187418151E+03  0.24436631983E+03  0.17196888308E+03 0.  0.
        -24    2    5    5    0    0  0.91703266716E+01  0.63661741262E+01  0.19846405253E+03  0.21418141663E+03  0.79756354095E+02 0.  0.
          5    1    3    3  502    0 -0.74407531581E+02 -0.23856642008E+02  0.15349841429E+03  0.17230633568E+03  0.47000000000E+01 0. -1.
        -11    1    4    4    0    0  0.22304828586E+02  0.31401425779E+01  0.45426996002E+01  0.22978293960E+02  0.00000000000E+00 0.  1.
         12    1    4    4    0    0  0.30458802065E+02  0.92095971714E+01  0.19964124657E+03  0.20216127878E+03  0.00000000000E+00 0. -1.
         -5    1    5    5    0  501  0.12473574258E+02  0.51407281329E+01 -0.26589871015E+02  0.30184903199E+02  0.47000000000E+01 0.  1.
         13    1    6    6    0    0  0.24138601199E+02 -0.29704055629E+02  0.68399300635E+02  0.78380273769E+02  0.00000000000E+00 0. -1.
        -14    1    6    6    0    0 -0.14968274527E+02  0.36070229755E+02  0.13006475189E+03  0.13580114286E+03  0.00000000000E+00 0.  1.
</event>
<event>
12    1  0.1348628E-002  0.1818876E+03  0.7818608E-02  0.1165989E+00
         -2   -1    0    0    0  501 -0.00000000000E+00  0.00000000000E+00  0.42651008920E+02  0.42651008920E+02  0.00000000000E+00 0. -1.
          2   -1    0    0  502    0  0.00000000000E+00 -0.00000000000E+00 -0.18997125163E+04  0.18997125163E+04  0.00000000000E+00 0.  1.
          6    2    1    2  502    0 -0.35717277554E+02 -0.48659932790E+02 -0.16749472795E+04  0.16847616597E+04  0.17125988421E+03 0.  0.
         24    2    3    3    0    0  0.16556875877E+02 -0.20499167536E+02 -0.14366956977E+04  0.14391776170E+04  0.80270414181E+02 0.  0.
         -6    2    1    2    0  501  0.35717277554E+02  0.48659932790E+02 -0.18211422785E+03  0.25760186548E+03  0.17190001786E+03 0.  0.
        -24    2    5    5    0    0 -0.66146166453E+01  0.68617477367E+02 -0.25908058693E+02  0.94467717816E+02  0.59167650372E+02 0.  0.
          5    1    3    3  502    0 -0.52274153431E+02 -0.28160765254E+02 -0.23825158182E+03  0.24558404276E+03  0.47000000000E+01 0. -1.
        -11    1    4    4    0    0 -0.32463076745E+02 -0.12588733954E+02 -0.60427092806E+03  0.60527322927E+03  0.00000000000E+00 0.  1.
         12    1    4    4    0    0  0.49019952622E+02 -0.79104335821E+01 -0.83242476965E+03  0.83390438771E+03  0.00000000000E+00 0. -1.
         -5    1    5    5    0  501  0.42331894199E+02 -0.19957544577E+02 -0.15620616915E+03  0.16313414766E+03  0.47000000000E+01 0.  1.
         13    1    6    6    0    0 -0.19902154171E+02  0.14523671765E+02 -0.29756982554E+02  0.38633027229E+02  0.00000000000E+00 0. -1.
        -14    1    6    6    0    0  0.13287537526E+02  0.54093805603E+02  0.38489238605E+01  0.55834690587E+02  0.00000000000E+00 0.  1.
</event>
<event>
12    1  0.1348628E-002  0.2134903E+03  0.7818608E-02  0.1138831E+00
         -2   -1    0    0    0  501 -0.00000000000E+00  0.00000000000E+00  0.16043913175E+02  0.16043913175E+02  0.00000000000E+00 0. -1.
          2   -1    0    0  502    0  0.00000000000E+00 -0.00000000000E+00 -0.29118768658E+04  0.29118768658E+04  0.00000000000E+00 0.  1.
          6    2    1    2  502    0 -0.41766272696E+02 -0.12087980110E+03 -0.16820376805E+04  0.16956376052E+04  0.17198773745E+03 0.  0.
         24    2    3    3    0    0  0.41486202635E+02 -0.66832990621E+02 -0.72270100213E+03  0.73116832899E+03  0.78247256751E+02 0.  0.
         -6    2    1    2    0  501  0.41766272696E+02  0.12087980110E+03 -0.12137952721E+04  0.12322831737E+04  0.16990147081E+03 0.  0.
        -24    2    5    5    0    0  0.27142477548E+02  0.10722098481E+03 -0.51418791049E+03  0.53237391598E+03  0.82460447746E+02 0.  0.
          5    1    3    3  502    0 -0.83252475331E+02 -0.54046810482E+02 -0.95933667835E+03  0.96446927623E+03  0.47000000000E+01 0. -1.
        -11    1    4    4    0    0 -0.10392041512E+02 -0.12008610974E+02 -0.37650418191E+03  0.37683895799E+03  0.00000000000E+00 0.  1.
         12    1    4    4    0    0  0.51878244147E+02 -0.54824379647E+02 -0.34619682023E+03  0.35432937100E+03  0.00000000000E+00 0. -1.
         -5    1    5    5    0  501  0.14623795148E+02  0.13658816293E+02 -0.69960736163E+03  0.69990925775E+03  0.47000000000E+01 0.  1.
         11    1    6    6    0    0 -0.88972639017E+01  0.84741219995E+02 -0.23494110116E+03  0.24991509896E+03  0.00000000000E+00 0. -1.
        -12    1    6    6    0    0  0.36039741450E+02  0.22479764814E+02 -0.27924680933E+03  0.28245881702E+03  0.00000000000E+00 0.  1.
</event>
<event>
12    1  0.1348628E-002  0.2036795E+03  0.7818608E-02  0.1146671E+00
          2   -1    0    0  502    0  0.00000000000E+00  0.00000000000E+00  0.17280949751E+03  0.17280949751E+03  0.00000000000E+00 0.  1.
         -2   -1    0    0    0  501 -0.00000000000E+00 -0.00000000000E+00 -0.24275949421E+03  0.24275949421E+03  0.00000000000E+00 0. -1.
          6    2    1    2  502    0  0.65890754390E+02  0.86248523915E+02 -0.56859092411E+02  0.21140331526E+03  0.17227305628E+03 0.  0.
         24    2    3    3    0    0 -0.29826466754E+02  0.49158019146E+02 -0.44032574772E+02  0.10784607735E+03  0.79911074289E+02 0.  0.
         -6    2    1    2    0  501 -0.65890754390E+02 -0.86248523915E+02 -0.13090904293E+02  0.20416567646E+03  0.17242926747E+03 0.  0.
        -24    2    5    5    0    0 -0.17173283469E+02  0.13465223204E+02 -0.38809764514E+02  0.90149128943E+02  0.78386438409E+02 0.  0.
          5    1    3    3  502    0  0.95717221144E+02  0.37090504769E+02 -0.12826517639E+02  0.10355723790E+03  0.47000000000E+01 0. -1.
        -13    1    4    4    0    0 -0.48593443793E+02  0.59603743287E+02 -0.32755806466E+02  0.83587510136E+02  0.00000000000E+00 0.  1.
         14    1    4    4    0    0  0.18766977039E+02 -0.10445724141E+02 -0.11276768306E+02  0.24258567218E+02  0.00000000000E+00 0. -1.
         -5    1    5    5    0  501 -0.48717470922E+02 -0.99713747119E+02  0.25718860221E+02  0.11401654752E+03  0.47000000000E+01 0.  1.
         11    1    6    6    0    0 -0.41818242488E+02 -0.12824236327E+02 -0.30040007897E+02  0.53062496329E+02  0.00000000000E+00 0. -1.
        -12    1    6    6    0    0  0.24644959020E+02  0.26289459531E+02 -0.87697566163E+01  0.37086632614E+02  0.00000000000E+00 0.  1.
</event>
<event>
12    1  0.1348628E-002  0.2207485E+03  0.7818608E-02  0.1133326E+00
         -2   -1    0    0    0  501 -0.00000000000E+00  0.00000000000E+00  0.11024309746E+03  0.11024309746E+03  0.00000000000E+00 0. -1.
          2   -1    0    0  502    0  0.00000000000E+00 -0.00000000000E+00 -0.48432882596E+03  0.48432882596E+03  0.00000000000E+00 0.  1.
          6    2    1    2  502    0 -0.11937972833E+02  0.13566006301E+03 -0.27549179358E+03  0.35350329403E+03  0.17470742019E+03 0.  0.
         24    2    3    3    0    0 -0.53073572077E+02  0.27446699329E+02 -0.17131469589E+03  0.19769178198E+03  0.78505988797E+02 0.  0.
         -6    2    1    2    0  501  0.11937972833E+02 -0.13566006301E+03 -0.98593934909E+02  0.24106862938E+03  0.17276328366E+03 0.  0.
        -24    2    5    5    0    0  0.27694778791E+02 -0.15509430163E+03 -0.40371468121E+02  0.17752406074E+03  0.71159634167E+02 0.  0.
          5    1    3    3  502    0  0.41135599244E+02  0.10821336368E+03 -0.10417709769E+03  0.15581151205E+03  0.47000000000E+01 0. -1.
        -13    1    4    4    0    0  0.71451835222E+01  0.36181607563E+02 -0.51920950325E+02  0.63686320792E+02  0.00000000000E+00 0.  1.
         14    1    4    4    0    0 -0.60218755600E+02 -0.87349082337E+01 -0.11939374557E+03  0.13400546119E+03  0.00000000000E+00 0. -1.
         -5    1    5    5    0  501 -0.15756805957E+02  0.19434238618E+02 -0.58222466788E+02  0.63544568639E+02  0.47000000000E+01 0.  1.
         13    1    6    6    0    0  0.87622356596E+01 -0.21708783317E+02  0.19143871645E+02  0.30241294093E+02  0.00000000000E+00 0. -1.
        -14    1    6    6    0    0  0.18932543131E+02 -0.13338551831E+03 -0.59515339767E+02  0.14728276665E+03  0.00000000000E+00 0.  1.
</event>
<event>
12    1  0.1348628E-002  0.1935210E+03  0.7818608E-02  0.1155323E+00
          1   -1    0    0  502    0  0.00000000000E+00  0.00000000000E+00  0.11225597165E+03  0.11225597165E+03  0.00000000000E+00 0. -1.
         -1   -1    0    0    0  501 -0.00000000000E+00 -0.00000000000E+00 -0.34689975177E+03  0.34689975177E+03  0.00000000000E+00 0.  1.
          6    2    1    2  502    0  0.76269506574E+02  0.46318106643E+02 -0.72406499515E+02  0.20663905084E+03  0.17173989497E+03 0.  0.
         24    2    3    3    0    0  0.84297384048E+02  0.18241614210E+02  0.10855977756E+02  0.11827918232E+03  0.80207900305E+02 0.  0.
         -6    2    1    2    0  501 -0.76269506574E+02 -0.46318106643E+02 -0.16223728060E+03  0.25251667258E+03  0.17170128153E+03 0.  0.
        -24    2    5    5    0    0 -0.90883262932E+02  0.12846395704E+02 -0.13512041227E+03  0.18564803448E+03  0.88220573173E+02 0.  0.
          5    1    3    3  502    0 -0.80278774739E+01  0.28076492433E+02 -0.83262477271E+02  0.88359868523E+02  0.47000000000E+01 0. -1.
        -11    1    4    4    0    0 -0.90530405857E+00 -0.19396782249E+00 -0.24274666763E+02  0.24292316592E+02  0.00000000000E+00 0.  1.
         12    1    4    4    0    0  0.85202688107E+02  0.18435582032E+02  0.35130644519E+02  0.93986865730E+02  0.00000000000E+00 0. -1.
         -5    1    5    5    0  501  0.14613756358E+02 -0.59164502347E+02 -0.27116868327E+02  0.66868638095E+02  0.47000000000E+01 0.  1.
         11    1    6    6    0    0 -0.86794061203E+00  0.13454093771E+02  0.86524663917E+01  0.16019710820E+02  0.00000000000E+00 0. -1.
        -12    1    6    6    0    0 -0.90015322320E+02 -0.60769806643E+00 -0.14377287867E+03  0.16962832366E+03  0.00000000000E+00 0.  1.
</event>
<event>
12    1  0.1348628E-002  0.1825142E+03  0.7818608E-02  0.1165392E+00
         -2   -1    0    0    0  501 -0.00000000000E+00  0.00000000000E+00  0.74199057288E+02  0.74199057288E+02  0.00000000000E+00 0.  1.
          2   -1    0    0  502    0  0.00000000000E+00 -0.00000000000E+00 -0.51916056625E+03  0.51916056625E+03  0.00000000000E+00 0. -1.
          6    2    1    2  502    0 -0.30470240038E+02  0.51126741505E+02 -0.33227516500E+03  0.37941960319E+03  0.17323415016E+03 0.  0.
         24    2    3    3    0    0 -0.31617951136E+02 -0.36715492187E+02 -0.16144730610E+03  0.18726908241E+03  0.81588935379E+02 0.  0.
         -6    2    1    2    0  501  0.30470240038E+02 -0.51126741505E+02 -0.11268634396E+03  0.21394002035E+03  0.17184219787E+03 0.  0.
        -24    2    5    5    0    0 -0.33747834451E+02 -0.83671286651E+01 -0.10410586680E+03  0.13617074512E+03  0.80594758842E+02 0.  0.
          5    1    3    3  502    0  0.11477110984E+01  0.87842233691E+02 -0.17082785890E+03  0.19215052078E+03  0.47000000000E+01 0. -1.
        -11    1    4    4    0    0 -0.24847007286E+02  0.98724837290E+01 -0.97893414170E+01  0.28472283214E+02  0.00000000000E+00 0.  1.
         12    1    4    4    0    0 -0.67709438500E+01 -0.46587975916E+02 -0.15165796469E+03  0.15879679919E+03  0.00000000000E+00 0. -1.
         -5    1    5    5    0  501  0.64218074489E+02 -0.42759612840E+02 -0.85804771579E+01  0.77769275228E+02  0.47000000000E+01 0.  1.
         13    1    6    6    0    0  0.30629913298E+01 -0.27723594656E+02 -0.86716581125E+02  0.91091959352E+02  0.00000000000E+00 0. -1.
        -14    1    6    6    0    0 -0.36810825781E+02  0.19356465991E+02 -0.17389285677E+02  0.45078785772E+02  0.00000000000E+00 0.  1.
</event>
<event>
12    1  0.1348628E-002  0.1781183E+03  0.7818608E-02  0.1169637E+00
         -2   -1    0    0    0  501 -0.00000000000E+00  0.00000000000E+00  0.20594178257E+02  0.20594178257E+02  0.00000000000E+00 0.  1.
          2   -1    0    0  502    0  0.00000000000E+00 -0.00000000000E+00 -0.17065159497E+04  0.17065159497E+04  0.00000000000E+00 0. -1.
          6    2    1    2  502    0  0.18300481303E+01 -0.45096888081E+02 -0.57311701726E+03  0.60012083129E+03  0.17217670655E+03 0.  0.
         24    2    3    3    0    0  0.45339234730E+02  0.78317940067E+01 -0.16939774473E+03  0.19060180155E+03  0.74272926626E+02 0.  0.
         -6    2    1    2    0  501 -0.18300481303E+01  0.45096888081E+02 -0.11128047542E+04  0.11269892967E+04  0.17243368433E+03 0.  0.
        -24    2    5    5    0    0  0.37500917345E+02  0.59804172460E+02 -0.10141668892E+04  0.10196825053E+04  0.78962489130E+02 0.  0.
          5    1    3    3  502    0 -0.43509186600E+02 -0.52928682088E+02 -0.40371927253E+03  0.40951902974E+03  0.47000000000E+01 0. -1.
        -11    1    4    4    0    0  0.19365609942E+02  0.27987488308E+02 -0.24281852376E+02  0.41808309043E+02  0.00000000000E+00 0.  1.
         12    1    4    4    0    0  0.25973624788E+02 -0.20155694301E+02 -0.14511589236E+03  0.14879349251E+03  0.00000000000E+00 0. -1.
         -5    1    5    5    0  501 -0.39330965476E+02 -0.14707284379E+02 -0.98637864985E+02  0.10730679134E+03  0.47000000000E+01 0.  1.
         13    1    6    6    0    0 -0.15129185609E+02 -0.82370780339E+01 -0.27247663572E+03  0.27302061960E+03  0.00000000000E+00 0. -1.
        -14    1    6    6    0    0  0.52630102954E+02  0.68041250494E+02 -0.74169025349E+03  0.74666188575E+03  0.00000000000E+00 0.  1.
</event>
<event>
12    1  0.1348628E-002  0.2075326E+03  0.7818608E-02  0.1143535E+00
         -1   -1    0    0    0  501 -0.00000000000E+00  0.00000000000E+00  0.32610301593E+02  0.32610301593E+02  0.00000000000E+00 0. -1.
          1   -1    0    0  502    0  0.00000000000E+00 -0.00000000000E+00 -0.14948676721E+04  0.14948676721E+04  0.00000000000E+00 0.  1.
          6    2    1    2  502    0 -0.10338440233E+03  0.50799755017E+02 -0.47279102609E+03  0.51663348710E+03  0.17352191759E+03 0.  0.
         24    2    3    3    0    0 -0.51621665327E+02  0.61174487712E+02 -0.13622683254E+03  0.17592164052E+03  0.77353470639E+02 0.  0.
         -6    2    1    2    0  501  0.10338440233E+03 -0.50799755017E+02 -0.98946634445E+03  0.10108444866E+04  0.17173811341E+03 0.  0.
        -24    2    5    5    0    0  0.13788893921E+03 -0.56772428392E+02 -0.86830802815E+03  0.88463963926E+03  0.79949930616E+02 0.  0.
          5    1    3    3  502    0 -0.51762737002E+02 -0.10374732695E+02 -0.33656419355E+03  0.34071184658E+03  0.47000000000E+01 0. -1.
        -13    1    4    4    0    0  0.27496902578E+01  0.13817745565E+02 -0.88129097071E+02  0.89248129614E+02  0.00000000000E+00 0.  1.
         14    1    4    4    0    0 -0.54371355585E+02  0.47356742146E+02 -0.48097735472E+02  0.86673510904E+02  0.00000000000E+00 0. -1.
         -5    1    5    5    0  501 -0.34504536884E+02  0.59726733745E+01 -0.12115831630E+03  0.12620484738E+03  0.47000000000E+01 0.  1.
         11    1    6    6    0    0  0.67076705649E+02 -0.69848838891E+02 -0.46964383670E+03  0.47952422054E+03  0.00000000000E+00 0. -1.
        -12    1    6    6    0    0  0.70812233564E+02  0.13076410500E+02 -0.39866419145E+03  0.40511541871E+03  0.00000000000E+00 0.  1.
</event>
<event>
12    1  0.1348628E-002  0.2576536E+03  0.7818608E-02  0.1108561E+00
          2   -1    0    0  502    0  0.00000000000E+00  0.00000000000E+00  0.11514056037E+03  0.11514056037E+03  0.00000000000E+00 0.  1.
         -2   -1    0    0    0  501 -0.00000000000E+00 -0.00000000000E+00 -0.14418439069E+04  0.14418439069E+04  0.00000000000E+00 0. -1.
          6    2    1    2  502    0  0.53330741243E+02 -0.18475984079E+03 -0.59905065043E+02  0.26417840070E+03  0.17094222371E+03 0.  0.
         24    2    3    3    0    0  0.57475855898E+02 -0.20768949006E+03 -0.67163821917E+02  0.23932421911E+03  0.79540584530E+02 0.  0.
         -6    2    1    2    0  501 -0.53330741243E+02  0.18475984079E+03 -0.12667982815E+04  0.12928060666E+04  0.17201532795E+03 0.  0.
        -24    2    5    5    0    0 -0.94067499661E+02  0.12242797092E+03 -0.10253816251E+04  0.10401227916E+04  0.81305853879E+02 0.  0.
          5    1    3    3  502    0 -0.41451146553E+01  0.22929649267E+02  0.72587568744E+01  0.24854181587E+02  0.47000000000E+01 0. -1.
        -13    1    4    4    0    0  0.67159611088E+02 -0.93847948630E+02 -0.31231146820E+02  0.11955431968E+03  0.00000000000E+00 0.  1.
         14    1    4    4    0    0 -0.96837551897E+01 -0.11384154143E+03 -0.35932675098E+02  0.11976989943E+03  0.00000000000E+00 0. -1.
         -5    1    5    5    0  501  0.40736758418E+02  0.62331869869E+02 -0.24141665638E+03  0.25268327501E+03  0.47000000000E+01 0.  1.
         11    1    6    6    0    0 -0.61791971590E+02  0.27257291613E+02 -0.28174587088E+03  0.28972736056E+03  0.00000000000E+00 0. -1.
        -12    1    6    6    0    0 -0.32275528070E+02  0.95170679309E+02 -0.74363575426E+03  0.75039543104E+03  0.00000000000E+00 0.  1.
</event>
<event>
12    1  0.1348628E-002  0.2788084E+03  0.7818608E-02  0.1096342E+00
         -2   -1    0    0    0  501 -0.00000000000E+00  0.00000000000E+00  0.25583331286E+02  0.25583331286E+02  0.00000000000E+00 0. -1.
          2   -1    0    0  502    0  0.00000000000E+00 -0.00000000000E+00 -0.32164011909E+04  0.32164011909E+04  0.00000000000E+00 0.  1.
          6    2    1    2  502    0 -0.69552695423E+02 -0.20878352317E+03 -0.12109100151E+04  0.12424582752E+04  0.17020976448E+03 0.  0.
         24    2    3    3    0    0 -0.11095218511E+03 -0.18288446456E+03 -0.96362992825E+03  0.99035867119E+03  0.80439693087E+02 0.  0.
         -6    2    1    2    0  501  0.69552695423E+02  0.20878352317E+03 -0.19799078445E+04  0.19995262470E+04  0.17216852987E+03 0.  0.
        -24    2    5    5    0    0  0.11344939041E+03  0.13355661793E+03 -0.13315019141E+04  0.13452798502E+04  0.78564583447E+02 0.  0.
          5    1    3    3  502    0  0.41399489686E+02 -0.25899058611E+02 -0.24728008681E+03  0.25209960396E+03  0.47000000000E+01 0. -1.
        -11    1    4    4    0    0 -0.14112396211E+00 -0.35471094997E+02 -0.28199116757E+03  0.28421336542E+03  0.00000000000E+00 0.  1.
         12    1    4    4    0    0 -0.11081106115E+03 -0.14741336957E+03 -0.68163876069E+03  0.70614530578E+03  0.00000000000E+00 0. -1.
         -5    1    5    5    0  501 -0.43896694990E+02  0.75226905247E+02 -0.64840593045E+03  0.65424639681E+03  0.47000000000E+01 0.  1.
         11    1    6    6    0    0  0.96714904281E+02  0.13288816358E+03 -0.10051665916E+04  0.10185150532E+04  0.00000000000E+00 0. -1.
        -12    1    6    6    0    0  0.16734486132E+02  0.66845434384E+00 -0.32633532250E+03  0.32676479702E+03  0.00000000000E+00 0.  1.
</event>
<event>
12    1  0.1348628E-002  0.1902258E+03  0.7818608E-02  0.1158258E+00
          1   -1    0    0  502    0  0.00000000000E+00  0.00000000000E+00  0.12734889512E+04  0.12734889512E+04  0.00000000000E+00 0. -1.
         -1   -1    0    0    0  501 -0.00000000000E+00 -0.00000000000E+00 -0.28421419889E+02  0.28421419889E+02  0.00000000000E+00 0.  1.
          6    2    1    2  502    0  0.69948526059E+02  0.37418438339E+02  0.61075155062E+03  0.63950699448E+03  0.17221731496E+03 0.  0.
         24    2    3    3    0    0  0.95554804241E+02  0.73597464575E+02  0.44587699308E+03  0.46871380625E+03  0.79618036906E+02 0.  0.
         -6    2    1    2    0  501 -0.69948526059E+02 -0.37418438339E+02  0.63431598065E+03  0.66240337658E+03  0.17357573034E+03 0.  0.
        -24    2    5    5    0    0 -0.40503383274E+02 -0.31465694837E+02  0.62268677312E+03  0.62984911331E+03  0.79627094100E+02 0.  0.
          5    1    3    3  502    0 -0.25606278183E+02 -0.36179026236E+02  0.16487455754E+03  0.17079318823E+03  0.47000000000E+01 0. -1.
        -13    1    4    4    0    0  0.70125149894E+01 -0.90428229421E+01  0.69620462304E+01  0.13394704213E+02  0.00000000000E+00 0.  1.
         14    1    4    4    0    0  0.88542289252E+02  0.82640287517E+02  0.43891494685E+03  0.45531910204E+03  0.00000000000E+00 0. -1.
         -5    1    5    5    0  501 -0.29445142784E+02 -0.59527435017E+01  0.11629207535E+02  0.32554263264E+02  0.47000000000E+01 0.  1.
         13    1    6    6    0    0 -0.41810027167E+02  0.13383230777E+02  0.41819783689E+03  0.42049568371E+03  0.00000000000E+00 0. -1.
        -14    1    6    6    0    0  0.13066438928E+01 -0.44848925614E+02  0.20448893623E+03  0.20935342960E+03  0.00000000000E+00 0.  1.
</event>
<event>
12    1  0.1348628E-002  0.1808547E+03  0.7818608E-02  0.1166978E+00
         -3   -1    0    0    0  501 -0.00000000000E+00  0.00000000000E+00  0.19341403169E+03  0.19341403169E+03  0.00000000000E+00 0. -1.
          3   -1    0    0  502    0  0.00000000000E+00 -0.00000000000E+00 -0.22774992123E+03  0.22774992123E+03  0.00000000000E+00 0.  1.
          6    2    1    2  502    0 -0.55706426212E+02 -0.12765487017E+02 -0.12400847314E+03  0.21914670927E+03  0.17140891224E+03 0.  0.
         24    2    3    3    0    0 -0.10341265616E+03 -0.19990185547E+02 -0.96497577480E+02  0.16340605961E+03  0.79347166844E+02 0.  0.
         -6    2    1    2    0  501  0.55706426212E+02  0.12765487017E+02  0.89672583597E+02  0.20201724364E+03  0.17176621001E+03 0.  0.
        -24    2    5    5    0    0 -0.15233886815E+02  0.54613597130E+02  0.57823318917E+02  0.11358502105E+03  0.79644864851E+02 0.  0.
          5    1    3    3  502    0  0.47706229949E+02  0.72246985304E+01 -0.27510895655E+02  0.55740649660E+02  0.47000000000E+01 0. -1.
        -11    1    4    4    0    0 -0.30671629494E+02  0.26810805228E+02 -0.52234997606E+02  0.66242456987E+02  0.00000000000E+00 0.  1.
         12    1    4    4    0    0 -0.72741026667E+02 -0.46800990776E+02 -0.44262579874E+02  0.97163602626E+02  0.00000000000E+00 0. -1.
         -5    1    5    5    0  501  0.70940313028E+02 -0.41848110113E+02  0.31849264679E+02  0.88432222595E+02  0.47000000000E+01 0.  1.
         11    1    6    6    0    0  0.28675598875E+02  0.12484211186E+02  0.38786535518E+02  0.49825102481E+02  0.00000000000E+00 0. -1.
        -12    1    6    6    0    0 -0.43909485690E+02  0.42129385944E+02  0.19036783399E+02  0.63759918568E+02  0.00000000000E+00 0.  1.
</event>
<event>
12    1  0.1348628E-002  0.1883249E+03  0.7818608E-02  0.1159981E+00
          2   -1    0    0  502    0  0.00000000000E+00  0.00000000000E+00  0.37287038174E+03  0.37287038174E+03  0.00000000000E+00 0. -1.
         -2   -1    0    0    0  501 -0.00000000000E+00 -0.00000000000E+00 -0.12674669471E+03  0.12674669471E+03  0.00000000000E+00 0.  1.
          6    2    1    2  502    0  0.48547232679E+02 -0.57489558922E+02  0.24769283230E+03  0.31095815319E+03  0.17228276373E+03 0.  0.
         24    2    3    3    0    0  0.82909993243E+01 -0.21623350944E+01  0.29998872252E+02  0.82716140711E+02  0.76606861539E+02 0.  0.
         -6    2    1    2    0  501 -0.48547232679E+02  0.57489558922E+02 -0.15691452649E+01  0.18865892326E+03  0.17299665870E+03 0.  0.
        -24    2    5    5    0    0 -0.64956208545E+02  0.89214202544E+02 -0.33816758668E+02  0.14030909314E+03  0.79778352245E+02 0.  0.
          5    1    3    3  502    0  0.40256233354E+02 -0.55327223828E+02  0.21769396004E+03  0.22824201248E+03  0.47000000000E+01 0. -1.
        -11    1    4    4    0    0  0.37275484789E+02 -0.15299695142E+01  0.37367722975E+02  0.52802928833E+02  0.00000000000E+00 0.  1.
         12    1    4    4    0    0 -0.28984485465E+02 -0.63236558017E+00 -0.73688507231E+01  0.29913211878E+02  0.00000000000E+00 0. -1.
         -5    1    5    5    0  501  0.16408975866E+02 -0.31724643622E+02  0.32247613403E+02  0.48349830115E+02  0.47000000000E+01 0.  1.
         13    1    6    6    0    0 -0.57411108516E+02  0.12806681640E+02 -0.83227882426E+01  0.59408040531E+02  0.00000000000E+00 0. -1.
        -14    1    6    6    0    0 -0.75451000292E+01  0.76407520905E+02 -0.25493970426E+02  0.80901052610E+02  0.00000000000E+00 0.  1.
</event>
<event>
12    1  0.1348628E-002  0.1880258E+03  0.7818608E-02  0.1160254E+00
          2   -1    0    0  502    0  0.00000000000E+00  0.00000000000E+00  0.11639969805E+04  0.11639969805E+04  0.00000000000E+00 0.  1.
         -2   -1    0    0    0  501 -0.00000000000E+00 -0.00000000000E+00 -0.30395126444E+02  0.30395126444E+02  0.00000000000E+00 0. -1.
          6    2    1    2  502    0 -0.55365676275E+02 -0.51476576503E+02  0.58182984079E+03  0.61133884531E+03  0.17173824303E+03 0.  0.
         24    2    3    3    0    0 -0.74609949196E+02 -0.73556459049E+01  0.52285353990E+03  0.53506766712E+03  0.85444918874E+02 0.  0.
         -6    2    1    2    0  501  0.55365676275E+02  0.51476576503E+02  0.55177201329E+03  0.58305326165E+03  0.17257912747E+03 0.  0.
        -24    2    5    5    0    0  0.35041231538E+02  0.46719818210E+02  0.55267941157E+03  0.56163777252E+03  0.81066800993E+02 0.  0.
          5    1    3    3  502    0  0.19244272921E+02 -0.44120930598E+02  0.58976300889E+02  0.76271178197E+02  0.47000000000E+01 0. -1.
        -11    1    4    4    0    0 -0.18918587504E+02  0.36216455354E+02  0.14463064150E+03  0.15029160673E+03  0.00000000000E+00 0.  1.
         12    1    4    4    0    0 -0.55691361692E+02 -0.43572101259E+02  0.37822289840E+03  0.38477606039E+03  0.00000000000E+00 0. -1.
         -5    1    5    5    0  501  0.20324444737E+02  0.47567582926E+01 -0.90739827965E+00  0.21415489137E+02  0.47000000000E+01 0.  1.
         13    1    6    6    0    0  0.24970889846E+02  0.53394863380E+02  0.19405738122E+03  0.20281228755E+03  0.00000000000E+00 0. -1.
        -14    1    6    6    0    0  0.10070341692E+02 -0.66750451703E+01  0.35862203035E+03  0.35882548497E+03  0.00000000000E+00 0.  1.
</event>
<event>
12    1  0.1348628E-002  0.2373852E+03  0.7818608E-02  0.1121547E+00
          2   -1    0    0  502    0  0.00000000000E+00  0.00000000000E+00  0.50351246328E+03  0.50351246328E+03  0.00000000000E+00 0.  1.
         -2   -1    0    0    0  501 -0.00000000000E+00 -0.00000000000E+00 -0.13793217760E+03  0.13793217760E+03  0.00000000000E+00 0. -1.
          6    2    1    2  502    0 -0.12136522596E+03 -0.11061279865E+03  0.32184747023E+03  0.39970567096E+03  0.17092138546E+03 0.  0.
         24    2    3    3    0    0 -0.36665133770E+02 -0.12249457421E+03  0.18728669392E+03  0.24019399512E+03  0.79168155396E+02 0.  0.
         -6    2    1    2    0  501  0.12136522596E+03  0.11061279865E+03  0.43732815447E+02  0.24173896993E+03  0.17193155946E+03 0.  0.
        -24    2    5    5    0    0  0.14014594859E+03  0.11012347150E+03  0.16138730722E+01  0.19538111956E+03  0.80019443956E+02 0.  0.
          5    1    3    3  502    0 -0.84700092187E+02  0.11881775563E+02  0.13456077631E+03  0.15951167584E+03  0.47000000000E+01 0. -1.
        -11    1    4    4    0    0 -0.55715995755E+02 -0.93902510348E+02  0.16918604543E+03  0.20136005463E+03  0.00000000000E+00 0.  1.
         12    1    4    4    0    0  0.19050861986E+02 -0.28592063861E+02  0.18100648483E+02  0.38833940487E+02  0.00000000000E+00 0. -1.
         -5    1    5    5    0  501 -0.18780722637E+02  0.48932714469E+00  0.42118942375E+02  0.46357850366E+02  0.47000000000E+01 0.  1.
         11    1    6    6    0    0  0.39421068462E+01  0.36246205774E+02 -0.15241725266E+02  0.39517563544E+02  0.00000000000E+00 0. -1.
        -12    1    6    6    0    0  0.13620384175E+03  0.73877265728E+02  0.16855598339E+02  0.15586355602E+03  0.00000000000E+00 0.  1.
</event>
<event>
12    1  0.1348628E-002  0.1736313E+03  0.7818608E-02  0.1174113E+00
         -1   -1    0    0    0  501 -0.00000000000E+00  0.00000000000E+00  0.39204944740E+03  0.39204944740E+03  0.00000000000E+00 0. -1.
          1   -1    0    0  502    0  0.00000000000E+00 -0.00000000000E+00 -0.21998553139E+03  0.21998553139E+03  0.00000000000E+00 0.  1.
          6    2    1    2  502    0 -0.17510366335E+02 -0.13043565623E+02 -0.16077910446E+03  0.23660333921E+03  0.17220473908E+03 0.  0.
         24    2    3    3    0    0  0.31469124731E+02 -0.60822340473E+02 -0.10401888008E+03  0.14757741634E+03  0.79180196316E+02 0.  0.
         -6    2    1    2    0  501  0.17510366335E+02  0.13043565623E+02  0.33284302048E+03  0.37543163958E+03  0.17230116709E+03 0.  0.
        -24    2    5    5    0    0 -0.54722648191E+02 -0.98060904973E+01  0.17140470121E+03  0.19703843315E+03  0.79711008670E+02 0.  0.
          5    1    3    3  502    0 -0.48979491066E+02  0.47778774850E+02 -0.56760224379E+02  0.89025922870E+02  0.47000000000E+01 0. -1.
        -11    1    4    4    0    0 -0.76607297939E+01 -0.35728049912E+02 -0.33489999386E+01  0.36693270937E+02  0.00000000000E+00 0.  1.
         12    1    4    4    0    0  0.39129854525E+02 -0.25094290561E+02 -0.10066988015E+03  0.11088414541E+03  0.00000000000E+00 0. -1.
         -5    1    5    5    0  501  0.72233014526E+02  0.22849656120E+02  0.16143831927E+03  0.17839320643E+03  0.47000000000E+01 0.  1.
         13    1    6    6    0    0 -0.51170237065E+02  0.22189387605E+01  0.17629146704E+03  0.18358103987E+03  0.00000000000E+00 0. -1.
        -14    1    6    6    0    0 -0.35524111261E+01 -0.12025029258E+02 -0.48867658259E+01  0.13457393273E+02  0.00000000000E+00 0.  1.
</event>
<event>
12    1  0.1348628E-002  0.1848910E+03  0.7818608E-02  0.1163152E+00
         -1   -1    0    0    0  501 -0.00000000000E+00  0.00000000000E+00  0.39387012704E+02  0.39387012704E+02  0.00000000000E+00 0. -1.
          1   -1    0    0  502    0  0.00000000000E+00 -0.00000000000E+00 -0.87008630705E+03  0.87008630705E+03  0.00000000000E+00 0.  1.
          6    2    1    2  502    0 -0.68082588845E+02  0.69424726763E+01 -0.39221053696E+03  0.43352138563E+03  0.17154663989E+03 0.  0.
         24    2    3    3    0    0 -0.42232611908E+02  0.71362820208E+02 -0.25532817800E+03  0.27997311087E+03  0.79474641963E+02 0.  0.
         -6    2    1    2    0  501  0.68082588845E+02 -0.69424726763E+01 -0.43848875738E+03  0.47595193413E+03  0.17197213850E+03 0.  0.
        -24    2    5    5    0    0  0.58374632625E+02  0.49870699114E+02 -0.18660164598E+03  0.21751202275E+03  0.81219587501E+02 0.  0.
          5    1    3    3  502    0 -0.25849976937E+02 -0.64420347532E+02 -0.13688235897E+03  0.15354827475E+03  0.47000000000E+01 0. -1.
        -11    1    4    4    0    0 -0.38104064612E+02  0.49463763517E+02 -0.24914015853E+03  0.25684509384E+03  0.00000000000E+00 0.  1.
         12    1    4    4    0    0 -0.41285472960E+01  0.21899056691E+02 -0.61880194728E+01  0.23128017029E+02  0.00000000000E+00 0. -1.
         -5    1    5    5    0  501  0.97079562199E+01 -0.56813171791E+02 -0.25188711140E+03  0.25843991138E+03  0.47000000000E+01 0.  1.
         13    1    6    6    0    0  0.16140299122E+02 -0.44231604895E+01  0.19086657616E+01  0.16843889380E+02  0.00000000000E+00 0. -1.
        -14    1    6    6    0    0  0.42234333504E+02  0.54293859604E+02 -0.18851031174E+03  0.20066813337E+03  0.00000000000E+00 0.  1.
</event>
<event>
12    1  0.1348628E-002  0.2286512E+03  0.7818608E-02  0.1127593E+00
         -1   -1    0    0    0  501 -0.00000000000E+00  0.00000000000E+00  0.56084335938E+02  0.56084335938E+02  0.00000000000E+00 0.  1.
          1   -1    0    0  502    0  0.00000000000E+00 -0.00000000000E+00 -0.10601417136E+04  0.10601417136E+04  0.00000000000E+00 0. -1.
          6    2    1    2  502    0 -0.12044021531E+03  0.91908617765E+02 -0.69652079242E+03  0.73318837399E+03  0.17167101675E+03 0.  0.
         24    2    3    3    0    0 -0.90902339830E+02  0.12564877094E+03 -0.44894664320E+03  0.48154192877E+03  0.79238195990E+02 0.  0.
         -6    2    1    2    0  501  0.12044021531E+03 -0.91908617765E+02 -0.30753658521E+03  0.38303767552E+03  0.17083931088E+03 0.  0.
        -24    2    5    5    0    0  0.10965968035E+03  0.10479821598E+01 -0.17393564587E+03  0.21985541424E+03  0.77823200305E+02 0.  0.
          5    1    3    3  502    0 -0.29537875479E+02 -0.33740153178E+02 -0.24757414923E+03  0.25164644522E+03  0.47000000000E+01 0. -1.
        -11    1    4    4    0    0 -0.12969351470E+02  0.18647325753E+02 -0.18369663498E+03  0.18509559837E+03  0.00000000000E+00 0.  1.
         12    1    4    4    0    0 -0.77932988360E+02  0.10700144519E+03 -0.26525000822E+03  0.29644633040E+03  0.00000000000E+00 0. -1.
         -5    1    5    5    0  501  0.10780534957E+02 -0.92956599925E+02 -0.13360093934E+03  0.16318226128E+03  0.47000000000E+01 0.  1.
         13    1    6    6    0    0  0.40870210200E+02 -0.12542563779E+02 -0.13061498103E+03  0.13743348667E+03  0.00000000000E+00 0. -1.
        -14    1    6    6    0    0  0.68789470152E+02  0.13590545938E+02 -0.43320664836E+02  0.82421927571E+02  0.00000000000E+00 0.  1.
</event>
<event>
12    1  0.1348628E-002  0.1909772E+03  0.7818608E-02  0.1157583E+00
         -1   -1    0    0    0  501 -0.00000000000E+00  0.00000000000E+00  0.98329155204E+02  0.98329155204E+02  0.00000000000E+00 0.  1.
          1   -1    0    0  502    0  0.00000000000E+00 -0.00000000000E+00 -0.43192437088E+03  0.43192437088E+03  0.00000000000E+00 0. -1.
          6    2    1    2  502    0 -0.17148923838E+02  0.81388522840E+02 -0.66711075711E+02  0.20172665373E+03  0.17124572393E+03 0.  0.
         24    2    3    3    0    0 -0.53815074361E+02  0.29934292857E+02  0.10553783241E+02  0.10180722216E+03  0.80381614973E+02 0.  0.
         -6    2    1    2    0  501  0.17148923838E+02 -0.81388522840E+02 -0.26688413996E+03  0.32852687235E+03  0.17258210931E+03 0.  0.
        -24    2    5    5    0    0 -0.54633417830E+02 -0.57360074436E+02 -0.18786940260E+03  0.21900294972E+03  0.79952430033E+02 0.  0.
          5    1    3    3  502    0  0.36666150524E+02  0.51454229983E+02 -0.77264858952E+02  0.99919431574E+02  0.47000000000E+01 0. -1.
        -13    1    4    4    0    0 -0.39243926885E+02 -0.10151704066E+02 -0.23830294297E+02  0.47021546328E+02  0.00000000000E+00 0.  1.
         14    1    4    4    0    0 -0.14571147477E+02  0.40085996923E+02  0.34384077539E+02  0.54785675831E+02  0.00000000000E+00 0. -1.
         -5    1    5    5    0  501  0.71782341668E+02 -0.24028448404E+02 -0.79014737357E+02  0.10952392263E+03  0.47000000000E+01 0.  1.
         11    1    6    6    0    0 -0.41804458721E+01 -0.58370190707E+02 -0.73167828559E+02  0.93691442655E+02  0.00000000000E+00 0. -1.
        -12    1    6    6    0    0 -0.50452971958E+02  0.10101162712E+01 -0.11470157405E+03  0.12531150706E+03  0.00000000000E+00 0.  1.
</event>
<event>
12    1  0.1348628E-002  0.1731656E+03  0.7818608E-02  0.1174586E+00
          4   -1    0    0  502    0  0.00000000000E+00  0.00000000000E+00  0.67455512508E+02  0.67455512508E+02  0.00000000000E+00 0. -1.
         -4   -1    0    0    0  501 -0.00000000000E+00 -0.00000000000E+00 -0.45460555338E+03  0.45460555338E+03  0.00000000000E+00 0.  1.
          6    2    1    2  502    0  0.25727076525E+02  0.37343002583E+02 -0.16107817864E+03  0.24032089810E+03  0.17248644040E+03 0.  0.
         24    2    3    3    0    0 -0.15163607732E+02  0.57778632828E+02 -0.36688813994E+02  0.10771446130E+03  0.81780380842E+02 0.  0.
         -6    2    1    2    0  501 -0.25727076525E+02 -0.37343002583E+02 -0.22607186223E+03  0.28174016779E+03  0.16190322092E+03 0.  0.
        -24    2    5    5    0    0 -0.46362610541E+02 -0.43633650551E+02 -0.71040841403E+02  0.12514481366E+03  0.81000222975E+02 0.  0.
          5    1    3    3  502    0  0.40890684257E+02 -0.20435630245E+02 -0.12438936465E+03  0.13260643680E+03  0.47000000000E+01 0. -1.
        -11    1    4    4    0    0  0.33117232495E+02  0.32793764136E+02 -0.12783547812E+02  0.48328057575E+02  0.00000000000E+00 0.  1.
         12    1    4    4    0    0 -0.48280840227E+02  0.24984868692E+02 -0.23905266182E+02  0.59386403729E+02  0.00000000000E+00 0. -1.
         -5    1    5    5    0  501  0.20635534017E+02  0.62906479682E+01 -0.15503102083E+03  0.15659535413E+03  0.47000000000E+01 0.  1.
         11    1    6    6    0    0 -0.57722126759E+01 -0.53789164240E+02 -0.16811393678E+02  0.56649938978E+02  0.00000000000E+00 0. -1.
        -12    1    6    6    0    0 -0.40590397865E+02  0.10155513689E+02 -0.54229447725E+02  0.68494874682E+02  0.00000000000E+00 0.  1.
</event>
<event>
12    1  0.1348628E-002  0.2274017E+03  0.7818608E-02  0.1128482E+00
          1   -1    0    0  502    0  0.00000000000E+00  0.00000000000E+00  0.59576723587E+03  0.59576723587E+03  0.00000000000E+00 0.  1.
         -1   -1    0    0    0  501 -0.00000000000E+00 -0.00000000000E+00 -0.89660728385E+02  0.89660728385E+02  0.00000000000E+00 0. -1.
          6    2    1    2  502    0 -0.84337857564E+02 -0.11972877201E+03  0.31342305872E+03  0.38676388541E+03  0.17292899193E+03 0.  0.
         24    2    3    3    0    0 -0.60815090050E+02 -0.14827782789E+03  0.20554829974E+03  0.27262614928E+03  0.79938253195E+02 0.  0.
         -6    2    1    2    0  501  0.84337857564E+02  0.11972877201E+03  0.19268344876E+03  0.29866407885E+03  0.17500133571E+03 0.  0.
        -24    2    5    5    0    0  0.89273821561E+02  0.13857889614E+03  0.11033183256E+03  0.21390813740E+03  0.80060304137E+02 0.  0.
          5    1    3    3  502    0 -0.23522767514E+02  0.28549055874E+02  0.10787475898E+03  0.11413773613E+03  0.47000000000E+01 0. -1.
        -13    1    4    4    0    0 -0.27671248714E+01 -0.60598946692E+02  0.12903227093E+03  0.14258056061E+03  0.00000000000E+00 0.  1.
         14    1    4    4    0    0 -0.58047965178E+02 -0.87678881195E+02  0.76516028804E+02  0.13004558867E+03  0.00000000000E+00 0. -1.
         -5    1    5    5    0  501 -0.49359639973E+01 -0.18850124124E+02  0.82351616199E+02  0.84755941447E+02  0.47000000000E+01 0.  1.
         11    1    6    6    0    0  0.74357236852E+02  0.89104018555E+02  0.32561685116E+02  0.12053542273E+03  0.00000000000E+00 0. -1.
        -12    1    6    6    0    0  0.14916584709E+02  0.49474877582E+02  0.77770147445E+02  0.93372714669E+02  0.00000000000E+00 0.  1.
</event>
<event>
12    1  0.1348628E-002  0.1825653E+03  0.7818608E-02  0.1165343E+00
         -1   -1    0    0    0  501 -0.00000000000E+00  0.00000000000E+00  0.14661529902E+04  0.14661529902E+04  0.00000000000E+00 0.  1.
          1   -1    0    0  502    0  0.00000000000E+00 -0.00000000000E+00 -0.30326694413E+02  0.30326694413E+02  0.00000000000E+00 0. -1.
          6    2    1    2  502    0 -0.55290207486E+02 -0.26808247180E+02  0.34317944559E+03  0.38866803738E+03  0.17179936625E+03 0.  0.
         24    2    3    3    0    0 -0.48692512290E+02  0.46898211525E+02  0.14463822112E+03  0.17673201059E+03  0.75786447087E+02 0.  0.
         -6    2    1    2    0  501  0.55290207486E+02  0.26808247180E+02  0.10926468502E+04  0.11078116472E+04  0.17202853640E+03 0.  0.
        -24    2    5    5    0    0  0.62276911013E+02 -0.45089837159E+02  0.68288691171E+03  0.69170655744E+03  0.78815736794E+02 0.  0.
          5    1    3    3  502    0 -0.65976951967E+01 -0.73706458705E+02  0.19854122447E+03  0.21193602679E+03  0.47000000000E+01 0. -1.
        -11    1    4    4    0    0 -0.45708456356E+01  0.14855721086E+02  0.11222563620E+03  0.11329686006E+03  0.00000000000E+00 0.  1.
         12    1    4    4    0    0 -0.44121666654E+02  0.32042490438E+02  0.32412584917E+02  0.63435150531E+02  0.00000000000E+00 0. -1.
         -5    1    5    5    0  501 -0.69867035270E+01  0.71898084338E+02  0.40975993846E+03  0.41610508976E+03  0.47000000000E+01 0.  1.
         11    1    6    6    0    0  0.49295707313E+02 -0.11178518139E+02  0.16550010562E+03  0.17304713516E+03  0.00000000000E+00 0. -1.
        -12    1    6    6    0    0  0.12981203701E+02 -0.33911319019E+02  0.51738680609E+03  0.51865942228E+03  0.00000000000E+00 0.  1.
</event>
<event>
12    1  0.1348628E-002  0.2034107E+03  0.7818608E-02  0.1146893E+00
         -1   -1    0    0    0  501 -0.00000000000E+00  0.00000000000E+00  0.49235698313E+02  0.49235698313E+02  0.00000000000E+00 0.  1.
          1   -1    0    0  502    0  0.00000000000E+00 -0.00000000000E+00 -0.84354011203E+03  0.84354011203E+03  0.00000000000E+00 0. -1.
          6    2    1    2  502    0 -0.73786778201E+01  0.10873471365E+03 -0.37102171853E+03  0.42342633035E+03  0.17249654712E+03 0.  0.
         24    2    3    3    0    0 -0.42113162201E+02  0.13347528795E+03 -0.29058270315E+03  0.33226106493E+03  0.79811884930E+02 0.  0.
         -6    2    1    2    0  501  0.73786778201E+01 -0.10873471365E+03 -0.42328269518E+03  0.46934947999E+03  0.17100588145E+03 0.  0.
        -24    2    5    5    0    0 -0.23429622894E+00 -0.13781073265E+03 -0.27972332961E+03  0.32260223573E+03  0.82675319437E+02 0.  0.
          5    1    3    3  502    0  0.34734484380E+02 -0.24740574300E+02 -0.80439015382E+02  0.91165265411E+02  0.47000000000E+01 0. -1.
        -11    1    4    4    0    0 -0.43520376602E+02  0.11788547588E+03 -0.29060200892E+03  0.31660785870E+03  0.00000000000E+00 0.  1.
         12    1    4    4    0    0  0.14072144015E+01  0.15589812069E+02  0.19305765126E-01  0.15653206235E+02  0.00000000000E+00 0. -1.
         -5    1    5    5    0  501  0.76129740491E+01  0.29076018997E+02 -0.14355936557E+03  0.14674724426E+03  0.47000000000E+01 0.  1.
         13    1    6    6    0    0 -0.13708070847E+01 -0.33192797869E+01 -0.89839318671E+02  0.89911066669E+02  0.00000000000E+00 0. -1.
        -14    1    6    6    0    0  0.11365108558E+01 -0.13449145286E+03 -0.18988401094E+03  0.23269116906E+03  0.00000000000E+00 0.  1.
</event>
<event>
12    1  0.1348628E-002  0.1733204E+03  0.7818608E-02  0.1174429E+00
         -2   -1    0    0    0  501 -0.00000000000E+00  0.00000000000E+00  0.13101485795E+03  0.13101485795E+03  0.00000000000E+00 0. -1.
          2   -1    0    0  502    0  0.00000000000E+00 -0.00000000000E+00 -0.34075209876E+03  0.34075209876E+03  0.00000000000E+00 0.  1.
          6    2    1    2  502    0 -0.31428818494E+01 -0.83758393937E+01 -0.23994760928E+03  0.29624109361E+03  0.17350474908E+03 0.  0.
         24    2    3    3    0    0  0.32103221139E+02  0.37854676111E+02 -0.68965683511E+02  0.11558546187E+03  0.78359046592E+02 0.  0.
         -6    2    1    2    0  501  0.31428818494E+01  0.83758393937E+01  0.30210368462E+02  0.17552586310E+03  0.17267492540E+03 0.  0.
        -24    2    5    5    0    0 -0.62723425863E+02  0.10329002350E+02 -0.10000304440E+01  0.10246175196E+03  0.80352312420E+02 0.  0.
          5    1    3    3  502    0 -0.35246102989E+02 -0.46230515504E+02 -0.17098192577E+03  0.18065563174E+03  0.47000000000E+01 0. -1.
        -13    1    4    4    0    0  0.18830613786E+02 -0.18022330798E+02 -0.29863973951E+00  0.26066944751E+02  0.00000000000E+00 0.  1.
         14    1    4    4    0    0  0.13272607354E+02  0.55877006909E+02 -0.68667043771E+02  0.89518517120E+02  0.00000000000E+00 0. -1.
         -5    1    5    5    0  501  0.65866307712E+02 -0.19531629568E+01  0.31210398906E+02  0.73064111142E+02  0.47000000000E+01 0.  1.
         13    1    6    6    0    0 -0.49016784863E+02  0.43556306878E+02  0.59869621296E+01  0.65845582864E+02  0.00000000000E+00 0. -1.
        -14    1    6    6    0    0 -0.13706641000E+02 -0.33227304528E+02 -0.69869925736E+01  0.36616169091E+02  0.00000000000E+00 0.  1.
</event>
<event>
12    1  0.1348628E-002  0.1905313E+03  0.7818608E-02  0.1157983E+00
          2   -1    0    0  502    0  0.00000000000E+00  0.00000000000E+00  0.23265641985E+04  0.23265641985E+04  0.00000000000E+00 0.  1.
         -2   -1    0    0    0  501 -0.00000000000E+00 -0.00000000000E+00 -0.16738901986E+02  0.16738901986E+02  0.00000000000E+00 0. -1.
          6    2    1    2  502    0  0.82733070614E+02  0.17957415272E+02  0.14602042264E+04  0.14725850892E+04  0.17071389073E+03 0.  0.
         24    2    3    3    0    0  0.90469974667E+02  0.68274581942E+02  0.99315218020E+03  0.10027432214E+04  0.79350362870E+02 0.  0.
         -6    2    1    2    0  501 -0.82733070614E+02 -0.17957415272E+02  0.84962107012E+03  0.87071801126E+03  0.17066535268E+03 0.  0.
        -24    2    5    5    0    0 -0.95318315711E+02 -0.66570498670E+02  0.60194424133E+03  0.61795820079E+03  0.77577417115E+02 0.  0.
          5    1    3    3  502    0 -0.77369040526E+01 -0.50317166670E+02  0.46705204620E+03  0.46984186788E+03  0.47000000000E+01 0. -1.
        -13    1    4    4    0    0  0.35778227086E+02  0.63144125558E+01  0.11248640230E+03  0.11820805404E+03  0.00000000000E+00 0.  1.
         14    1    4    4    0    0  0.54691747580E+02  0.61960169386E+02  0.88066577791E+03  0.88453516732E+03  0.00000000000E+00 0. -1.
         -5    1    5    5    0  501  0.12585245097E+02  0.48613083399E+02  0.24767682879E+03  0.25275981048E+03  0.47000000000E+01 0.  1.
         11    1    6    6    0    0 -0.10655974470E+03 -0.45458562812E+02  0.49874750044E+03  0.51202590688E+03  0.00000000000E+00 0. -1.
        -12    1    6    6    0    0  0.11241428992E+02 -0.21111935859E+02  0.10319674090E+03  0.10593229391E+03  0.00000000000E+00 0.  1.
</event>
<event>
12    1  0.1348628E-002  0.1743648E+03  0.7818608E-02  0.1173371E+00
          1   -1    0    0  502    0  0.00000000000E+00  0.00000000000E+00  0.16513118285E+04  0.16513118285E+04  0.00000000000E+00 0.  1.
         -1   -1    0    0    0  501 -0.00000000000E+00 -0.00000000000E+00 -0.21063828238E+02  0.21063828238E+02  0.00000000000E+00 0. -1.
          6    2    1    2  502    0  0.19993070716E+02 -0.32066810300E+02  0.11159500875E+04  0.11296473949E+04  0.17126189226E+03 0.  0.
         24    2    3    3    0    0 -0.67825497937E+01 -0.71588506399E+02  0.97305440319E+03  0.97891529838E+03  0.79179369867E+02 0.  0.
         -6    2    1    2    0  501 -0.19993070716E+02  0.32066810300E+02  0.51429791276E+03  0.54272826187E+03  0.16918516473E+03 0.  0.
        -24    2    5    5    0    0 -0.37954432064E+02  0.44007504372E+02  0.16092256563E+03  0.18866411989E+03  0.79503953679E+02 0.  0.
          5    1    3    3  502    0  0.26775620510E+02  0.39521696099E+02  0.14289568435E+03  0.15073209653E+03  0.47000000000E+01 0. -1.
        -13    1    4    4    0    0 -0.13361047233E+01 -0.52078189971E+02  0.92863646154E+03  0.93009655453E+03  0.00000000000E+00 0.  1.
         14    1    4    4    0    0 -0.54464450704E+01 -0.19510316429E+02  0.44417941645E+02  0.48818743849E+02  0.00000000000E+00 0. -1.
         -5    1    5    5    0  501  0.17961361348E+02 -0.11940694072E+02  0.35337534713E+03  0.35406414198E+03  0.47000000000E+01 0.  1.
         13    1    6    6    0    0 -0.19735295185E+02 -0.15383891388E+02  0.12939891418E+02  0.28170672341E+02  0.00000000000E+00 0. -1.
        -14    1    6    6    0    0 -0.18219136880E+02  0.59391395760E+02  0.14798267421E+03  0.16049344755E+03  0.00000000000E+00 0.  1.
</event>
<event>
12    1  0.1348628E-002  0.2299884E+03  0.7818608E-02  0.1126648E+00
         -1   -1    0    0    0  501 -0.00000000000E+00  0.00000000000E+00  0.17750483420E+02  0.17750483420E+02  0.00000000000E+00 0. -1.
          1   -1    0    0  502    0  0.00000000000E+00 -0.00000000000E+00 -0.30278389223E+04  0.30278389223E+04  0.00000000000E+00 0.  1.
          6    2    1    2  502    0  0.25634927255E+02  0.14881930856E+03 -0.16875450953E+04  0.17029597561E+04  0.17163666955E+03 0.  0.
         24    2    3    3    0    0  0.66440882798E+02  0.49163164493E+02 -0.99099712070E+03  0.99812102001E+03  0.85667203183E+02 0.  0.
         -6    2    1    2    0  501 -0.25634927255E+02 -0.14881930856E+03 -0.13225433436E+04  0.13426296496E+04  0.17529730213E+03 0.  0.
        -24    2    5    5    0    0 -0.64381307326E+02 -0.62077352136E+02 -0.48071006440E+03  0.49543970102E+03  0.79873530971E+02 0.  0.
          5    1    3    3  502    0 -0.40805955543E+02  0.99656144063E+02 -0.69654797456E+03  0.70483873611E+03  0.47000000000E+01 0. -1.
        -13    1    4    4    0    0 -0.51537875826E+01 -0.24331211801E+01 -0.44511806294E+03  0.44515454795E+03  0.00000000000E+00 0.  1.
         14    1    4    4    0    0  0.71594670380E+02  0.51596285673E+02 -0.54587905776E+03  0.55296647206E+03  0.00000000000E+00 0. -1.
         -5    1    5    5    0  501  0.38746380071E+02 -0.86741956420E+02 -0.84183327919E+03  0.84718994855E+03  0.47000000000E+01 0.  1.
         11    1    6    6    0    0 -0.19218367110E+02 -0.86939361778E+01 -0.18764488586E+02  0.28231829422E+02  0.00000000000E+00 0. -1.
        -12    1    6    6    0    0 -0.45162940217E+02 -0.53383415958E+02 -0.46194557582E+03  0.46720787160E+03  0.00000000000E+00 0.  1.
</event>
<event>
12    1  0.1348628E-002  0.3406161E+03  0.7818608E-02  0.1066534E+00
          1   -1    0    0  502    0  0.00000000000E+00  0.00000000000E+00  0.82199569349E+03  0.82199569349E+03  0.00000000000E+00 0.  1.
         -1   -1    0    0    0  501 -0.00000000000E+00 -0.00000000000E+00 -0.23613771407E+03  0.23613771407E+03  0.00000000000E+00 0. -1.
          6    2    1    2  502    0 -0.29317569429E+03  0.13813420841E+02  0.62828609381E+03  0.71448478455E+03  0.17205317014E+03 0.  0.
         24    2    3    3    0    0 -0.10590496366E+03 -0.30029344807E+02  0.31007842077E+03  0.34263706325E+03  0.95571476959E+02 0.  0.
         -6    2    1    2    0  501  0.29317569429E+03 -0.13813420841E+02 -0.42428114392E+02  0.34364862302E+03  0.17364167959E+03 0.  0.
        -24    2    5    5    0    0  0.29434693992E+03 -0.11924995773E+01 -0.70133188892E+02  0.31282135225E+03  0.79353583061E+02 0.  0.
          5    1    3    3  502    0 -0.18727073063E+03  0.43842765649E+02  0.31820767303E+03  0.37184772129E+03  0.47000000000E+01 0. -1.
        -13    1    4    4    0    0 -0.85147483899E+02 -0.55656631737E+02  0.28035702895E+03  0.29824120834E+03  0.00000000000E+00 0.  1.
         14    1    4    4    0    0 -0.20757479763E+02  0.25627286930E+02  0.29721391820E+02  0.44395854910E+02  0.00000000000E+00 0. -1.
         -5    1    5    5    0  501 -0.11712456282E+01 -0.12620921264E+02  0.27705074499E+02  0.30827270766E+02  0.47000000000E+01 0.  1.
         11    1    6    6    0    0  0.95472358654E+02  0.36882561020E+02 -0.25354500488E+02  0.10544261600E+03  0.00000000000E+00 0. -1.
        -12    1    6    6    0    0  0.19887458127E+03 -0.38075060597E+02 -0.44778688404E+02  0.20737873625E+03  0.00000000000E+00 0.  1.
</event>
<event>
12    1  0.1348628E-002  0.2054018E+03  0.7818608E-02  0.1145260E+00
          2   -1    0    0  502    0  0.00000000000E+00  0.00000000000E+00  0.23301719807E+03  0.23301719807E+03  0.00000000000E+00 0. -1.
         -2   -1    0    0    0  501 -0.00000000000E+00 -0.00000000000E+00 -0.20336666411E+03  0.20336666411E+03  0.00000000000E+00 0.  1.
          6    2    1    2  502    0 -0.85187174031E+01  0.11083868868E+03  0.87020044967E+02  0.22218520963E+03  0.17156921547E+03 0.  0.
         24    2    3    3    0    0 -0.55465734690E+02  0.10531621810E+03  0.27992681312E+02  0.14641688001E+03  0.80537935314E+02 0.  0.
         -6    2    1    2    0  501  0.85187174031E+01 -0.11083868868E+03 -0.57369511009E+02  0.21419865255E+03  0.17387357047E+03 0.  0.
        -24    2    5    5    0    0  0.47697242413E+02 -0.86078652320E+02 -0.91330701386E+02  0.15654911939E+03  0.80509430787E+02 0.  0.
          5    1    3    3  502    0  0.46947017287E+02  0.55224705829E+01  0.59027363656E+02  0.75768329621E+02  0.47000000000E+01 0. -1.
        -13    1    4    4    0    0  0.38171464737E+01 -0.11080251280E+02  0.81970187443E+01  0.14301527608E+02  0.00000000000E+00 0.  1.
         14    1    4    4    0    0 -0.59282881164E+02  0.11639646938E+03  0.19795662567E+02  0.13211535240E+03  0.00000000000E+00 0. -1.
         -5    1    5    5    0  501 -0.39178525010E+02 -0.24760036365E+02  0.33961190377E+02  0.57649533169E+02  0.47000000000E+01 0.  1.
         11    1    6    6    0    0  0.17266824422E+02 -0.48472169407E+02 -0.94993408055E+02  0.10803444824E+03  0.00000000000E+00 0. -1.
        -12    1    6    6    0    0  0.30430417991E+02 -0.37606482913E+02  0.36627066690E+01  0.48514671145E+02  0.00000000000E+00 0.  1.
</event>
<event>
12    1  0.1348628E-002  0.1765265E+03  0.7818608E-02  0.1171208E+00
         -4   -1    0    0    0  501 -0.00000000000E+00  0.00000000000E+00  0.13968835898E+03  0.13968835898E+03  0.00000000000E+00 0.  1.
          4   -1    0    0  502    0  0.00000000000E+00 -0.00000000000E+00 -0.61626634933E+03  0.61626634933E+03  0.00000000000E+00 0. -1.
          6    2    1    2  502    0 -0.57786359526E+02 -0.13247861894E+02  0.61130768555E+02  0.19149361213E+03  0.17151694794E+03 0.  0.
         24    2    3    3    0    0  0.33424218137E+02 -0.22166706335E+02  0.20779748716E+02  0.91247863765E+02  0.79283248276E+02 0.  0.
         -6    2    1    2    0  501  0.57786359526E+02  0.13247861894E+02 -0.53770875891E+03  0.56446109617E+03  0.16115474084E+03 0.  0.
        -24    2    5    5    0    0  0.81284244222E+02  0.42891098873E+02 -0.47980861118E+03  0.49514018165E+03  0.80627051290E+02 0.  0.
          5    1    3    3  502    0 -0.91210577663E+02  0.89188444412E+01  0.40351019839E+02  0.10024574837E+03  0.47000000000E+01 0. -1.
        -13    1    4    4    0    0 -0.49867513542E+01  0.10037946525E+01  0.41517485890E+02  0.41827944336E+02  0.00000000000E+00 0.  1.
         14    1    4    4    0    0  0.38410969491E+02 -0.23170500988E+02 -0.20737737173E+02  0.49419919429E+02  0.00000000000E+00 0. -1.
         -5    1    5    5    0  501 -0.23497884696E+02 -0.29643236979E+02 -0.57900147727E+02  0.69320914525E+02  0.47000000000E+01 0.  1.
         11    1    6    6    0    0  0.54160574848E+02 -0.31324905048E+01 -0.12406653926E+03  0.13540932955E+03  0.00000000000E+00 0. -1.
        -12    1    6    6    0    0  0.27123669373E+02  0.46023589378E+02 -0.35574207192E+03  0.35973085210E+03  0.00000000000E+00 0.  1.
</event>
<event>
12    1  0.1348628E-002  0.1870337E+03  0.7818608E-02  0.1161164E+00
          2   -1    0    0  502    0  0.00000000000E+00  0.00000000000E+00  0.23440632194E+04  0.23440632194E+04  0.00000000000E+00 0. -1.
         -2   -1    0    0    0  501 -0.00000000000E+00 -0.00000000000E+00 -0.19439711124E+02  0.19439711124E+02  0.00000000000E+00 0.  1.
          6    2    1    2  502    0 -0.39675897070E+02 -0.57338195055E+02  0.17366617071E+04  0.17468121411E+04  0.17463369074E+03 0.  0.
         24    2    3    3    0    0 -0.18849552295E+02 -0.45648931421E+02  0.45020691702E+03  0.46012710098E+03  0.81188363484E+02 0.  0.
         -6    2    1    2    0  501  0.39675897070E+02  0.57338195055E+02  0.58796180119E+03  0.61669078944E+03  0.17247204036E+03 0.  0.
        -24    2    5    5    0    0  0.23377014279E+02 -0.38456513162E+02  0.36221410597E+03  0.37087298781E+03  0.65744401461E+02 0.  0.
          5    1    3    3  502    0 -0.20826344774E+02 -0.11689263634E+02  0.12864547901E+04  0.12866850401E+04  0.47000000000E+01 0. -1.
        -11    1    4    4    0    0 -0.31520256721E+02 -0.53781921702E+02  0.43212101720E+03  0.43659431420E+03  0.00000000000E+00 0.  1.
         12    1    4    4    0    0  0.12670704425E+02  0.81329902813E+01  0.18085899824E+02  0.23532786788E+02  0.00000000000E+00 0. -1.
         -5    1    5    5    0  501  0.16298882791E+02  0.95794708217E+02  0.22574769522E+03  0.24581780163E+03  0.47000000000E+01 0.  1.
         13    1    6    6    0    0  0.27100383686E+02  0.24286994624E+01  0.24830672976E+03  0.24979303718E+03  0.00000000000E+00 0. -1.
        -14    1    6    6    0    0 -0.37233694066E+01 -0.40885212624E+02  0.11390737620E+03  0.12107995063E+03  0.00000000000E+00 0.  1.
</event>
<event>
12    1  0.1348628E-002  0.2727006E+03  0.7818608E-02  0.1099744E+00
          1   -1    0    0  502    0  0.00000000000E+00  0.00000000000E+00  0.45013214422E+03  0.45013214422E+03  0.00000000000E+00 0.  1.
         -1   -1    0    0    0  501 -0.00000000000E+00 -0.00000000000E+00 -0.17350702000E+03  0.17350702000E+03  0.00000000000E+00 0. -1.
          6    2    1    2  502    0  0.19192405412E+03 -0.91624228005E+02  0.70356459107E+02  0.28210335431E+03  0.17147136633E+03 0.  0.
         24    2    3    3    0    0  0.17261377457E+03 -0.23392724949E+02  0.16568413643E+02  0.19297609282E+03  0.81378899721E+02 0.  0.
         -6    2    1    2    0  501 -0.19192405412E+03  0.91624228005E+02  0.20626866511E+03  0.34153580990E+03  0.16991205235E+03 0.  0.
        -24    2    5    5    0    0 -0.18377613095E+03  0.12581866578E+03  0.18131897788E+03  0.29817424721E+03  0.80170487053E+02 0.  0.
          5    1    3    3  502    0  0.19310279550E+02 -0.68231503056E+02  0.53788045465E+02  0.89127261488E+02  0.47000000000E+01 0. -1.
        -13    1    4    4    0    0  0.16806572955E+02  0.23910331131E+02  0.57593457377E+01  0.29788166990E+02  0.00000000000E+00 0.  1.
         14    1    4    4    0    0  0.15580720161E+03 -0.47303056081E+02  0.10809067905E+02  0.16318792583E+03  0.00000000000E+00 0. -1.
         -5    1    5    5    0  501 -0.81479231668E+01 -0.34194437773E+02  0.24949687224E+02  0.43361562692E+02  0.47000000000E+01 0.  1.
         11    1    6    6    0    0 -0.25375042867E+02 -0.85759572648E+01  0.35047905485E+02  0.44111172308E+02  0.00000000000E+00 0. -1.
        -12    1    6    6    0    0 -0.15840108808E+03  0.13439462304E+03  0.14627107240E+03  0.25406307490E+03  0.00000000000E+00 0.  1.
</event>
<event>
12    1  0.1348628E-002  0.1912796E+03  0.7818608E-02  0.1157312E+00
          1   -1    0    0  502    0  0.00000000000E+00  0.00000000000E+00  0.22910377177E+04  0.22910377177E+04  0.00000000000E+00 0.  1.
         -1   -1    0    0    0  501 -0.00000000000E+00 -0.00000000000E+00 -0.30686842207E+02  0.30686842207E+02  0.00000000000E+00 0. -1.
          6    2    1    2  502    0 -0.81523753711E+02 -0.16271962225E+02  0.19337682480E+04  0.19431950658E+04  0.17215262918E+03 0.  0.
         24    2    3    3    0    0 -0.11163745121E+03 -0.35721791103E+02  0.17624796448E+04  0.17681322023E+04  0.78854419159E+02 0.  0.
         -6    2    1    2    0  501  0.81523753711E+02  0.16271962225E+02  0.32658262756E+03  0.37852949414E+03  0.17238754635E+03 0.  0.
        -24    2    5    5    0    0  0.12183321095E+03  0.46102824269E+01  0.27719248890E+03  0.31355009036E+03  0.81322796710E+02 0.  0.
          5    1    3    3  502    0  0.30113697496E+02  0.19449828878E+02  0.17128860315E+03  0.17506286353E+03  0.47000000000E+01 0. -1.
        -13    1    4    4    0    0 -0.18485207568E+02 -0.19759835090E+02  0.91483006208E+03  0.91523013306E+03  0.00000000000E+00 0.  1.
         14    1    4    4    0    0 -0.93152243639E+02 -0.15961956013E+02  0.84764958276E+03  0.85290206922E+03  0.00000000000E+00 0. -1.
         -5    1    5    5    0  501 -0.40309457243E+02  0.11661679798E+02  0.49390138657E+02  0.64979403779E+02  0.47000000000E+01 0.  1.
         11    1    6    6    0    0 -0.99421689599E+01  0.10611396154E+02  0.31150158982E+02  0.34377039672E+02  0.00000000000E+00 0. -1.
        -12    1    6    6    0    0  0.13177537991E+03 -0.60011137271E+01  0.24604232992E+03  0.27917305068E+03  0.00000000000E+00 0.  1.
</event>
<event>
12    1  0.1348628E-002  0.2709979E+03  0.7818608E-02  0.1100710E+00
          2   -1    0    0  502    0  0.00000000000E+00  0.00000000000E+00  0.10323153299E+04  0.10323153299E+04  0.00000000000E+00 0.  1.
         -2   -1    0    0    0  501 -0.00000000000E+00 -0.00000000000E+00 -0.35820427933E+03  0.35820427933E+03  0.00000000000E+00 0. -1.
          6    2    1    2  502    0  0.18928712366E+03 -0.88894916650E+02  0.95896339140E+03  0.99598763384E+03  0.16925914841E+03 0.  0.
         24    2    3    3    0    0  0.14380979552E+03 -0.12822451274E+03  0.77504575948E+03  0.80243456661E+03  0.77990521495E+02 0.  0.
         -6    2    1    2    0  501 -0.18928712366E+03  0.88894916650E+02 -0.28485234085E+03  0.39453197538E+03  0.17544999891E+03 0.  0.
        -24    2    5    5    0    0 -0.12642513789E+03  0.40285842499E+02 -0.27312564026E+03  0.31407032705E+03  0.80226494186E+02 0.  0.
          5    1    3    3  502    0  0.45477328145E+02  0.39329596088E+02  0.18391763192E+03  0.19355306723E+03  0.47000000000E+01 0. -1.
        -11    1    4    4    0    0  0.35465756081E+02  0.39971481343E+01  0.16991028540E+03  0.17361826555E+03  0.00000000000E+00 0.  1.
         12    1    4    4    0    0  0.10834403944E+03 -0.13222166087E+03  0.60513547408E+03  0.62881630106E+03  0.00000000000E+00 0. -1.
         -5    1    5    5    0  501 -0.62861985773E+02  0.48609074151E+02 -0.11726700593E+02  0.80461648330E+02  0.47000000000E+01 0.  1.
         11    1    6    6    0    0 -0.94636136543E+02  0.61842038769E+02 -0.23025470294E+03  0.25651055402E+03  0.00000000000E+00 0. -1.
        -12    1    6    6    0    0 -0.31789001346E+02 -0.21556196270E+02 -0.42870937317E+02  0.57559773024E+02  0.00000000000E+00 0.  1.
</event>
<event>
12    1  0.1348628E-002  0.2665300E+03  0.7818608E-02  0.1103282E+00
         -2   -1    0    0    0  501 -0.00000000000E+00  0.00000000000E+00  0.10640663924E+03  0.10640663924E+03  0.00000000000E+00 0.  1.
          2   -1    0    0  502    0  0.00000000000E+00 -0.00000000000E+00 -0.99126163781E+03  0.99126163781E+03  0.00000000000E+00 0. -1.
          6    2    1    2  502    0  0.84738628305E+02  0.18372147152E+03 -0.13028851634E+03  0.29784493395E+03  0.17550582031E+03 0.  0.
         24    2    3    3    0    0  0.37525117083E+02  0.20033961989E+03 -0.91155101738E+02  0.23413627962E+03  0.70473024310E+02 0.  0.
         -6    2    1    2    0  501 -0.84738628305E+02 -0.18372147152E+03 -0.75456648223E+03  0.79982334310E+03  0.17150099075E+03 0.  0.
        -24    2    5    5    0    0 -0.96348384383E+02 -0.20389620441E+03 -0.65179888320E+03  0.69434786873E+03  0.80128055728E+02 0.  0.
          5    1    3    3  502    0  0.47213511223E+02 -0.16618148367E+02 -0.39133414601E+02  0.63708654321E+02  0.47000000000E+01 0. -1.
        -13    1    4    4    0    0  0.50683381120E+02  0.10193786642E+03 -0.30736040359E+02  0.11791877675E+03  0.00000000000E+00 0.  1.
         14    1    4    4    0    0 -0.13158264037E+02  0.98401753465E+02 -0.60419061379E+02  0.11621750288E+03  0.00000000000E+00 0. -1.
         -5    1    5    5    0  501  0.11609756077E+02  0.20174732889E+02 -0.10276759903E+03  0.10547547437E+03  0.47000000000E+01 0.  1.
         13    1    6    6    0    0 -0.54462684693E+02 -0.11630045055E+03 -0.48132452888E+03  0.49816190232E+03  0.00000000000E+00 0. -1.
        -14    1    6    6    0    0 -0.41885699689E+02 -0.87595753861E+02 -0.17047435433E+03  0.19618596641E+03  0.00000000000E+00 0.  1.
</event>
<event>
12    1  0.1348628E-002  0.2268940E+03  0.7818608E-02  0.1128845E+00
         -2   -1    0    0    0  501 -0.00000000000E+00  0.00000000000E+00  0.22168726297E+03  0.22168726297E+03  0.00000000000E+00 0. -1.
          2   -1    0    0  502    0  0.00000000000E+00 -0.00000000000E+00 -0.48264939084E+03  0.48264939084E+03  0.00000000000E+00 0.  1.
          6    2    1    2  502    0  0.12686999008E+03 -0.75906291711E+02  0.12314771131E+03  0.25829996644E+03  0.17232456110E+03 0.  0.
         24    2    3    3    0    0 -0.83248707167E+01 -0.24805650166E+02  0.38653701644E+02  0.90817867035E+02  0.77904766025E+02 0.  0.
         -6    2    1    2    0  501 -0.12686999008E+03  0.75906291711E+02 -0.38410983917E+03  0.44603668737E+03  0.17190287499E+03 0.  0.
        -24    2    5    5    0    0 -0.10817757913E+02  0.21449105724E+02 -0.23486746073E+03  0.24923962637E+03  0.79878527907E+02 0.  0.
          5    1    3    3  502    0  0.13519486080E+03 -0.51100641545E+02  0.84494009663E+02  0.16748209941E+03  0.47000000000E+01 0. -1.
        -11    1    4    4    0    0  0.14169063261E+02 -0.14734334818E+02 -0.19130615260E+02  0.27997203726E+02  0.00000000000E+00 0.  1.
         12    1    4    4    0    0 -0.22493933978E+02 -0.10071315348E+02  0.57784316903E+02  0.62820663309E+02  0.00000000000E+00 0. -1.
         -5    1    5    5    0  501 -0.11605223217E+03  0.54457185987E+02 -0.14924237844E+03  0.19679706101E+03  0.47000000000E+01 0.  1.
         13    1    6    6    0    0 -0.51422044609E+01  0.41108904190E+02 -0.58472930427E+02  0.71662178750E+02  0.00000000000E+00 0. -1.
        -14    1    6    6    0    0 -0.56755534525E+01 -0.19659798466E+02 -0.17639453030E+03  0.17757744762E+03  0.00000000000E+00 0.  1.
</event>
<event>
12    1  0.1348628E-002  0.1896807E+03  0.7818608E-02  0.1158750E+00
         -1   -1    0    0    0  501 -0.00000000000E+00  0.00000000000E+00  0.72499133204E+02  0.72499133204E+02  0.00000000000E+00 0.  1.
          1   -1    0    0  502    0  0.00000000000E+00 -0.00000000000E+00 -0.49853743013E+03  0.49853743013E+03  0.00000000000E+00 0. -1.
          6    2    1    2  502    0 -0.72155180571E+02 -0.33320296814E+02 -0.23265125980E+03  0.30037951702E+03  0.17258225081E+03 0.  0.
         24    2    3    3    0    0  0.18631956522E+01 -0.67094156541E+02 -0.16119633326E+03  0.19199460042E+03  0.79828387148E+02 0.  0.
         -6    2    1    2    0  501  0.72155180571E+02  0.33320296814E+02 -0.19338703713E+03  0.27065704631E+03  0.17187227330E+03 0.  0.
        -24    2    5    5    0    0  0.17057160622E+02  0.23391752162E+02 -0.24552557200E+02  0.92720149035E+02  0.84593600079E+02 0.  0.
          5    1    3    3  502    0 -0.74018376223E+02  0.33773859727E+02 -0.71454926547E+02  0.10838491660E+03  0.47000000000E+01 0. -1.
        -13    1    4    4    0    0 -0.17111353001E+02 -0.25934249472E+02 -0.77888417700E+01  0.32032011384E+02  0.00000000000E+00 0.  1.
         14    1    4    4    0    0  0.18974548653E+02 -0.41159907069E+02 -0.15340749149E+03  0.15996258904E+03  0.00000000000E+00 0. -1.
         -5    1    5    5    0  501  0.55098019949E+02  0.99285446518E+01 -0.16883447993E+03  0.17793689728E+03  0.47000000000E+01 0.  1.
         13    1    6    6    0    0 -0.31280174811E+02  0.66314533682E+00 -0.23782865440E+02  0.39300302626E+02  0.00000000000E+00 0. -1.
        -14    1    6    6    0    0  0.48337335433E+02  0.22728606825E+02 -0.76969175984E+00  0.53419846409E+02  0.00000000000E+00 0.  1.
</event>
<event>
12    1  0.1348628E-002  0.2536156E+03  0.7818608E-02  0.1111041E+00
         -2   -1    0    0    0  501 -0.00000000000E+00  0.00000000000E+00  0.11977038249E+03  0.11977038249E+03  0.00000000000E+00 0.  1.
          2   -1    0    0  502    0  0.00000000000E+00 -0.00000000000E+00 -0.65373304441E+03  0.65373304441E+03  0.00000000000E+00 0. -1.
          6    2    1    2  502    0  0.15671402770E+03  0.10265029515E+03 -0.10367413338E+03  0.27409159195E+03  0.17111839549E+03 0.  0.
         24    2    3    3    0    0  0.67382878977E+02  0.81236744108E+02  0.98589312306E+00  0.13475600623E+03  0.83775582704E+02 0.  0.
         -6    2    1    2    0  501 -0.15671402770E+03 -0.10265029515E+03 -0.43028852854E+03  0.49941183495E+03  0.17078522632E+03 0.  0.
        -24    2    5    5    0    0 -0.19112150199E+02 -0.14488134557E+02 -0.98077987510E+02  0.12915141738E+03  0.80533326324E+02 0.  0.
          5    1    3    3  502    0  0.89331148723E+02  0.21413551037E+02 -0.10466002651E+03  0.13933558572E+03  0.47000000000E+01 0. -1.
        -11    1    4    4    0    0  0.81552278701E+02  0.82078420619E+02 -0.10934094450E+02  0.11622046168E+03  0.00000000000E+00 0.  1.
         12    1    4    4    0    0 -0.14169399723E+02 -0.84167651111E+00  0.11919987573E+02  0.18535544546E+02  0.00000000000E+00 0. -1.
         -5    1    5    5    0  501 -0.13760187750E+03 -0.88162160588E+02 -0.33221054103E+03  0.37026041757E+03  0.47000000000E+01 0.  1.
         13    1    6    6    0    0 -0.12479732407E+02 -0.33095275715E+02 -0.10290701697E+03  0.10881587723E+03  0.00000000000E+00 0. -1.
        -14    1    6    6    0    0 -0.66324177911E+01  0.18607141158E+02  0.48290294562E+01  0.20335540153E+02  0.00000000000E+00 0.  1.
</event>
<event>
12    1  0.1348628E-002  0.2103418E+03  0.7818608E-02  0.1141296E+00
          4   -1    0    0  502    0  0.00000000000E+00  0.00000000000E+00  0.89120638631E+03  0.89120638631E+03  0.00000000000E+00 0. -1.
         -4   -1    0    0    0  501 -0.00000000000E+00 -0.00000000000E+00 -0.57152480687E+02  0.57152480687E+02  0.00000000000E+00 0.  1.
          6    2    1    2  502    0  0.11947634724E+03  0.12704758148E+02  0.24563926024E+03  0.32357094709E+03  0.17298411257E+03 0.  0.
         24    2    3    3    0    0  0.79833751317E+02 -0.14390059865E+02  0.53515744100E+02  0.12548207807E+03  0.79380825007E+02 0.  0.
         -6    2    1    2    0  501 -0.11947634724E+03 -0.12704758148E+02  0.58841464538E+03  0.62478791991E+03  0.17231407815E+03 0.  0.
        -24    2    5    5    0    0 -0.52585629434E+02 -0.26412483688E+02  0.14400296585E+03  0.17513683209E+03  0.80456125083E+02 0.  0.
          5    1    3    3  502    0  0.39642595922E+02  0.27094818013E+02  0.19212351614E+03  0.19808886902E+03  0.47000000000E+01 0. -1.
        -13    1    4    4    0    0  0.24412166042E+02 -0.14103123664E+02 -0.19158270644E+02  0.34086526400E+02  0.00000000000E+00 0.  1.
         14    1    4    4    0    0  0.55421585275E+02 -0.28693620027E+00  0.72674014743E+02  0.91395551673E+02  0.00000000000E+00 0. -1.
         -5    1    5    5    0  501 -0.66890717804E+02  0.13707725540E+02  0.44441167954E+03  0.44965108782E+03  0.47000000000E+01 0.  1.
         11    1    6    6    0    0 -0.30040019693E+01 -0.46013481687E+02  0.73028386341E+02  0.86367874447E+02  0.00000000000E+00 0. -1.
        -12    1    6    6    0    0 -0.49581627465E+02  0.19600997999E+02  0.70974579504E+02  0.88768957639E+02  0.00000000000E+00 0.  1.
</event>
<event>
12    1  0.1348628E-002  0.1729210E+03  0.7818608E-02  0.1174835E+00
          2   -1    0    0  502    0  0.00000000000E+00  0.00000000000E+00  0.11467209213E+04  0.11467209213E+04  0.00000000000E+00 0.  1.
         -2   -1    0    0    0  501 -0.00000000000E+00 -0.00000000000E+00 -0.40007621216E+02  0.40007621216E+02  0.00000000000E+00 0. -1.
          6    2    1    2  502    0  0.65243764443E+01  0.92978775697E+01  0.20146412208E+03  0.26495315040E+03  0.17170719672E+03 0.  0.
         24    2    3    3    0    0  0.31615502996E+02  0.29473722023E+02  0.21101726427E+03  0.23104176799E+03  0.83568968028E+02 0.  0.
         -6    2    1    2    0  501 -0.65243764443E+01 -0.92978775697E+01  0.90524917805E+03  0.92177539216E+03  0.17339198718E+03 0.  0.
        -24    2    5    5    0    0 -0.44447243755E+01  0.54744218857E+02  0.36670199869E+03  0.37940939999E+03  0.80401815177E+02 0.  0.
          5    1    3    3  502    0 -0.25091126552E+02 -0.20175844453E+02 -0.95531421926E+01  0.33911382408E+02  0.47000000000E+01 0. -1.
        -13    1    4    4    0    0  0.58011066677E+02  0.63749524117E+01  0.11831150553E+03  0.13192246289E+03  0.00000000000E+00 0.  1.
         14    1    4    4    0    0 -0.26395563680E+02  0.23098769611E+02  0.92705758739E+02  0.99119305097E+02  0.00000000000E+00 0. -1.
         -5    1    5    5    0  501 -0.20796520689E+01 -0.64042096427E+02  0.53854717936E+03  0.54236599217E+03  0.47000000000E+01 0.  1.
         13    1    6    6    0    0  0.74620555658E+01  0.52983646660E+02  0.36284697661E+03  0.36677087878E+03  0.00000000000E+00 0. -1.
        -14    1    6    6    0    0 -0.11906779941E+02  0.17605721975E+01  0.38550220766E+01  0.12638521205E+02  0.00000000000E+00 0.  1.
</event>
<event>
12    1  0.1348628E-002  0.1789721E+03  0.7818608E-02  0.1168802E+00
          1   -1    0    0  502    0  0.00000000000E+00  0.00000000000E+00  0.65608416457E+03  0.65608416457E+03  0.00000000000E+00 0. -1.
         -1   -1    0    0    0  501 -0.00000000000E+00 -0.00000000000E+00 -0.48837759810E+02  0.48837759810E+02  0.00000000000E+00 0.  1.
          6    2    1    2  502    0 -0.35484962358E+02 -0.31947381396E+02  0.29643103099E+03  0.34601552274E+03  0.17197548695E+03 0.  0.
         24    2    3    3    0    0  0.21686641446E+02  0.27751690956E+02  0.20430846079E+03  0.22215580588E+03  0.79817217232E+02 0.  0.
         -6    2    1    2    0  501  0.35484962358E+02  0.31947381396E+02  0.31081537377E+03  0.35890640164E+03  0.17299650527E+03 0.  0.
        -24    2    5    5    0    0  0.73727100139E+02  0.71781106505E+02  0.22473034748E+03  0.25652520947E+03  0.68653051425E+02 0.  0.
          5    1    3    3  502    0 -0.57171603804E+02 -0.59699072352E+02  0.92122570204E+02  0.12385971687E+03  0.47000000000E+01 0. -1.
        -13    1    4    4    0    0  0.49319623485E+02  0.98650809084E+01  0.15426276102E+03  0.16225518334E+03  0.00000000000E+00 0.  1.
         14    1    4    4    0    0 -0.27632982039E+02  0.17886610048E+02  0.50045699770E+02  0.59900622541E+02  0.00000000000E+00 0. -1.
         -5    1    5    5    0  501 -0.38242137781E+02 -0.39833725110E+02  0.86085026288E+02  0.10238119217E+03  0.47000000000E+01 0.  1.
         11    1    6    6    0    0  0.39207940625E+02  0.15509614748E+02  0.15445169963E+03  0.16010352363E+03  0.00000000000E+00 0. -1.
        -12    1    6    6    0    0  0.34519159514E+02  0.56271491758E+02  0.70278647845E+02  0.96421685844E+02  0.00000000000E+00 0.  1.
</event>
<event>
12    1  0.1348628E-002  0.3920350E+03  0.7818608E-02  0.1046573E+00
          1   -1    0    0  502    0  0.00000000000E+00  0.00000000000E+00  0.26046911666E+03  0.26046911666E+03  0.00000000000E+00 0.  1.
         -1   -1    0    0    0  501 -0.00000000000E+00 -0.00000000000E+00 -0.59413837895E+03  0.59413837895E+03  0.00000000000E+00 0. -1.
          6    2    1    2  502    0  0.20924655403E+03  0.28327253019E+03 -0.20219328814E+03  0.44097960101E+03  0.17191112822E+03 0.  0.
         24    2    3    3    0    0  0.38788724440E+02  0.11485526463E+03 -0.12191364240E+03  0.18822050913E+03  0.76601089403E+02 0.  0.
         -6    2    1    2    0  501 -0.20924655403E+03 -0.28327253019E+03 -0.13147597415E+03  0.41362789460E+03  0.17255334445E+03 0.  0.
        -24    2    5    5    0    0 -0.20008824978E+03 -0.29950663584E+03 -0.13686599550E+03  0.39366385060E+03  0.80618818684E+02 0.  0.
          5    1    3    3  502    0  0.17045782959E+03  0.16841726556E+03 -0.80279645738E+02  0.25275909188E+03  0.47000000000E+01 0. -1.
        -11    1    4    4    0    0  0.26408305484E+02  0.28826520733E+02 -0.74314101371E+00  0.39101395815E+02  0.00000000000E+00 0.  1.
         12    1    4    4    0    0  0.12380418956E+02  0.86028743898E+02 -0.12117050139E+03  0.14911911332E+03  0.00000000000E+00 0. -1.
         -5    1    5    5    0  501 -0.91583042482E+01  0.16234105650E+02  0.53900213532E+01  0.19964044007E+02  0.47000000000E+01 0.  1.
         13    1    6    6    0    0 -0.17722483537E+03 -0.21872393816E+03 -0.12798591179E+03  0.30923970802E+03  0.00000000000E+00 0. -1.
        -14    1    6    6    0    0 -0.22863414408E+02 -0.80782697682E+02 -0.88800837098E+01  0.84424142577E+02  0.00000000000E+00 0.  1.
</event>
<event>
12    1  0.1348628E-002  0.1990099E+03  0.7818608E-02  0.1150577E+00
          2   -1    0    0  502    0  0.00000000000E+00  0.00000000000E+00  0.44653563086E+04  0.44653563086E+04  0.00000000000E+00 0. -1.
         -2   -1    0    0    0  501 -0.00000000000E+00 -0.00000000000E+00 -0.90678503507E+01  0.90678503507E+01  0.00000000000E+00 0.  1.
          6    2    1    2  502    0  0.98254950963E+02 -0.20729033750E+02  0.25545797707E+04  0.25622878524E+04  0.17134032026E+03 0.  0.
         24    2    3    3    0    0  0.82215940613E+02 -0.69220058614E+02  0.13864065736E+04  0.13929892003E+04  0.82127019947E+02 0.  0.
         -6    2    1    2    0  501 -0.98254950963E+02  0.20729033750E+02  0.19017086875E+04  0.19121363066E+04  0.17229507940E+03 0.  0.
        -24    2    5    5    0    0 -0.33816289759E+02 -0.47125992657E+02  0.12331869341E+04  0.12370807011E+04  0.79083790521E+02 0.  0.
          5    1    3    3  502    0  0.16039010350E+02  0.48491024864E+02  0.11681731972E+04  0.11692986521E+04  0.47000000000E+01 0. -1.
        -13    1    4    4    0    0 -0.15942255753E+02 -0.13142305980E+02  0.14829607326E+03  0.14972842439E+03  0.00000000000E+00 0.  1.
         14    1    4    4    0    0  0.98158196366E+02 -0.56077752633E+02  0.12381105003E+04  0.12432607759E+04  0.00000000000E+00 0. -1.
         -5    1    5    5    0  501 -0.64438661203E+02  0.67855026407E+02  0.66852175343E+03  0.67505560547E+03  0.47000000000E+01 0.  1.
         11    1    6    6    0    0  0.25635686001E+02 -0.78312556683E+01  0.34273774985E+03  0.34378435412E+03  0.00000000000E+00 0. -1.
        -12    1    6    6    0    0 -0.59451975761E+02 -0.39294736989E+02  0.89044918426E+03  0.89329634698E+03  0.00000000000E+00 0.  1.
</event>
<event>
12    1  0.1348628E-002  0.2013888E+03  0.7818608E-02  0.1148573E+00
         -4   -1    0    0    0  501 -0.00000000000E+00  0.00000000000E+00  0.14695128765E+04  0.14695128765E+04  0.00000000000E+00 0. -1.
          4   -1    0    0  502    0  0.00000000000E+00 -0.00000000000E+00 -0.37994279474E+02  0.37994279474E+02  0.00000000000E+00 0.  1.
          6    2    1    2  502    0 -0.10130186469E+03 -0.88969514235E+01  0.11063893030E+04  0.11243207953E+04  0.17221712292E+03 0.  0.
         24    2    3    3    0    0 -0.52659598327E+02 -0.61498438076E+02  0.83796736550E+03  0.84646217477E+03  0.88055757843E+02 0.  0.
         -6    2    1    2    0  501  0.10130186469E+03  0.88969514235E+01  0.32512929404E+03  0.38318636068E+03  0.17544658913E+03 0.  0.
        -24    2    5    5    0    0  0.12303269332E+03  0.49585781156E+02  0.26539082870E+03  0.30756504081E+03  0.81044241321E+02 0.  0.
          5    1    3    3  502    0 -0.48642266359E+02  0.52601486652E+02  0.26842193746E+03  0.27785862050E+03  0.47000000000E+01 0. -1.
        -11    1    4    4    0    0  0.19750175048E+02 -0.17745099679E+02  0.93300322877E+02  0.97004681465E+02  0.00000000000E+00 0.  1.
         12    1    4    4    0    0 -0.72409773375E+02 -0.43753338397E+02  0.74466704262E+03  0.74945749330E+03  0.00000000000E+00 0. -1.
         -5    1    5    5    0  501 -0.21730828636E+02 -0.40688829733E+02  0.59738465344E+02  0.75621319876E+02  0.47000000000E+01 0.  1.
         13    1    6    6    0    0  0.61559885914E+02  0.62718401409E+02  0.19047097831E+03  0.20976751657E+03  0.00000000000E+00 0. -1.
        -14    1    6    6    0    0  0.61472807408E+02 -0.13132620252E+02  0.74919850391E+02  0.97797524242E+02  0.00000000000E+00 0.  1.
</event>
<event>
12    1  0.1348628E-002  0.1725544E+03  0.7818608E-02  0.1175210E+00
          1   -1    0    0  502    0  0.00000000000E+00  0.00000000000E+00  0.78736286254E+02  0.78736286254E+02  0.00000000000E+00 0. -1.
         -1   -1    0    0    0  501 -0.00000000000E+00 -0.00000000000E+00 -0.37921215039E+03  0.37921215039E+03  0.00000000000E+00 0.  1.
          6    2    1    2  502    0  0.19781787420E+02 -0.14084607774E+00 -0.16139192258E+03  0.23557150892E+03  0.17045598900E+03 0.  0.
         24    2    3    3    0    0 -0.18493334238E+02  0.53946523037E+02 -0.63588190884E+02  0.11734254305E+03  0.80458583326E+02 0.  0.
         -6    2    1    2    0  501 -0.19781787420E+02  0.14084607774E+00 -0.13908394155E+03  0.22237692772E+03  0.17238276084E+03 0.  0.
        -24    2    5    5    0    0  0.19613580706E+02  0.47339187128E+02 -0.32525905740E+02  0.99265663319E+02  0.78549641526E+02 0.  0.
          5    1    3    3  502    0  0.38275121658E+02 -0.54087369115E+02 -0.97803731696E+02  0.11822896586E+03  0.47000000000E+01 0. -1.
        -13    1    4    4    0    0  0.16227743941E+02  0.22847102266E+02 -0.64920815183E+02  0.70710975099E+02  0.00000000000E+00 0.  1.
         14    1    4    4    0    0 -0.34721078179E+02  0.31099420771E+02  0.13326242990E+01  0.46631567953E+02  0.00000000000E+00 0. -1.
         -5    1    5    5    0  501 -0.39395368126E+02 -0.47198341050E+02 -0.10655803581E+03  0.12311126441E+03  0.47000000000E+01 0.  1.
         11    1    6    6    0    0 -0.16177549218E+01  0.62219545717E+02 -0.65820673302E+01  0.62587639439E+02  0.00000000000E+00 0. -1.
        -12    1    6    6    0    0  0.21231335628E+02 -0.14880358589E+02 -0.25943838410E+02  0.36678023880E+02  0.00000000000E+00 0.  1.
</event>
<event>
12    1  0.1348628E-002  0.2431666E+03  0.7818608E-02  0.1117701E+00
          2   -1    0    0  502    0  0.00000000000E+00  0.00000000000E+00  0.55490908009E+03  0.55490908009E+03  0.00000000000E+00 0. -1.
         -2   -1    0    0    0  501 -0.00000000000E+00 -0.00000000000E+00 -0.14160152875E+03  0.14160152875E+03  0.00000000000E+00 0.  1.
          6    2    1    2  502    0  0.99349156461E+02 -0.14051813313E+03  0.33493715692E+02  0.24559837305E+03  0.17199166034E+03 0.  0.
         24    2    3    3    0    0  0.11783336129E+03 -0.52282990592E+02  0.36061468967E+02  0.15528896289E+03  0.78714803641E+02 0.  0.
         -6    2    1    2    0  501 -0.99349156461E+02  0.14051813313E+03  0.37981383565E+03  0.45091223579E+03  0.17160330420E+03 0.  0.
        -24    2    5    5    0    0 -0.82407953127E+02  0.43630838951E+02  0.11459398865E+03  0.16800269304E+03  0.79990010542E+02 0.  0.
          5    1    3    3  502    0 -0.18484204829E+02 -0.88235142537E+02 -0.25677532753E+01  0.90309410161E+02  0.47000000000E+01 0. -1.
        -11    1    4    4    0    0  0.44461517563E+02 -0.33196885265E+02 -0.22109072229E+02  0.59729982505E+02  0.00000000000E+00 0.  1.
         12    1    4    4    0    0  0.73371843728E+02 -0.19086105327E+02  0.58170541196E+02  0.95558980381E+02  0.00000000000E+00 0. -1.
         -5    1    5    5    0  501 -0.16941203334E+02  0.96887294178E+02  0.26521984699E+03  0.28290954276E+03  0.47000000000E+01 0.  1.
         13    1    6    6    0    0  0.65033764502E+01  0.82019689424E+01  0.53367681584E+02  0.54384516523E+02  0.00000000000E+00 0. -1.
        -14    1    6    6    0    0 -0.88911329578E+02  0.35428870009E+02  0.61226307070E+02  0.11361817652E+03  0.00000000000E+00 0.  1.
</event>
<event>
12    1  0.1348628E-002  0.2664406E+03  0.7818608E-02  0.1103334E+00
         -2   -1    0    0    0  501 -0.00000000000E+00  0.00000000000E+00  0.10607676408E+03  0.10607676408E+03  0.00000000000E+00 0. -1.
          2   -1    0    0  502    0  0.00000000000E+00 -0.00000000000E+00 -0.10055296420E+04  0.10055296420E+04  0.00000000000E+00 0.  1.
          6    2    1    2  502    0  0.89555667593E+01  0.20352835718E+03 -0.77116929212E+03  0.81590467216E+03  0.17173922844E+03 0.  0.
         24    2    3    3    0    0 -0.59506249752E+02  0.13342871214E+03 -0.54192769255E+03  0.56655595745E+03  0.77173920345E+02 0.  0.
         -6    2    1    2    0  501 -0.89555667593E+01 -0.20352835718E+03 -0.12828358575E+03  0.29570173388E+03  0.17169403804E+03 0.  0.
        -24    2    5    5    0    0 -0.12949215227E+02 -0.19273817886E+03 -0.51555886620E+02  0.21797395899E+03  0.86827124722E+02 0.  0.
          5    1    3    3  502    0  0.68461816511E+02  0.70099645037E+02 -0.22924159957E+03  0.24934871471E+03  0.47000000000E+01 0. -1.
        -13    1    4    4    0    0 -0.20253648102E+02  0.11698674655E+03 -0.44748808355E+03  0.46297051100E+03  0.00000000000E+00 0.  1.
         14    1    4    4    0    0 -0.39252601649E+02  0.16441965592E+02 -0.94439609000E+02  0.10358544645E+03  0.00000000000E+00 0. -1.
         -5    1    5    5    0  501  0.39936484678E+01 -0.10790178319E+02 -0.76727699132E+02  0.77727774896E+02  0.47000000000E+01 0.  1.
         11    1    6    6    0    0 -0.29960700193E+01 -0.17357110581E+03 -0.72278609159E+02  0.18804282105E+03  0.00000000000E+00 0. -1.
        -12    1    6    6    0    0 -0.99531452077E+01 -0.19167073050E+02  0.20722722538E+02  0.29931137938E+02  0.00000000000E+00 0.  1.
</event>
<event>
12    1  0.1348628E-002  0.1907550E+03  0.7818608E-02  0.1157782E+00
         -1   -1    0    0    0  501 -0.00000000000E+00  0.00000000000E+00  0.40101913910E+02  0.40101913910E+02  0.00000000000E+00 0.  1.
          1   -1    0    0  502    0  0.00000000000E+00 -0.00000000000E+00 -0.13773573634E+04  0.13773573634E+04  0.00000000000E+00 0. -1.
          6    2    1    2  502    0  0.32206994282E+02  0.62553703921E+02 -0.10836999692E+04  0.11004415367E+04  0.17780803164E+03 0.  0.
         24    2    3    3    0    0  0.17629182651E+02  0.56198524147E+02 -0.28927175696E+03  0.30584026859E+03  0.79944094941E+02 0.  0.
         -6    2    1    2    0  501 -0.32206994282E+02 -0.62553703921E+02 -0.25355548024E+03  0.31701774055E+03  0.17680387414E+03 0.  0.
        -24    2    5    5    0    0  0.25997395161E+01 -0.76449451604E+02 -0.25644332010E+03  0.27913594887E+03  0.79387809106E+02 0.  0.
          5    1    3    3  502    0  0.14577811631E+02  0.63551797739E+01 -0.79442821226E+03  0.79460126814E+03  0.47000000000E+01 0. -1.
        -11    1    4    4    0    0  0.35706990924E+02  0.45979993246E+02 -0.27386193289E+03  0.27998126235E+03  0.00000000000E+00 0.  1.
         12    1    4    4    0    0 -0.18077808273E+02  0.10218530901E+02 -0.15409824073E+02  0.25859006239E+02  0.00000000000E+00 0. -1.
         -5    1    5    5    0  501 -0.34806733798E+02  0.13895747683E+02  0.28878398626E+01  0.37881791674E+02  0.47000000000E+01 0.  1.
         11    1    6    6    0    0 -0.50191537326E+01  0.26384003114E+01 -0.12785553131E+03  0.12798120935E+03  0.00000000000E+00 0. -1.
        -12    1    6    6    0    0  0.76188932487E+01 -0.79087851916E+02 -0.12858778879E+03  0.15115473953E+03  0.00000000000E+00 0.  1.
</event>
<event>
12    1  0.1348628E-002  0.1835187E+03  0.7818608E-02  0.1164440E+00
         -2   -1    0    0    0  501 -0.00000000000E+00  0.00000000000E+00  0.19708489397E+02  0.19708489397E+02  0.00000000000E+00 0.  1.
          2   -1    0    0  502    0  0.00000000000E+00 -0.00000000000E+00 -0.17120285936E+04  0.17120285936E+04  0.00000000000E+00 0. -1.
          6    2    1    2  502    0  0.10429957208E+02  0.46710709649E+02 -0.79881884753E+03  0.81804199303E+03  0.16967756716E+03 0.  0.
         24    2    3    3    0    0  0.24723070551E+02 -0.63928473967E+01 -0.20541843541E+03  0.22208023255E+03  0.80441266564E+02 0.  0.
         -6    2    1    2    0  501 -0.10429957208E+02 -0.46710709649E+02 -0.89350125668E+03  0.91369508996E+03  0.18494201075E+03 0.  0.
        -24    2    5    5    0    0 -0.14133720378E+02  0.34780583073E+02 -0.64948771827E+03  0.65636408604E+03  0.87006127714E+02 0.  0.
          5    1    3    3  502    0 -0.14293113343E+02  0.53103557046E+02 -0.59340041212E+03  0.59596176048E+03  0.47000000000E+01 0. -1.
        -13    1    4    4    0    0 -0.77222056248E+01 -0.37333601190E+02 -0.11504358746E+03  0.12119594569E+03  0.00000000000E+00 0.  1.
         14    1    4    4    0    0  0.32445276176E+02  0.30940753793E+02 -0.90374847955E+02  0.10088428686E+03  0.00000000000E+00 0. -1.
         -5    1    5    5    0  501  0.37037631700E+01 -0.81491292722E+02 -0.24401353841E+03  0.25733100392E+03  0.47000000000E+01 0.  1.
         13    1    6    6    0    0  0.35968240048E+02  0.21818346866E+02 -0.33776515860E+03  0.34037487703E+03  0.00000000000E+00 0. -1.
        -14    1    6    6    0    0 -0.50101960426E+02  0.12962236206E+02 -0.31172255967E+03  0.31598920901E+03  0.00000000000E+00 0.  1.
</event>
<event>
12    1  0.1348628E-002  0.1769468E+03  0.7818608E-02  0.1170791E+00
         -2   -1    0    0    0  501 -0.00000000000E+00  0.00000000000E+00  0.31794757882E+02  0.31794757882E+02  0.00000000000E+00 0. -1.
          2   -1    0    0  502    0  0.00000000000E+00 -0.00000000000E+00 -0.12133995937E+04  0.12133995937E+04  0.00000000000E+00 0.  1.
          6    2    1    2  502    0 -0.59086934786E+02 -0.16941590891E+02 -0.87770672071E+03  0.89669297143E+03  0.17294772062E+03 0.  0.
         24    2    3    3    0    0 -0.62074755313E+02  0.29219392401E+02 -0.79251228696E+03  0.79963657035E+03  0.81460858736E+02 0.  0.
         -6    2    1    2    0  501  0.59086934786E+02  0.16941590891E+02 -0.30389811514E+03  0.34850138019E+03  0.15912530987E+03 0.  0.
        -24    2    5    5    0    0  0.45155843665E+02 -0.29347661402E+02 -0.10076043363E+03  0.13963832020E+03  0.80286113595E+02 0.  0.
          5    1    3    3  502    0  0.29878205271E+01 -0.46160983292E+02 -0.85194433744E+02  0.97056401082E+02  0.47000000000E+01 0. -1.
        -13    1    4    4    0    0 -0.46178148668E+02 -0.21078908878E+02 -0.48313495266E+03  0.48579432303E+03  0.00000000000E+00 0.  1.
         14    1    4    4    0    0 -0.15896606645E+02  0.50298301279E+02 -0.30937733431E+03  0.31384224731E+03  0.00000000000E+00 0. -1.
         -5    1    5    5    0  501  0.13931091121E+02  0.46289252293E+02 -0.20313768151E+03  0.20886305998E+03  0.47000000000E+01 0.  1.
         13    1    6    6    0    0  0.58747283432E+02 -0.14135581653E+01 -0.39068047990E+02  0.70565953768E+02  0.00000000000E+00 0. -1.
        -14    1    6    6    0    0 -0.13591439767E+02 -0.27934103237E+02 -0.61692385644E+02  0.69072366436E+02  0.00000000000E+00 0.  1.
</event>
<event>
12    1  0.1348628E-002  0.1780555E+03  0.7818608E-02  0.1169698E+00
          2   -1    0    0  502    0  0.00000000000E+00  0.00000000000E+00  0.27227376083E+03  0.27227376083E+03  0.00000000000E+00 0.  1.
         -2   -1    0    0    0  501 -0.00000000000E+00 -0.00000000000E+00 -0.12248750370E+03  0.12248750370E+03  0.00000000000E+00 0. -1.
          6    2    1    2  502    0  0.35413246303E+02 -0.24975389815E+02  0.31177813356E+02  0.18110552509E+03  0.17305862319E+03 0.  0.
         24    2    3    3    0    0  0.29783357591E+02 -0.82894435866E+02  0.14871160381E+02  0.12048945071E+03  0.80858026401E+02 0.  0.
         -6    2    1    2    0  501 -0.35413246303E+02  0.24975389815E+02  0.11860844378E+03  0.21365573944E+03  0.17234542045E+03 0.  0.
        -24    2    5    5    0    0 -0.40456381626E+02  0.65005405388E+02  0.27690945176E+02  0.11407704236E+03  0.79902200246E+02 0.  0.
          5    1    3    3  502    0  0.56298887113E+01  0.57919046051E+02  0.16306652976E+02  0.60616074383E+02  0.47000000000E+01 0. -1.
        -13    1    4    4    0    0  0.19287593330E+02 -0.48630808550E+02  0.48505485841E+02  0.71342476502E+02  0.00000000000E+00 0.  1.
         14    1    4    4    0    0  0.10495764261E+02 -0.34263627316E+02 -0.33634325460E+02  0.49146974205E+02  0.00000000000E+00 0. -1.
         -5    1    5    5    0  501  0.50431353230E+01 -0.40030015573E+02  0.90917498603E+02  0.99578697083E+02  0.47000000000E+01 0.  1.
         11    1    6    6    0    0 -0.35904577871E+02  0.85608778374E+01 -0.18232362480E+02  0.41168512034E+02  0.00000000000E+00 0. -1.
        -12    1    6    6    0    0 -0.45518037542E+01  0.56444527551E+02  0.45923307656E+02  0.72908530323E+02  0.00000000000E+00 0.  1.
</event>
<event>
12    1  0.1348628E-002  0.2328115E+03  0.7818608E-02  0.1124676E+00
          2   -1    0    0  502    0  0.00000000000E+00  0.00000000000E+00  0.30578267656E+04  0.30578267656E+04  0.00000000000E+00 0. -1.
         -2   -1    0    0    0  501 -0.00000000000E+00 -0.00000000000E+00 -0.19705334169E+02  0.19705334169E+02  0.00000000000E+00 0.  1.
          6    2    1    2  502    0 -0.66294485196E+02  0.14257491947E+03  0.20073834548E+04  0.20208498849E+04  0.17182361980E+03 0.  0.
         24    2    3    3    0    0  0.22104990583E+02  0.93631803847E+02  0.13456642240E+04  0.13514439346E+04  0.79579892894E+02 0.  0.
         -6    2    1    2    0  501  0.66294485196E+02 -0.14257491947E+03  0.10307379767E+04  0.10566822149E+04  0.17156328364E+03 0.  0.
        -24    2    5    5    0    0  0.44660610255E+02 -0.16791556012E+03  0.94781741121E+03  0.96719432304E+03  0.83167349840E+02 0.  0.
          5    1    3    3  502    0 -0.88399475779E+02  0.48943115625E+02  0.66171923074E+03  0.66940595024E+03  0.47000000000E+01 0. -1.
        -13    1    4    4    0    0 -0.23101137283E+02  0.65071519800E+02  0.62626261909E+03  0.63005780156E+03  0.00000000000E+00 0.  1.
         14    1    4    4    0    0  0.45206127866E+02  0.28560284047E+02  0.71940160493E+03  0.72138613308E+03  0.00000000000E+00 0. -1.
         -5    1    5    5    0  501  0.21633874941E+02  0.25340640650E+02  0.82920565497E+02  0.89487891896E+02  0.47000000000E+01 0.  1.
         13    1    6    6    0    0  0.61884598630E+02 -0.11897354414E+03  0.55536815817E+03  0.57133020125E+03  0.00000000000E+00 0. -1.
        -14    1    6    6    0    0 -0.17223988375E+02 -0.48942015981E+02  0.39244925305E+03  0.39586412179E+03  0.00000000000E+00 0.  1.
</event>
<event>
12    1  0.1348628E-002  0.2277530E+03  0.7818608E-02  0.1128231E+00
          2   -1    0    0  502    0  0.00000000000E+00  0.00000000000E+00  0.62230099908E+03  0.62230099908E+03  0.00000000000E+00 0. -1.
         -2   -1    0    0    0  501 -0.00000000000E+00 -0.00000000000E+00 -0.94463679096E+02  0.94463679096E+02  0.00000000000E+00 0.  1.
          6    2    1    2  502    0 -0.10793869543E+03 -0.10443173276E+03  0.38794033247E+03  0.45041717067E+03  0.17268809253E+03 0.  0.
         24    2    3    3    0    0 -0.13876888554E+03 -0.51729472495E+02  0.27125298408E+03  0.31863683780E+03  0.77579063606E+02 0.  0.
         -6    2    1    2    0  501  0.10793869543E+03  0.10443173276E+03  0.13989698752E+03  0.26634750751E+03  0.16974415707E+03 0.  0.
        -24    2    5    5    0    0  0.73908556202E+02 -0.68641877373E+01  0.79603083347E+02  0.13519005565E+03  0.80187957424E+02 0.  0.
          5    1    3    3  502    0  0.30830190107E+02 -0.52702260269E+02  0.11668734839E+03  0.13178033288E+03  0.47000000000E+01 0. -1.
        -13    1    4    4    0    0 -0.31165787519E+02 -0.48554253574E+02  0.73051043936E+02  0.93087468931E+02  0.00000000000E+00 0.  1.
         14    1    4    4    0    0 -0.10760309802E+03 -0.31752189211E+01  0.19820194014E+03  0.22554936887E+03  0.00000000000E+00 0. -1.
         -5    1    5    5    0  501  0.34030139230E+02  0.11129592050E+03  0.60293904173E+02  0.13115745185E+03  0.47000000000E+01 0.  1.
         13    1    6    6    0    0  0.54446631688E+02 -0.11391852409E+02  0.26539598519E+01  0.55688899310E+02  0.00000000000E+00 0. -1.
        -14    1    6    6    0    0  0.19461924514E+02  0.45276646714E+01  0.76949123495E+02  0.79501156342E+02  0.00000000000E+00 0.  1.
</event>
<event>
12    1  0.1348628E-002  0.1951413E+03  0.7818608E-02  0.1153904E+00
          2   -1    0    0  502    0  0.00000000000E+00  0.00000000000E+00  0.31896865264E+03  0.31896865264E+03  0.00000000000E+00 0. -1.
         -2   -1    0    0    0  501 -0.00000000000E+00 -0.00000000000E+00 -0.16109039725E+03  0.16109039725E+03  0.00000000000E+00 0.  1.
          6    2    1    2  502    0 -0.85030938689E+02 -0.34822335704E+02 -0.43195451542E+02  0.19985232185E+03  0.17214019843E+03 0.  0.
         24    2    3    3    0    0  0.69775746942E+00  0.28347256907E+02 -0.43577973180E+02  0.93259437009E+02  0.77422406351E+02 0.  0.
         -6    2    1    2    0  501  0.85030938689E+02  0.34822335704E+02  0.20107370693E+03  0.28020672805E+03  0.17216944916E+03 0.  0.
        -24    2    5    5    0    0  0.10448333131E+03 -0.23669583827E+02  0.13334528651E+03  0.18850651451E+03  0.79225784053E+02 0.  0.
          5    1    3    3  502    0 -0.85728696159E+02 -0.63169592612E+02  0.38252163774E+00  0.10659288484E+03  0.47000000000E+01 0. -1.
        -11    1    4    4    0    0 -0.46474964755E+01  0.53138195974E+02 -0.15769203793E+02  0.55623150604E+02  0.00000000000E+00 0.  1.
         12    1    4    4    0    0  0.53452539449E+01 -0.24790939067E+02 -0.27808769387E+02  0.37636286405E+02  0.00000000000E+00 0. -1.
         -5    1    5    5    0  501 -0.19452392622E+02  0.58491919532E+02  0.67728420422E+02  0.91700213533E+02  0.47000000000E+01 0.  1.
         11    1    6    6    0    0  0.95864497603E-01  0.94023159775E+01  0.50049167474E+02  0.50924767065E+02  0.00000000000E+00 0. -1.
        -12    1    6    6    0    0  0.10438746681E+03 -0.33071899805E+02  0.83296119037E+02  0.13758174745E+03  0.00000000000E+00 0.  1.
</event>
<event>
12    1  0.1348628E-002  0.2726174E+03  0.7818608E-02  0.1099791E+00
         -2   -1    0    0    0  501 -0.00000000000E+00  0.00000000000E+00  0.82178338650E+02  0.82178338650E+02  0.00000000000E+00 0.  1.
          2   -1    0    0  502    0  0.00000000000E+00 -0.00000000000E+00 -0.11650566169E+04  0.11650566169E+04  0.00000000000E+00 0. -1.
          6    2    1    2  502    0  0.17986102042E+03  0.11143271575E+03 -0.24633061024E+03  0.36736196482E+03  0.17178127618E+03 0.  0.
         24    2    3    3    0    0  0.15087284965E+03  0.14546763422E+03 -0.18080708330E+03  0.28790057606E+03  0.79196533730E+02 0.  0.
         -6    2    1    2    0  501 -0.17986102042E+03 -0.11143271575E+03 -0.83654766805E+03  0.87987299078E+03  0.17203849037E+03 0.  0.
        -24    2    5    5    0    0 -0.87433066032E+02  0.51395469458E+01 -0.29665655162E+03  0.31984037852E+03  0.81374456297E+02 0.  0.
          5    1    3    3  502    0  0.28988170770E+02 -0.34034918479E+02 -0.65523526946E+02  0.79461388762E+02  0.47000000000E+01 0. -1.
        -11    1    4    4    0    0  0.10739246680E+03  0.48914606268E+02 -0.90128192647E+02  0.14848862495E+03  0.00000000000E+00 0.  1.
         12    1    4    4    0    0  0.43480382855E+02  0.96553027956E+02 -0.90678890649E+02  0.13941195110E+03  0.00000000000E+00 0. -1.
         -5    1    5    5    0  501 -0.92427954391E+02 -0.11657226269E+03 -0.53989111644E+03  0.56003261226E+03  0.47000000000E+01 0.  1.
         11    1    6    6    0    0 -0.16671766970E+02 -0.13414703558E+02 -0.18576399918E+03  0.18699242090E+03  0.00000000000E+00 0. -1.
        -12    1    6    6    0    0 -0.70761299061E+02  0.18554250503E+02 -0.11089255244E+03  0.13284795762E+03  0.00000000000E+00 0.  1.
</event>
<event>
12    1  0.1348628E-002  0.1864298E+03  0.7818608E-02  0.1161721E+00
          2   -1    0    0  502    0  0.00000000000E+00  0.00000000000E+00  0.58527335621E+03  0.58527335621E+03  0.00000000000E+00 0. -1.
         -2   -1    0    0    0  501 -0.00000000000E+00 -0.00000000000E+00 -0.81164944010E+02  0.81164944010E+02  0.00000000000E+00 0.  1.
          6    2    1    2  502    0 -0.35358699450E+02  0.67158228994E+02  0.42656262385E+03  0.46630994067E+03  0.17242048414E+03 0.  0.
         24    2    3    3    0    0 -0.28845486172E+02  0.10184194031E+02  0.85718102325E+02  0.12064313512E+03  0.79192127789E+02 0.  0.
         -6    2    1    2    0  501  0.35358699450E+02 -0.67158228994E+02  0.77545788348E+02  0.20012835955E+03  0.16815928656E+03 0.  0.
        -24    2    5    5    0    0  0.70101335042E+02 -0.92977269659E+02  0.66372143364E+02  0.15517712007E+03  0.78202987990E+02 0.  0.
          5    1    3    3  502    0 -0.65132132784E+01  0.56974034963E+02  0.34084452152E+03  0.34566680555E+03  0.47000000000E+01 0. -1.
        -11    1    4    4    0    0 -0.87810871611E+01  0.37171269853E+02  0.12695236427E+02  0.40248972933E+02  0.00000000000E+00 0.  1.
         12    1    4    4    0    0 -0.20064399011E+02 -0.26987075822E+02  0.73022865897E+02  0.80394162182E+02  0.00000000000E+00 0. -1.
         -5    1    5    5    0  501 -0.34742635592E+02  0.25819040665E+02  0.11173644985E+02  0.44951239482E+02  0.47000000000E+01 0.  1.
         13    1    6    6    0    0  0.34499043953E+02 -0.47956556556E+02  0.76746206584E+02  0.96850377260E+02  0.00000000000E+00 0. -1.
        -14    1    6    6    0    0  0.35602291089E+02 -0.45020713103E+02 -0.10374063220E+02  0.58326742810E+02  0.00000000000E+00 0.  1.
</event>
<event>
12    1  0.1348628E-002  0.1866743E+03  0.7818608E-02  0.1161496E+00
         -2   -1    0    0    0  501 -0.00000000000E+00  0.00000000000E+00  0.77338150933E+02  0.77338150933E+02  0.00000000000E+00 0. -1.
          2   -1    0    0  502    0  0.00000000000E+00 -0.00000000000E+00 -0.45059311900E+03  0.45059311900E+03  0.00000000000E+00 0.  1.
          6    2    1    2  502    0 -0.70040600967E+02  0.11780726174E+02 -0.18810905759E+03  0.26531688126E+03  0.17309985165E+03 0.  0.
         24    2    3    3    0    0 -0.71340006225E+02 -0.44979271661E+02 -0.88654681426E+02  0.15070166086E+03  0.87970487557E+02 0.  0.
         -6    2    1    2    0  501  0.70040600967E+02 -0.11780726174E+02 -0.18514591048E+03  0.26261438867E+03  0.17217095480E+03 0.  0.
        -24    2    5    5    0    0  0.27175006722E+02 -0.67382119290E+02 -0.14595035963E+03  0.18207026851E+03  0.81050874205E+02 0.  0.
          5    1    3    3  502    0  0.12994052577E+01  0.56759997835E+02 -0.99454376168E+02  0.11461522040E+03  0.47000000000E+01 0. -1.
        -11    1    4    4    0    0 -0.21419527697E+02 -0.64594262259E+02 -0.53597329391E+02  0.86624988320E+02  0.00000000000E+00 0.  1.
         12    1    4    4    0    0 -0.49920478528E+02  0.19614990598E+02 -0.35057352034E+02  0.64076672544E+02  0.00000000000E+00 0. -1.
         -5    1    5    5    0  501  0.42865594245E+02  0.55601393116E+02 -0.39195550850E+02  0.80544120164E+02  0.47000000000E+01 0.  1.
         11    1    6    6    0    0  0.91605110376E+01 -0.56459176344E+02 -0.30710671190E+02  0.64920712264E+02  0.00000000000E+00 0. -1.
        -12    1    6    6    0    0  0.18014495685E+02 -0.10922942946E+02 -0.11523968844E+03  0.11714955624E+03  0.00000000000E+00 0.  1.
</event>
<event>
12    1  0.1348628E-002  0.2355592E+03  0.7818608E-02  0.1122787E+00
          4   -1    0    0  502    0  0.00000000000E+00  0.00000000000E+00  0.29670446822E+02  0.29670446822E+02  0.00000000000E+00 0. -1.
         -4   -1    0    0    0  501 -0.00000000000E+00 -0.00000000000E+00 -0.22070857842E+04  0.22070857842E+04  0.00000000000E+00 0.  1.
          6    2    1    2  502    0  0.15921741610E+03 -0.27671437056E+02 -0.65112332266E+03  0.69236988763E+03  0.17116829722E+03 0.  0.
         24    2    3    3    0    0  0.73462947205E+01 -0.29266720349E+02 -0.22617441335E+03  0.24107059895E+03  0.77779556829E+02 0.  0.
         -6    2    1    2    0  501 -0.15921741610E+03  0.27671437056E+02 -0.15262920147E+04  0.15443863434E+04  0.17159827921E+03 0.  0.
        -24    2    5    5    0    0 -0.14945761855E+03 -0.27933274753E+02 -0.97170682494E+03  0.98691530347E+03  0.81668935404E+02 0.  0.
          5    1    3    3  502    0  0.15187112138E+03  0.15952832921E+01 -0.42494890931E+03  0.45129928868E+03  0.47000000000E+01 0. -1.
        -11    1    4    4    0    0  0.10415056757E+01  0.11281084630E+02 -0.17549868939E+03  0.17586397466E+03  0.00000000000E+00 0.  1.
         12    1    4    4    0    0  0.63047890448E+01 -0.40547804978E+02 -0.50675723956E+02  0.65206624295E+02  0.00000000000E+00 0. -1.
         -5    1    5    5    0  501 -0.97597975593E+01  0.55604711809E+02 -0.55458518974E+03  0.55747103988E+03  0.47000000000E+01 0.  1.
         11    1    6    6    0    0 -0.14488786624E+03 -0.10871035952E+02 -0.71567317414E+03  0.73027307591E+03  0.00000000000E+00 0. -1.
        -12    1    6    6    0    0 -0.45697523097E+01 -0.17062238801E+02 -0.25603365080E+03  0.25664222756E+03  0.00000000000E+00 0.  1.
</event>
<event>
12    1  0.1348628E-002  0.2082609E+03  0.7818608E-02  0.1142951E+00
         -1   -1    0    0    0  501 -0.00000000000E+00  0.00000000000E+00  0.19225965256E+04  0.19225965256E+04  0.00000000000E+00 0. -1.
          1   -1    0    0  502    0  0.00000000000E+00 -0.00000000000E+00 -0.40475665703E+02  0.40475665703E+02  0.00000000000E+00 0.  1.
          6    2    1    2  502    0  0.59432111242E+02 -0.10164006534E+03  0.15950440760E+04  0.16086318831E+04  0.17224416463E+03 0.  0.
         24    2    3    3    0    0  0.65792015499E+02  0.13165588312E+01  0.65859880873E+03  0.66651068951E+03  0.78446068978E+02 0.  0.
         -6    2    1    2    0  501 -0.59432111242E+02  0.10164006534E+03  0.28707678390E+03  0.35444030819E+03  0.17132417660E+03 0.  0.
        -24    2    5    5    0    0  0.12583592785E+02  0.10168432179E+02  0.17698761203E+03  0.19414359250E+03  0.78136904695E+02 0.  0.
          5    1    3    3  502    0 -0.63599042567E+01 -0.10295662417E+03  0.93644526731E+03  0.94212119364E+03  0.47000000000E+01 0. -1.
        -11    1    4    4    0    0  0.59490623063E+02 -0.94015366247E+01  0.64602945637E+03  0.64883093455E+03  0.00000000000E+00 0.  1.
         12    1    4    4    0    0  0.63013924357E+01  0.10718095456E+02  0.12569352356E+02  0.17679754961E+02  0.00000000000E+00 0. -1.
         -5    1    5    5    0  501 -0.72015704028E+02  0.91471633162E+02  0.11008917187E+03  0.16029671569E+03  0.47000000000E+01 0.  1.
         11    1    6    6    0    0  0.37269152583E+01  0.43142828149E+01  0.18221894522E+03  0.18230810989E+03  0.00000000000E+00 0. -1.
        -12    1    6    6    0    0  0.88566775272E+01  0.58541493637E+01 -0.52313331920E+01  0.11835482608E+02  0.00000000000E+00 0.  1.
</event>
<event>
12    1  0.1348628E-002  0.2018306E+03  0.7818608E-02  0.1148204E+00
         -1   -1    0    0    0  501 -0.00000000000E+00  0.00000000000E+00  0.13940465113E+03  0.13940465113E+03  0.00000000000E+00 0.  1.
          1   -1    0    0  502    0  0.00000000000E+00 -0.00000000000E+00 -0.29274249003E+03  0.29274249003E+03  0.00000000000E+00 0. -1.
          6    2    1    2  502    0 -0.95920184687E+02 -0.44888570746E+02 -0.67323232801E+02  0.21239080997E+03  0.17135277316E+03 0.  0.
         24    2    3    3    0    0 -0.41418060353E+02  0.40646667684E+02 -0.23374359811E+02  0.10175468564E+03  0.80249909876E+02 0.  0.
         -6    2    1    2    0  501  0.95920184687E+02  0.44888570746E+02 -0.86014606090E+02  0.21975633119E+03  0.17227497504E+03 0.  0.
        -24    2    5    5    0    0  0.17662758333E+02  0.55596716988E+02 -0.97634039215E+02  0.13978139511E+03  0.81261705821E+02 0.  0.
          5    1    3    3  502    0 -0.54502124335E+02 -0.85535238431E+02 -0.43948872991E+02  0.11063612433E+03  0.47000000000E+01 0. -1.
        -13    1    4    4    0    0  0.20717606724E+01 -0.14875297282E+02  0.15199621656E+02  0.21368087420E+02  0.00000000000E+00 0.  1.
         14    1    4    4    0    0 -0.43489821025E+02  0.55521964966E+02 -0.38573981467E+02  0.80386598216E+02  0.00000000000E+00 0. -1.
         -5    1    5    5    0  501  0.78257426354E+02 -0.10708146242E+02  0.11619433125E+02  0.79974936084E+02  0.47000000000E+01 0.  1.
         11    1    6    6    0    0  0.20596078692E+02  0.68577783694E+02 -0.42941585424E+02  0.83493057392E+02  0.00000000000E+00 0. -1.
        -12    1    6    6    0    0 -0.29333203583E+01 -0.12981066706E+02 -0.54692453791E+02  0.56288337716E+02  0.00000000000E+00 0.  1.
</event>
<event>
12    1  0.1348628E-002  0.2213905E+03  0.7818608E-02  0.1132851E+00
          2   -1    0    0  502    0  0.00000000000E+00  0.00000000000E+00  0.20378460769E+03  0.20378460769E+03  0.00000000000E+00 0. -1.
         -2   -1    0    0    0  501 -0.00000000000E+00 -0.00000000000E+00 -0.24721594475E+03  0.24721594475E+03  0.00000000000E+00 0.  1.
          6    2    1    2  502    0  0.93924078318E+02 -0.10056918027E+03 -0.58926330370E+02  0.23021949738E+03  0.17490801027E+03 0.  0.
         24    2    3    3    0    0 -0.20484130488E+02 -0.59510423513E+02 -0.25984375782E+02  0.10419441210E+03  0.78868229467E+02 0.  0.
         -6    2    1    2    0  501 -0.93924078318E+02  0.10056918027E+03  0.15494993306E+02  0.22078105506E+03  0.17195431645E+03 0.  0.
        -24    2    5    5    0    0 -0.12529887405E+03  0.79672964763E+02 -0.71603857788E+01  0.17655000452E+03  0.95242027589E+02 0.  0.
          5    1    3    3  502    0  0.11440820881E+03 -0.41058756760E+02 -0.32941954588E+02  0.12602508528E+03  0.47000000000E+01 0. -1.
        -11    1    4    4    0    0 -0.68717425096E+01 -0.35258520503E+01  0.25674404023E+02  0.26810958575E+02  0.00000000000E+00 0.  1.
         12    1    4    4    0    0 -0.13612387978E+02 -0.55984571463E+02 -0.51658779805E+02  0.77383453524E+02  0.00000000000E+00 0. -1.
         -5    1    5    5    0  501  0.31374795733E+02  0.20896215510E+02  0.22655379084E+02  0.44231050535E+02  0.47000000000E+01 0.  1.
         11    1    6    6    0    0 -0.58011327494E+02 -0.82935595111E+01  0.21042656560E+02  0.62264682141E+02  0.00000000000E+00 0. -1.
        -12    1    6    6    0    0 -0.67287546557E+02  0.87966524274E+02 -0.28203042338E+02  0.11428532238E+03  0.00000000000E+00 0.  1.
</event>
<event>
12    1  0.1348628E-002  0.1773415E+03  0.7818608E-02  0.1170401E+00
          2   -1    0    0  502    0  0.00000000000E+00  0.00000000000E+00  0.77086262492E+02  0.77086262492E+02  0.00000000000E+00 0. -1.
         -2   -1    0    0    0  501 -0.00000000000E+00 -0.00000000000E+00 -0.41697897599E+03  0.41697897599E+03  0.00000000000E+00 0.  1.
          6    2    1    2  502    0 -0.44044549348E+01  0.44916979686E+02 -0.13297625827E+03  0.22105974835E+03  0.17072724676E+03 0.  0.
         24    2    3    3    0    0 -0.19820696761E+02  0.76290074265E+02 -0.14519541426E+03  0.18373242125E+03  0.80391907826E+02 0.  0.
         -6    2    1    2    0  501  0.44044549348E+01 -0.44916979686E+02 -0.20691645522E+03  0.27300549013E+03  0.17228071254E+03 0.  0.
        -24    2    5    5    0    0  0.69188471232E+01 -0.53100265754E+00 -0.24360400650E+02  0.85055389878E+02  0.81196291899E+02 0.  0.
          5    1    3    3  502    0  0.15416241826E+02 -0.31373094579E+02  0.12219155985E+02  0.37327327100E+02  0.47000000000E+01 0. -1.
        -13    1    4    4    0    0  0.27980931956E+02  0.42756275900E+02 -0.89381887490E+02  0.10295704684E+03  0.00000000000E+00 0.  1.
         14    1    4    4    0    0 -0.47801628717E+02  0.33533798364E+02 -0.55813526769E+02  0.80775374410E+02  0.00000000000E+00 0. -1.
         -5    1    5    5    0  501 -0.25143921884E+01 -0.44385977028E+02 -0.18255605457E+03  0.18795010025E+03  0.47000000000E+01 0.  1.
         11    1    6    6    0    0  0.34478841558E+02 -0.17754804379E+02  0.75489212282E+01  0.39509616620E+02  0.00000000000E+00 0. -1.
        -12    1    6    6    0    0 -0.27559994435E+02  0.17223801722E+02 -0.31909321878E+02  0.45545773259E+02  0.00000000000E+00 0.  1.
</event>
<event>
12    1  0.1348628E-002  0.2290181E+03  0.7818608E-02  0.1127333E+00
         -1   -1    0    0    0  501 -0.00000000000E+00  0.00000000000E+00  0.36444432789E+03  0.36444432789E+03  0.00000000000E+00 0.  1.
          1   -1    0    0  502    0  0.00000000000E+00 -0.00000000000E+00 -0.17244406114E+03  0.17244406114E+03  0.00000000000E+00 0. -1.
          6    2    1    2  502    0 -0.93662501375E+02  0.11929867255E+03  0.20493394383E+03  0.30679292436E+03  0.17064331124E+03 0.  0.
         24    2    3    3    0    0 -0.12079772261E+03  0.11181449086E+03  0.12459182009E+03  0.22153285133E+03  0.80368603510E+02 0.  0.
         -6    2    1    2    0  501  0.93662501375E+02 -0.11929867255E+03 -0.12933677073E+02  0.23009546468E+03  0.17254508230E+03 0.  0.
        -24    2    5    5    0    0  0.11586320069E+03 -0.13973331113E+03 -0.15296268343E+02  0.19946676341E+03  0.81260903051E+02 0.  0.
          5    1    3    3  502    0  0.27135221234E+02  0.74841816916E+01  0.80342123740E+02  0.85260073036E+02  0.47000000000E+01 0. -1.
        -11    1    4    4    0    0 -0.84396371035E+02  0.57130301645E+02  0.29761048546E+02  0.10617127116E+03  0.00000000000E+00 0.  1.
         12    1    4    4    0    0 -0.36401351574E+02  0.54684189214E+02  0.94830771540E+02  0.11536158016E+03  0.00000000000E+00 0. -1.
         -5    1    5    5    0  501 -0.22200699314E+02  0.20434638581E+02  0.23625912701E+01  0.30628701270E+02  0.47000000000E+01 0.  1.
         13    1    6    6    0    0  0.47883127823E+02 -0.11329015575E+03  0.70013324821E+01  0.12319282437E+03  0.00000000000E+00 0. -1.
        -14    1    6    6    0    0  0.67980072866E+02 -0.26443155382E+02 -0.22297600825E+02  0.76273939036E+02  0.00000000000E+00 0.  1.
</event>
<event>
12    1  0.1348628E-002  0.2018759E+03  0.7818608E-02  0.1148166E+00
         -2   -1    0    0    0  501 -0.00000000000E+00  0.00000000000E+00  0.63590873858E+02  0.63590873858E+02  0.00000000000E+00 0. -1.
          2   -1    0    0  502    0  0.00000000000E+00 -0.00000000000E+00 -0.65378116526E+03  0.65378116526E+03  0.00000000000E+00 0.  1.
          6    2    1    2  502    0 -0.11289484794E+02  0.10476340999E+03 -0.34538997806E+03  0.40002525232E+03  0.17211374441E+03 0.  0.
         24    2    3    3    0    0 -0.91206147260E+01  0.14260262589E+03 -0.27297520200E+03  0.31815645455E+03  0.79305574463E+02 0.  0.
         -6    2    1    2    0  501  0.11289484794E+02 -0.10476340999E+03 -0.24480031334E+03  0.31734678679E+03  0.17227584026E+03 0.  0.
        -24    2    5    5    0    0 -0.28589939365E+02 -0.11735208788E+03 -0.15730694618E+03  0.22025908119E+03  0.95810700692E+02 0.  0.
          5    1    3    3  502    0 -0.21688700677E+01 -0.37839215900E+02 -0.72414776053E+02  0.81868797769E+02  0.47000000000E+01 0. -1.
        -13    1    4    4    0    0 -0.43206394892E+02  0.63506600195E+02 -0.14098634521E+03  0.16055226677E+03  0.00000000000E+00 0.  1.
         14    1    4    4    0    0  0.34085780166E+02  0.79096025694E+02 -0.13198885679E+03  0.15760418778E+03  0.00000000000E+00 0. -1.
         -5    1    5    5    0  501  0.39879424158E+02  0.12588677888E+02 -0.87493367166E+02  0.97087705608E+02  0.47000000000E+01 0.  1.
         13    1    6    6    0    0 -0.59640430803E+02 -0.45015633422E+02 -0.87320995116E+02  0.11492756165E+03  0.00000000000E+00 0. -1.
        -14    1    6    6    0    0  0.31050491438E+02 -0.72336454456E+02 -0.69985951061E+02  0.10533151954E+03  0.00000000000E+00 0.  1.
</event>
<event>
12    1  0.1348628E-002  0.1868750E+03  0.7818608E-02  0.1161310E+00
         -1   -1    0    0    0  501 -0.00000000000E+00  0.00000000000E+00  0.16611850480E+03  0.16611850480E+03  0.00000000000E+00 0. -1.
          1   -1    0    0  502    0  0.00000000000E+00 -0.00000000000E+00 -0.31109759473E+03  0.31109759473E+03  0.00000000000E+00 0.  1.
          6    2    1    2  502    0  0.26032327984E+02  0.68664934088E+02  0.63255270346E+02  0.19773876811E+03  0.17235671126E+03 0.  0.
         24    2    3    3    0    0  0.70054981496E+02  0.86573808552E+02  0.25156841368E+02  0.13664619821E+03  0.75077240614E+02 0.  0.
         -6    2    1    2    0  501 -0.26032327984E+02 -0.68664934088E+02 -0.20823436028E+03  0.27947733142E+03  0.17132855776E+03 0.  0.
        -24    2    5    5    0    0 -0.62163993279E+02 -0.75866228559E+02 -0.20487172762E+03  0.24218452813E+03  0.84029008030E+02 0.  0.
          5    1    3    3  502    0 -0.44022653513E+02 -0.17908874464E+02  0.38098428978E+02  0.61092569904E+02  0.47000000000E+01 0. -1.
        -11    1    4    4    0    0 -0.11733390365E+02 -0.15071985471E+01  0.10011584455E+02  0.15497610145E+02  0.00000000000E+00 0.  1.
         12    1    4    4    0    0  0.81788371861E+02  0.88081007099E+02  0.15145256913E+02  0.12114858807E+03  0.00000000000E+00 0. -1.
         -5    1    5    5    0  501  0.36131665295E+02  0.72012944703E+01 -0.33626326548E+01  0.37292803293E+02  0.47000000000E+01 0.  1.
         13    1    6    6    0    0  0.14825989106E+02 -0.32921537939E+02 -0.32505716314E+02  0.48582498971E+02  0.00000000000E+00 0. -1.
        -14    1    6    6    0    0 -0.76989982385E+02 -0.42944690620E+02 -0.17236601131E+03  0.19360202916E+03  0.00000000000E+00 0.  1.
</event>
<event>
12    1  0.1348628E-002  0.2469889E+03  0.7818608E-02  0.1115223E+00
         -2   -1    0    0    0  501 -0.00000000000E+00  0.00000000000E+00  0.13666487836E+03  0.13666487836E+03  0.00000000000E+00 0. -1.
          2   -1    0    0  502    0  0.00000000000E+00 -0.00000000000E+00 -0.93832913823E+03  0.93832913823E+03  0.00000000000E+00 0.  1.
          6    2    1    2  502    0 -0.98504693956E+02 -0.14954613563E+03 -0.78859886988E+03  0.82583113069E+03  0.16745643441E+03 0.  0.
         24    2    3    3    0    0  0.65071502060E+01 -0.96116961016E+02 -0.47658895728E+03  0.49228287380E+03  0.76971296174E+02 0.  0.
         -6    2    1    2    0  501  0.98504693956E+02  0.14954613563E+03 -0.13065389982E+02  0.24916288590E+03  0.17275479120E+03 0.  0.
        -24    2    5    5    0    0  0.43292372817E+02  0.93946711681E+02 -0.76278333417E+02  0.14837765600E+03  0.74143984726E+02 0.  0.
          5    1    3    3  502    0 -0.10501184416E+03 -0.53429174610E+02 -0.31200991260E+03  0.33354825689E+03  0.47000000000E+01 0. -1.
        -13    1    4    4    0    0  0.14613028634E+02  0.87734396247E+01 -0.91941596292E+02  0.93508133215E+02  0.00000000000E+00 0.  1.
         14    1    4    4    0    0 -0.81058784275E+01 -0.10489040064E+03 -0.38464736099E+03  0.39877474058E+03  0.00000000000E+00 0. -1.
         -5    1    5    5    0  501  0.55212321139E+02  0.55599423945E+02  0.63212943435E+02  0.10078522990E+03  0.47000000000E+01 0.  1.
         11    1    6    6    0    0 -0.20095342947E+02  0.20495379783E+02 -0.27638603715E+02  0.39846904722E+02  0.00000000000E+00 0. -1.
        -12    1    6    6    0    0  0.63387715764E+02  0.73451331898E+02 -0.48639729702E+02  0.10853075128E+03  0.00000000000E+00 0.  1.
</event>
<event>
12    1  0.1348628E-002  0.2760850E+03  0.7818608E-02  0.1097847E+00
         -2   -1    0    0    0  501 -0.00000000000E+00  0.00000000000E+00  0.78023138465E+02  0.78023138465E+02  0.00000000000E+00 0. -1.
          2   -1    0    0  502    0  0.00000000000E+00 -0.00000000000E+00 -0.10520998764E+04  0.10520998764E+04  0.00000000000E+00 0.  1.
          6    2    1    2  502    0 -0.85173749376E+02 -0.19788192371E+03 -0.63795494059E+03  0.69510235798E+03  0.17253683239E+03 0.  0.
         24    2    3    3    0    0 -0.88951998254E+02 -0.18661791717E+03 -0.40803615196E+03  0.46482884154E+03  0.82665867327E+02 0.  0.
         -6    2    1    2    0  501  0.85173749376E+02  0.19788192371E+03 -0.33612179733E+03  0.43502065687E+03  0.17278103469E+03 0.  0.
        -24    2    5    5    0    0  0.12707842888E+03  0.14476718917E+03 -0.25219401960E+03  0.32711727850E+03  0.79356311798E+02 0.  0.
          5    1    3    3  502    0  0.37782488783E+01 -0.11264006542E+02 -0.22991878862E+03  0.23027351643E+03  0.47000000000E+01 0. -1.
        -13    1    4    4    0    0 -0.76835021292E+02 -0.99510986318E+02 -0.30163290494E+03  0.32678504592E+03  0.00000000000E+00 0.  1.
         14    1    4    4    0    0 -0.12116976962E+02 -0.87106930852E+02 -0.10640324702E+03  0.13804379562E+03  0.00000000000E+00 0. -1.
         -5    1    5    5    0  501 -0.41904679502E+02  0.53114734545E+02 -0.83927777725E+02  0.10790337837E+03  0.47000000000E+01 0.  1.
         11    1    6    6    0    0  0.71448301395E+02  0.11460310164E+03 -0.21445807328E+03  0.25343834728E+03  0.00000000000E+00 0. -1.
        -12    1    6    6    0    0  0.55630127483E+02  0.30164087526E+02 -0.37735946323E+02  0.73678931215E+02  0.00000000000E+00 0.  1.
</event>
<event>
12    1  0.1348628E-002  0.1648141E+03  0.7818608E-02  0.1183366E+00
          1   -1    0    0  502    0  0.00000000000E+00  0.00000000000E+00  0.24564115706E+03  0.24564115706E+03  0.00000000000E+00 0. -1.
         -1   -1    0    0    0  501 -0.00000000000E+00 -0.00000000000E+00 -0.12893473181E+03  0.12893473181E+03  0.00000000000E+00 0.  1.
          6    2    1    2  502    0  0.67090385603E+01  0.86000551951E+01  0.12701777718E+03  0.20372533146E+03  0.15890727739E+03 0.  0.
         24    2    3    3    0    0 -0.39265444274E+02 -0.35702126756E+02  0.83125887586E+02  0.12610494515E+03  0.78588339060E+02 0.  0.
         -6    2    1    2    0  501 -0.67090385603E+01 -0.86000551951E+01 -0.10311351928E+02  0.17085055741E+03  0.17018994342E+03 0.  0.
        -24    2    5    5    0    0 -0.10873718765E+02  0.25517874771E+02  0.50346281894E+02  0.10097340630E+03  0.83014944362E+02 0.  0.
          5    1    3    3  502    0  0.45974482835E+02  0.44302181951E+02  0.43891889599E+02  0.77620386305E+02  0.47000000000E+01 0. -1.
        -13    1    4    4    0    0  0.23752958140E+02 -0.34155642078E+01  0.22284397177E+02  0.32748487855E+02  0.00000000000E+00 0.  1.
         14    1    4    4    0    0 -0.63018402414E+02 -0.32286562548E+02  0.60841490408E+02  0.93356457297E+02  0.00000000000E+00 0. -1.
         -5    1    5    5    0  501  0.41646802049E+01 -0.34117929966E+02 -0.60657633822E+02  0.69877151110E+02  0.47000000000E+01 0.  1.
         11    1    6    6    0    0 -0.46082128731E+02  0.23973063791E+02  0.34317765533E+02  0.62257364280E+02  0.00000000000E+00 0. -1.
        -12    1    6    6    0    0  0.35208409966E+02  0.15448109798E+01  0.16028516361E+02  0.38716042024E+02  0.00000000000E+00 0.  1.
</event>
<event>
12    1  0.1348628E-002  0.2090697E+03  0.7818608E-02  0.1142305E+00
         -1   -1    0    0    0  501 -0.00000000000E+00  0.00000000000E+00  0.82256642719E+02  0.82256642719E+02  0.00000000000E+00 0.  1.
          1   -1    0    0  502    0  0.00000000000E+00 -0.00000000000E+00 -0.13391577298E+04  0.13391577298E+04  0.00000000000E+00 0. -1.
          6    2    1    2  502    0  0.69836633485E+02  0.96536247463E+02 -0.11806626288E+04  0.11990654462E+04  0.17203865497E+03 0.  0.
         24    2    3    3    0    0  0.60340834029E+02  0.55229317709E+02 -0.37363383393E+03  0.39091075903E+03  0.80732186193E+02 0.  0.
         -6    2    1    2    0  501 -0.69836633485E+02 -0.96536247463E+02 -0.76238458275E+02  0.22234892630E+03  0.17155273258E+03 0.  0.
        -24    2    5    5    0    0 -0.89452330912E+02 -0.28915029495E+02 -0.87941589417E+02  0.15081950590E+03  0.78581179511E+02 0.  0.
          5    1    3    3  502    0  0.94957994561E+01  0.41306929754E+02 -0.80702879491E+03  0.80815468721E+03  0.47000000000E+01 0. -1.
        -13    1    4    4    0    0 -0.29782813596E+01  0.18837440069E+02 -0.13301524657E+02  0.23251878772E+02  0.00000000000E+00 0.  1.
         14    1    4    4    0    0  0.63319115388E+02  0.36391877640E+02 -0.36033230927E+03  0.36765888026E+03  0.00000000000E+00 0. -1.
         -5    1    5    5    0  501  0.19615697427E+02 -0.67621217967E+02  0.11703131142E+02  0.71529420405E+02  0.47000000000E+01 0.  1.
         13    1    6    6    0    0 -0.78102473932E+02 -0.53855481349E+02 -0.64076297648E+02  0.11448223105E+03  0.00000000000E+00 0. -1.
        -14    1    6    6    0    0 -0.11349856980E+02  0.24940451854E+02 -0.23865291769E+02  0.36337274847E+02  0.00000000000E+00 0.  1.
</event>
<event>
12    1  0.1348628E-002  0.1746995E+03  0.7818608E-02  0.1173034E+00
         -2   -1    0    0    0  501 -0.00000000000E+00  0.00000000000E+00  0.21611988919E+02  0.21611988919E+02  0.00000000000E+00 0.  1.
          2   -1    0    0  502    0  0.00000000000E+00 -0.00000000000E+00 -0.16237773646E+04  0.16237773646E+04  0.00000000000E+00 0. -1.
          6    2    1    2  502    0 -0.99045289021E+01  0.28318350430E+02 -0.50566710553E+03  0.53512289106E+03  0.17250292247E+03 0.  0.
         24    2    3    3    0    0 -0.32019646068E+02 -0.38138997146E+02 -0.20053526514E+03  0.22202037195E+03  0.81233073057E+02 0.  0.
         -6    2    1    2    0  501  0.99045289021E+01 -0.28318350430E+02 -0.10964982702E+04  0.11102664625E+04  0.17170653031E+03 0.  0.
        -24    2    5    5    0    0 -0.17286196746E+02 -0.43945189401E+02 -0.10484423100E+04  0.10526904348E+04  0.81828368031E+02 0.  0.
          5    1    3    3  502    0  0.22115117166E+02  0.66457347576E+02 -0.30513184039E+03  0.31310251911E+03  0.47000000000E+01 0. -1.
        -13    1    4    4    0    0 -0.42606762022E+02  0.94519203148E+01 -0.67979796205E+02  0.80783213972E+02  0.00000000000E+00 0.  1.
         14    1    4    4    0    0  0.10587115954E+02 -0.47590917461E+02 -0.13255546893E+03  0.14123715797E+03  0.00000000000E+00 0. -1.
         -5    1    5    5    0  501  0.27190725648E+02  0.15626838971E+02 -0.48055960190E+02  0.57576027713E+02  0.47000000000E+01 0.  1.
         13    1    6    6    0    0 -0.37064268764E+02 -0.68506808819E+01 -0.22179375983E+03  0.22497369568E+03  0.00000000000E+00 0. -1.
        -14    1    6    6    0    0  0.19778072019E+02 -0.37094508519E+02 -0.82664855017E+03  0.82771673910E+03  0.00000000000E+00 0.  1.
</event>
<event>
12    1  0.1348628E-002  0.1855517E+03  0.7818608E-02  0.1162536E+00
          3   -1    0    0  502    0  0.00000000000E+00  0.00000000000E+00  0.26534352799E+02  0.26534352799E+02  0.00000000000E+00 0.  1.
         -3   -1    0    0    0  501 -0.00000000000E+00 -0.00000000000E+00 -0.13154077509E+04  0.13154077509E+04  0.00000000000E+00 0. -1.
          6    2    1    2  502    0  0.66322132054E+02 -0.29683859767E+02 -0.72272363248E+03  0.74616923762E+03  0.17076101865E+03 0.  0.
         24    2    3    3    0    0  0.50340473270E+02 -0.34819195641E+02 -0.18219867565E+03  0.20536326127E+03  0.72326841758E+02 0.  0.
         -6    2    1    2    0  501 -0.66322132054E+02  0.29683859767E+02 -0.56614976557E+03  0.59577286603E+03  0.17070440566E+03 0.  0.
        -24    2    5    5    0    0 -0.60234561628E+02  0.14509310689E+02 -0.56958460605E+03  0.57841736020E+03  0.79380706836E+02 0.  0.
          5    1    3    3  502    0  0.15981658785E+02  0.51353358736E+01 -0.54052495684E+03  0.54080597635E+03  0.47000000000E+01 0. -1.
        -13    1    4    4    0    0  0.42495148243E+02 -0.48656919482E+02 -0.17732570910E+03  0.18872662913E+03  0.00000000000E+00 0.  1.
         14    1    4    4    0    0  0.78453250269E+01  0.13837723842E+02 -0.48729665504E+01  0.16636632138E+02  0.00000000000E+00 0. -1.
         -5    1    5    5    0  501 -0.60875704265E+01  0.15174549078E+02  0.34348404836E+01  0.17355505829E+02  0.47000000000E+01 0.  1.
         13    1    6    6    0    0  0.17640267426E+02  0.12594687146E+02 -0.16331080937E+03  0.16474290769E+03  0.00000000000E+00 0. -1.
        -14    1    6    6    0    0 -0.77874829054E+02  0.19146235428E+01 -0.40627379669E+03  0.41367445251E+03  0.00000000000E+00 0.  1.
</event>
<event>
12    1  0.1348628E-002  0.1875974E+03  0.7818608E-02  0.1160646E+00
         -2   -1    0    0    0  501 -0.00000000000E+00  0.00000000000E+00  0.75487498677E+03  0.75487498677E+03  0.00000000000E+00 0.  1.
          2   -1    0    0  502    0  0.00000000000E+00 -0.00000000000E+00 -0.46733019637E+02  0.46733019637E+02  0.00000000000E+00 0. -1.
          6    2    1    2  502    0 -0.40640822030E+02 -0.59969323279E+02  0.37606930341E+03  0.42087484782E+03  0.17452656078E+03 0.  0.
         24    2    3    3    0    0  0.42188500933E+02 -0.39787109120E+02  0.24805704825E+03  0.26700072401E+03  0.79963765356E+02 0.  0.
         -6    2    1    2    0  501  0.40640822030E+02  0.59969323279E+02  0.33207266373E+03  0.38073315859E+03  0.17157356410E+03 0.  0.
        -24    2    5    5    0    0  0.28317067692E+02 -0.29264784799E+02  0.17579527016E+03  0.20029116040E+03  0.86915407002E+02 0.  0.
          5    1    3    3  502    0 -0.82829322963E+02 -0.20182214159E+02  0.12801225515E+03  0.15387412382E+03  0.47000000000E+01 0. -1.
        -11    1    4    4    0    0  0.86543080646E-01 -0.54133179025E+02  0.14382240719E+03  0.15367268258E+03  0.00000000000E+00 0.  1.
         12    1    4    4    0    0  0.42101957852E+02  0.14346069905E+02  0.10423464107E+03  0.11332804143E+03  0.00000000000E+00 0. -1.
         -5    1    5    5    0  501  0.12323754338E+02  0.89234108078E+02  0.15627739357E+03  0.18044199818E+03  0.47000000000E+01 0.  1.
         13    1    6    6    0    0  0.16142083044E+02  0.10118851228E+02 -0.68166962602E+00  0.19063647832E+02  0.00000000000E+00 0. -1.
        -14    1    6    6    0    0  0.12174984648E+02 -0.39383636027E+02  0.17647693978E+03  0.18122751257E+03  0.00000000000E+00 0.  1.
</event>
<event>
12    1  0.1348628E-002  0.2424796E+03  0.7818608E-02  0.1118152E+00
          1   -1    0    0  502    0  0.00000000000E+00  0.00000000000E+00  0.10897285387E+04  0.10897285387E+04  0.00000000000E+00 0.  1.
         -1   -1    0    0    0  501 -0.00000000000E+00 -0.00000000000E+00 -0.64352699523E+02  0.64352699523E+02  0.00000000000E+00 0. -1.
          6    2    1    2  502    0 -0.16492147300E+03  0.62706064884E+02  0.26768644670E+03  0.35609797921E+03  0.15497933483E+03 0.  0.
         24    2    3    3    0    0 -0.97126161985E+02  0.75351010996E+02  0.10866196226E+03  0.18269966460E+03  0.80377106224E+02 0.  0.
         -6    2    1    2    0  501  0.16492147300E+03 -0.62706064884E+02  0.75768939250E+03  0.79798325903E+03  0.17763142558E+03 0.  0.
        -24    2    5    5    0    0  0.94353753143E+02 -0.61317725722E+02  0.67277569548E+03  0.68746558392E+03  0.85552898354E+02 0.  0.
          5    1    3    3  502    0 -0.67795311015E+02 -0.12644946112E+02  0.15902448444E+03  0.17339831461E+03  0.47000000000E+01 0. -1.
        -11    1    4    4    0    0 -0.32506587223E+01  0.39497645012E+01  0.51285878262E+02  0.51540360213E+02  0.00000000000E+00 0.  1.
         12    1    4    4    0    0 -0.93875503262E+02  0.71401246495E+02  0.57376083994E+02  0.13115930439E+03  0.00000000000E+00 0. -1.
         -5    1    5    5    0  501  0.70567719857E+02 -0.13883391621E+01  0.84913697018E+02  0.11051767511E+03  0.47000000000E+01 0.  1.
         11    1    6    6    0    0  0.57953249361E+02  0.11528326678E+02  0.32033885832E+03  0.32574294402E+03  0.00000000000E+00 0. -1.
        -12    1    6    6    0    0  0.36400503782E+02 -0.72846052400E+02  0.35243683717E+03  0.36172263990E+03  0.00000000000E+00 0.  1.
</event>
<event>
12    1  0.1348628E-002  0.2154699E+03  0.7818608E-02  0.1137306E+00
          2   -1    0    0  502    0  0.00000000000E+00  0.00000000000E+00  0.13520846093E+04  0.13520846093E+04  0.00000000000E+00 0. -1.
         -2   -1    0    0    0  501 -0.00000000000E+00 -0.00000000000E+00 -0.35470268779E+02  0.35470268779E+02  0.00000000000E+00 0.  1.
          6    2    1    2  502    0  0.75542221151E+02  0.10687971158E+03  0.53079235777E+03  0.57240413901E+03  0.16963511241E+03 0.  0.
         24    2    3    3    0    0  0.30420546848E+02  0.13324787085E+03  0.34737590791E+03  0.38162958778E+03  0.79314034811E+02 0.  0.
         -6    2    1    2    0  501 -0.75542221151E+02 -0.10687971158E+03  0.78582198277E+03  0.81515073909E+03  0.17269811497E+03 0.  0.
        -24    2    5    5    0    0 -0.69466719209E+02 -0.14291317407E+03  0.68763016917E+03  0.71027441001E+03  0.80029291922E+02 0.  0.
          5    1    3    3  502    0  0.45121674303E+02 -0.26368159275E+02  0.18341644987E+03  0.19077455123E+03  0.47000000000E+01 0. -1.
        -11    1    4    4    0    0  0.38415783439E+02  0.24657184707E+02  0.69169741563E+02  0.82874618085E+02  0.00000000000E+00 0.  1.
         12    1    4    4    0    0 -0.79952365907E+01  0.10859068615E+03  0.27820616634E+03  0.29875496969E+03  0.00000000000E+00 0. -1.
         -5    1    5    5    0  501 -0.60755019421E+01  0.36033462492E+02  0.98191813608E+02  0.10487632909E+03  0.47000000000E+01 0.  1.
         13    1    6    6    0    0 -0.26206772453E+02 -0.86055457100E+01  0.22276455818E+03  0.22446580746E+03  0.00000000000E+00 0. -1.
        -14    1    6    6    0    0 -0.43259946756E+02 -0.13430762836E+03  0.46486561099E+03  0.48580860255E+03  0.00000000000E+00 0.  1.
</event>
<event>
12    1  0.1348628E-002  0.1866998E+03  0.7818608E-02  0.1161472E+00
         -2   -1    0    0    0  501 -0.00000000000E+00  0.00000000000E+00  0.31699687355E+03  0.31699687355E+03  0.00000000000E+00 0. -1.
          2   -1    0    0  502    0  0.00000000000E+00 -0.00000000000E+00 -0.12088018525E+03  0.12088018525E+03  0.00000000000E+00 0.  1.
          6    2    1    2  502    0  0.44679392025E+02 -0.63943440190E+02  0.16291225776E+03  0.24635271395E+03  0.16752386196E+03 0.  0.
         24    2    3    3    0    0  0.57517112072E+02 -0.17266501019E+02  0.17004611755E+03  0.19719454411E+03  0.79772525944E+02 0.  0.
         -6    2    1    2    0  501 -0.44679392025E+02  0.63943440190E+02  0.33204430534E+02  0.19152434485E+03  0.17173825680E+03 0.  0.
        -24    2    5    5    0    0 -0.17211257435E+02 -0.32131324374E+02  0.20436664329E+02  0.90678102195E+02  0.80474912739E+02 0.  0.
          5    1    3    3  502    0 -0.12837720047E+02 -0.46676939171E+02 -0.71338597825E+01  0.49158169838E+02  0.47000000000E+01 0. -1.
        -11    1    4    4    0    0  0.47207952048E+02 -0.16825596720E+02  0.33552319697E+02  0.60311272567E+02  0.00000000000E+00 0.  1.
         12    1    4    4    0    0  0.10309160024E+02 -0.44090429871E+00  0.13649379785E+03  0.13688327154E+03  0.00000000000E+00 0. -1.
         -5    1    5    5    0  501 -0.27468134590E+02  0.96074764565E+02  0.12767766205E+02  0.10084624266E+03  0.47000000000E+01 0.  1.
         11    1    6    6    0    0 -0.30182518440E+02  0.11749946310E+02  0.29753610934E+02  0.43980939295E+02  0.00000000000E+00 0. -1.
        -12    1    6    6    0    0  0.12971261005E+02 -0.43881270685E+02 -0.93169466049E+01  0.46697162901E+02  0.00000000000E+00 0.  1.
</event>
<event>
12    1  0.1348628E-002  0.2083363E+03  0.7818608E-02  0.1142890E+00
         -2   -1    0    0    0  501 -0.00000000000E+00  0.00000000000E+00  0.10573498609E+03  0.10573498609E+03  0.00000000000E+00 0. -1.
          2   -1    0    0  502    0  0.00000000000E+00 -0.00000000000E+00 -0.11006801421E+04  0.11006801421E+04  0.00000000000E+00 0.  1.
          6    2    1    2  502    0  0.30688809066E+02  0.11495680022E+03 -0.97597959042E+03  0.99816881637E+03  0.17218581862E+03 0.  0.
         24    2    3    3    0    0  0.48582573657E+02  0.14663879670E+03 -0.79874651019E+03  0.81717823529E+03  0.76948538175E+02 0.  0.
         -6    2    1    2    0  501 -0.30688809066E+02 -0.11495680022E+03 -0.18965565538E+02  0.20824631177E+03  0.16985277381E+03 0.  0.
        -24    2    5    5    0    0  0.46981814033E+02 -0.78083175200E+02 -0.21517381830E+02  0.12210113384E+03  0.78367187419E+02 0.  0.
          5    1    3    3  502    0 -0.17893764591E+02 -0.31681996476E+02 -0.17723308023E+03  0.18099058108E+03  0.47000000000E+01 0. -1.
        -11    1    4    4    0    0 -0.19202698115E+02  0.56945154960E+02 -0.28846719674E+03  0.29466051293E+03  0.00000000000E+00 0.  1.
         12    1    4    4    0    0  0.67785271772E+02  0.89693641741E+02 -0.51027931346E+03  0.52251772236E+03  0.00000000000E+00 0. -1.
         -5    1    5    5    0  501 -0.77670623099E+02 -0.36873625025E+02  0.25518162913E+01  0.86145177936E+02  0.47000000000E+01 0.  1.
         13    1    6    6    0    0  0.19127831829E+02 -0.15387084685E+02  0.28190412734E+02  0.37380953649E+02  0.00000000000E+00 0. -1.
        -14    1    6    6    0    0  0.27853982204E+02 -0.62696090515E+02 -0.49707794563E+02  0.84720180186E+02  0.00000000000E+00 0.  1.
</event>
<event>
12    1  0.1348628E-002  0.1721886E+03  0.7818608E-02  0.1175585E+00
          1   -1    0    0  502    0  0.00000000000E+00  0.00000000000E+00  0.68028043845E+02  0.68028043845E+02  0.00000000000E+00 0. -1.
         -1   -1    0    0    0  501 -0.00000000000E+00 -0.00000000000E+00 -0.43621752962E+03  0.43621752962E+03  0.00000000000E+00 0.  1.
          6    2    1    2  502    0 -0.11564182286E+02  0.15635885524E+02 -0.17606014413E+03  0.24587219653E+03  0.17052199696E+03 0.  0.
         24    2    3    3    0    0 -0.31977106257E+02  0.47418926586E+02 -0.18256686836E+03  0.20725514558E+03  0.79705357551E+02 0.  0.
         -6    2    1    2    0  501  0.11564182286E+02 -0.15635885524E+02 -0.19212934164E+03  0.25837337693E+03  0.17165344960E+03 0.  0.
        -24    2    5    5    0    0  0.18056906146E+02 -0.73962164107E+02 -0.14504672003E+03  0.18298787770E+03  0.81544827030E+02 0.  0.
          5    1    3    3  502    0  0.20412923971E+02 -0.31783041062E+02  0.65067242286E+01  0.38617050954E+02  0.47000000000E+01 0. -1.
        -13    1    4    4    0    0  0.20003443219E+02  0.24084711817E+02 -0.11339701844E+03  0.11763968240E+03  0.00000000000E+00 0.  1.
         14    1    4    4    0    0 -0.51980549476E+02  0.23334214769E+02 -0.69169849921E+02  0.89615463179E+02  0.00000000000E+00 0. -1.
         -5    1    5    5    0  501 -0.64927238598E+01  0.58326278583E+02 -0.47082621615E+02  0.75385499233E+02  0.47000000000E+01 0.  1.
         13    1    6    6    0    0  0.43607604654E+02 -0.16597960369E+02 -0.79733806267E+02  0.92382873596E+02  0.00000000000E+00 0. -1.
        -14    1    6    6    0    0 -0.25550698508E+02 -0.57364203738E+02 -0.65312913760E+02  0.90605004104E+02  0.00000000000E+00 0.  1.
</event>
<event>
12    1  0.1348628E-002  0.1979216E+03  0.7818608E-02  0.1151505E+00
         -4   -1    0    0    0  501 -0.00000000000E+00  0.00000000000E+00  0.43165973347E+03  0.43165973347E+03  0.00000000000E+00 0.  1.
          4   -1    0    0  502    0  0.00000000000E+00 -0.00000000000E+00 -0.25849595379E+03  0.25849595379E+03  0.00000000000E+00 0. -1.
          6    2    1    2  502    0 -0.71076645739E+02  0.69268290974E+02 -0.19137833719E+03  0.27541732269E+03  0.17140317380E+03 0.  0.
         24    2    3    3    0    0 -0.35719871973E+02  0.10008652730E+03 -0.18423345353E+03  0.22774128570E+03  0.81430372778E+02 0.  0.
         -6    2    1    2    0  501  0.71076645739E+02 -0.69268290974E+02  0.36454211687E+03  0.41473836457E+03  0.17107591990E+03 0.  0.
        -24    2    5    5    0    0  0.92460451945E+02 -0.10792693129E+01  0.26765060917E+03  0.29425158477E+03  0.79981538826E+02 0.  0.
          5    1    3    3  502    0 -0.35356773766E+02 -0.30818236321E+02 -0.71448836583E+01  0.47676036995E+02  0.47000000000E+01 0. -1.
        -13    1    4    4    0    0 -0.58633348969E+01  0.25014568506E+02  0.94084171446E+00  0.25709774732E+02  0.00000000000E+00 0.  1.
         14    1    4    4    0    0 -0.29856537076E+02  0.75071958789E+02 -0.18517429525E+03  0.20203151097E+03  0.00000000000E+00 0. -1.
         -5    1    5    5    0  501 -0.21383806206E+02 -0.68189021661E+02  0.96891507699E+02  0.12048677980E+03  0.47000000000E+01 0.  1.
         11    1    6    6    0    0  0.21341338702E+01  0.27030133434E+02  0.71858396958E+02  0.76803722919E+02  0.00000000000E+00 0. -1.
        -12    1    6    6    0    0  0.90326318075E+02 -0.28109402747E+02  0.19579221222E+03  0.21744786185E+03  0.00000000000E+00 0.  1.
</event>
<event>
12    1  0.1348628E-002  0.1697183E+03  0.7818608E-02  0.1178142E+00
         -1   -1    0    0    0  501 -0.00000000000E+00  0.00000000000E+00  0.64448515530E+02  0.64448515530E+02  0.00000000000E+00 0.  1.
          1   -1    0    0  502    0  0.00000000000E+00 -0.00000000000E+00 -0.66618903716E+03  0.66618903716E+03  0.00000000000E+00 0. -1.
          6    2    1    2  502    0 -0.10976986244E+02 -0.90385436526E+00 -0.97602637032E+02  0.20027650129E+03  0.17453678992E+03 0.  0.
         24    2    3    3    0    0 -0.51169740897E+02  0.27160142542E+01  0.50218356866E+00  0.94091724606E+02  0.78913125233E+02 0.  0.
         -6    2    1    2    0  501  0.10976986244E+02  0.90385436526E+00 -0.50413788460E+03  0.53036105139E+03  0.16433662699E+03 0.  0.
        -24    2    5    5    0    0  0.34720441966E+02 -0.35091557183E+02 -0.45692599673E+03  0.46624807535E+03  0.78542821431E+02 0.  0.
          5    1    3    3  502    0  0.40192754652E+02 -0.36198686194E+01 -0.98104820600E+02  0.10618477669E+03  0.47000000000E+01 0. -1.
        -13    1    4    4    0    0 -0.50585913611E+02  0.34530172393E+02  0.69011549727E+01  0.61635163675E+02  0.00000000000E+00 0.  1.
         14    1    4    4    0    0 -0.58382728590E+00 -0.31814158139E+02 -0.63989714040E+01  0.32456560930E+02  0.00000000000E+00 0. -1.
         -5    1    5    5    0  501 -0.23743455721E+02  0.35995411548E+02 -0.47211887863E+02  0.64112976048E+02  0.47000000000E+01 0.  1.
         11    1    6    6    0    0  0.27820061563E+02 -0.25334620549E+02 -0.72915045259E+02  0.82051219667E+02  0.00000000000E+00 0. -1.
        -12    1    6    6    0    0  0.69003804020E+01 -0.97569366339E+01 -0.38401095147E+03  0.38419685568E+03  0.00000000000E+00 0.  1.
</event>
<event>
12    1  0.1348628E-002  0.1820181E+03  0.7818608E-02  0.1165864E+00
         -2   -1    0    0    0  501 -0.00000000000E+00  0.00000000000E+00  0.23309637106E+03  0.23309637106E+03  0.00000000000E+00 0.  1.
          2   -1    0    0  502    0  0.00000000000E+00 -0.00000000000E+00 -0.14285272259E+03  0.14285272259E+03  0.00000000000E+00 0. -1.
          6    2    1    2  502    0  0.56917494147E+02  0.15872026117E+02  0.58463655296E+02  0.19116108480E+03  0.17214249620E+03 0.  0.
         24    2    3    3    0    0 -0.97117552771E+01  0.10183318391E+02 -0.24402259566E+02  0.84574649827E+02  0.79745739431E+02 0.  0.
         -6    2    1    2    0  501 -0.56917494147E+02 -0.15872026117E+02  0.31779993168E+02  0.18478800885E+03  0.17217757664E+03 0.  0.
        -24    2    5    5    0    0 -0.30252310505E+02 -0.37386027006E+02 -0.43570208189E+02  0.10188066842E+03  0.78539100135E+02 0.  0.
          5    1    3    3  502    0  0.66629249424E+02  0.56887077255E+01  0.82865914861E+02  0.10658643497E+03  0.47000000000E+01 0. -1.
        -11    1    4    4    0    0 -0.39694638264E+02 -0.13984072020E+02 -0.16834497631E+02  0.45327904074E+02  0.00000000000E+00 0.  1.
         12    1    4    4    0    0  0.29982882987E+02  0.24167390411E+02 -0.75677619341E+01  0.39246745753E+02  0.00000000000E+00 0. -1.
         -5    1    5    5    0  501 -0.26665183641E+02  0.21514000890E+02  0.75350201357E+02  0.82907340432E+02  0.47000000000E+01 0.  1.
         13    1    6    6    0    0  0.25444888762E+02 -0.22396922775E+02 -0.10982459523E+02  0.35632554372E+02  0.00000000000E+00 0. -1.
        -14    1    6    6    0    0 -0.55697199267E+02 -0.14989104231E+02 -0.32587748666E+02  0.66248114049E+02  0.00000000000E+00 0.  1.
</event>
<event>
12    1  0.1348628E-002  0.1883571E+03  0.7818608E-02  0.1159952E+00
          1   -1    0    0  502    0  0.00000000000E+00  0.00000000000E+00  0.27463244484E+04  0.27463244484E+04  0.00000000000E+00 0. -1.
         -1   -1    0    0    0  501 -0.00000000000E+00 -0.00000000000E+00 -0.14413734305E+02  0.14413734305E+02  0.00000000000E+00 0.  1.
          6    2    1    2  502    0 -0.15120480147E+01 -0.79342228633E+02  0.18038802194E+04  0.18135824811E+04  0.16970590581E+03 0.  0.
         24    2    3    3    0    0  0.22253497563E+02 -0.10076280537E+03  0.93054087572E+03  0.93964464499E+03  0.79858477100E+02 0.  0.
         -6    2    1    2    0  501  0.15120480147E+01  0.79342228633E+02  0.92803049466E+03  0.94715570152E+03  0.17194722552E+03 0.  0.
        -24    2    5    5    0    0 -0.63212741423E+02  0.49526808278E+02  0.66893130624E+03  0.67839421414E+03  0.79377968542E+02 0.  0.
          5    1    3    3  502    0 -0.23765545578E+02  0.21420576738E+02  0.87333934367E+03  0.87393783615E+03  0.47000000000E+01 0. -1.
        -11    1    4    4    0    0 -0.16062198991E+02  0.43255776276E+01  0.18684407479E+03  0.18758308330E+03  0.00000000000E+00 0.  1.
         12    1    4    4    0    0  0.38315696554E+02 -0.10508838300E+03  0.74369680094E+03  0.75206156169E+03  0.00000000000E+00 0. -1.
         -5    1    5    5    0  501  0.64724789438E+02  0.29815420355E+02  0.25909918842E+03  0.26876148738E+03  0.47000000000E+01 0.  1.
         13    1    6    6    0    0  0.16014278075E+02  0.24810127429E+02  0.20151020814E+03  0.20366237627E+03  0.00000000000E+00 0. -1.
        -14    1    6    6    0    0 -0.79227019498E+02  0.24716680849E+02  0.46742109810E+03  0.47473183786E+03  0.00000000000E+00 0.  1.
</event>
<event>
12    1  0.1348628E-002  0.2879614E+03  0.7818608E-02  0.1091418E+00
          1   -1    0    0  502    0  0.00000000000E+00  0.00000000000E+00  0.80983422479E+03  0.80983422479E+03  0.00000000000E+00 0. -1.
         -1   -1    0    0    0  501 -0.00000000000E+00 -0.00000000000E+00 -0.12590949187E+03  0.12590949187E+03  0.00000000000E+00 0.  1.
          6    2    1    2  502    0  0.11371549712E+03 -0.20081674591E+03  0.54432228309E+03  0.61587705579E+03  0.17250860920E+03 0.  0.
         24    2    3    3    0    0  0.92469886664E+02 -0.11682984556E+03  0.47722586378E+03  0.50619936946E+03  0.79330850379E+02 0.  0.
         -6    2    1    2    0  501 -0.11371549712E+03  0.20081674591E+03  0.13960244982E+03  0.31986666088E+03  0.17195132165E+03 0.  0.
        -24    2    5    5    0    0 -0.97090614250E+02  0.97100660275E+02  0.19823974541E+02  0.16048540008E+03  0.80668755241E+02 0.  0.
          5    1    3    3  502    0  0.21245610454E+02 -0.83986900350E+02  0.67096419310E+02  0.10967768633E+03  0.47000000000E+01 0. -1.
        -11    1    4    4    0    0  0.12339589907E+01 -0.93073641318E+01  0.89234807590E+00  0.94311169520E+01  0.00000000000E+00 0.  1.
         12    1    4    4    0    0  0.91235927673E+02 -0.10752248143E+03  0.47633351571E+03  0.49676825251E+03  0.00000000000E+00 0. -1.
         -5    1    5    5    0  501 -0.16624882868E+02  0.10371608564E+03  0.11977847528E+03  0.15938126079E+03  0.47000000000E+01 0.  1.
         11    1    6    6    0    0 -0.60532307990E+02  0.59268800720E+01  0.36366039141E+01  0.60930395584E+02  0.00000000000E+00 0. -1.
        -12    1    6    6    0    0 -0.36558306260E+02  0.91173780203E+02  0.16187370627E+02  0.99555004500E+02  0.00000000000E+00 0.  1.
</event>
<event>
12    1  0.1348628E-002  0.2842741E+03  0.7818608E-02  0.1093377E+00
         -2   -1    0    0    0  501 -0.00000000000E+00  0.00000000000E+00  0.10282666883E+03  0.10282666883E+03  0.00000000000E+00 0.  1.
          2   -1    0    0  502    0  0.00000000000E+00 -0.00000000000E+00 -0.16247585037E+04  0.16247585037E+04  0.00000000000E+00 0. -1.
          6    2    1    2  502    0  0.18763931302E+03  0.12745753058E+03 -0.13989719916E+03  0.31655425622E+03  0.17082575012E+03 0.  0.
         24    2    3    3    0    0  0.38242963759E+02  0.72626520231E+02 -0.36488149845E+02  0.12670897619E+03  0.89368024762E+02 0.  0.
         -6    2    1    2    0  501 -0.18763931302E+03 -0.12745753058E+03 -0.13820346358E+04  0.14110309164E+04  0.17185627304E+03 0.  0.
        -24    2    5    5    0    0 -0.14600312639E+03 -0.19384354850E+02 -0.86637481082E+03  0.88250416357E+03  0.80719389084E+02 0.  0.
          5    1    3    3  502    0  0.14939634927E+03  0.54831010349E+02 -0.10340904932E+03  0.18984528003E+03  0.47000000000E+01 0. -1.
        -13    1    4    4    0    0 -0.34219257938E+01  0.24189764748E+02 -0.55006861991E+02  0.60188114780E+02  0.00000000000E+00 0.  1.
         14    1    4    4    0    0  0.41664889552E+02  0.48436755483E+02  0.18518712145E+02  0.66520861409E+02  0.00000000000E+00 0. -1.
         -5    1    5    5    0  501 -0.41636186633E+02 -0.10807317573E+03 -0.51565982494E+03  0.52852675278E+03  0.47000000000E+01 0.  1.
         13    1    6    6    0    0 -0.10590838381E+03 -0.47210132439E+02 -0.52457721367E+03  0.53723983050E+03  0.00000000000E+00 0. -1.
        -14    1    6    6    0    0 -0.40094742584E+02  0.27825777589E+02 -0.34179759714E+03  0.34526433308E+03  0.00000000000E+00 0.  1.
</event>
<event>
12    1  0.1348628E-002  0.1877971E+03  0.7818608E-02  0.1160463E+00
          2   -1    0    0  502    0  0.00000000000E+00  0.00000000000E+00  0.76288551881E+03  0.76288551881E+03  0.00000000000E+00 0. -1.
         -2   -1    0    0    0  501 -0.00000000000E+00 -0.00000000000E+00 -0.47213442755E+02  0.47213442755E+02  0.00000000000E+00 0.  1.
          6    2    1    2  502    0 -0.52626683217E+02  0.32668823281E+02  0.42341493310E+03  0.46492305806E+03  0.18175924884E+03 0.  0.
         24    2    3    3    0    0  0.27745547287E+02  0.49110708831E+02  0.30624289235E+03  0.32180978764E+03  0.81210548509E+02 0.  0.
         -6    2    1    2    0  501  0.52626683217E+02 -0.32668823281E+02  0.29225714296E+03  0.34517590351E+03  0.17290270950E+03 0.  0.
        -24    2    5    5    0    0  0.12191018315E+02 -0.81888031249E+02  0.15017119546E+03  0.18939374822E+03  0.80401077921E+02 0.  0.
          5    1    3    3  502    0 -0.80372230504E+02 -0.16441885550E+02  0.11717204076E+03  0.14311327042E+03  0.47000000000E+01 0. -1.
        -11    1    4    4    0    0 -0.13172096905E+01  0.11585390176E+02 -0.25083547258E+00  0.11662728040E+02  0.00000000000E+00 0.  1.
         12    1    4    4    0    0  0.29062756977E+02  0.37525318655E+02  0.30649372782E+03  0.31014705960E+03  0.00000000000E+00 0. -1.
         -5    1    5    5    0  501  0.40435664902E+02  0.49219207968E+02  0.14208594750E+03  0.15578215529E+03  0.47000000000E+01 0.  1.
         13    1    6    6    0    0 -0.11964496096E+02 -0.62676452544E+02  0.40767058264E+02  0.75719481706E+02  0.00000000000E+00 0. -1.
        -14    1    6    6    0    0  0.24155514411E+02 -0.19211578705E+02  0.10940413719E+03  0.11367426652E+03  0.00000000000E+00 0.  1.
</event>
<event>
12    1  0.1348628E-002  0.1953974E+03  0.7818608E-02  0.1153681E+00
         -2   -1    0    0    0  501 -0.00000000000E+00  0.00000000000E+00  0.28756128331E+02  0.28756128331E+02  0.00000000000E+00 0.  1.
          2   -1    0    0  502    0  0.00000000000E+00 -0.00000000000E+00 -0.13585100233E+04  0.13585100233E+04  0.00000000000E+00 0. -1.
          6    2    1    2  502    0  0.66893934715E+02  0.52033390685E+02 -0.62687337130E+03  0.66154117977E+03  0.19360846220E+03 0.  0.
         24    2    3    3    0    0 -0.31227540945E+02 -0.18654155595E+02 -0.22208255018E+03  0.23904591110E+03  0.80617316279E+02 0.  0.
         -6    2    1    2    0  501 -0.66893934715E+02 -0.52033390685E+02 -0.70288052362E+03  0.72572497181E+03  0.15954131748E+03 0.  0.
        -24    2    5    5    0    0 -0.92371001455E+02 -0.27689954637E+00 -0.50795769118E+03  0.52239072504E+03  0.79615168130E+02 0.  0.
          5    1    3    3  502    0  0.98121475660E+02  0.70687546280E+02 -0.40479082113E+03  0.42249526867E+03  0.47000000000E+01 0. -1.
        -11    1    4    4    0    0 -0.85414686244E+01  0.27325905184E+02 -0.35820810169E+02  0.45856212464E+02  0.00000000000E+00 0.  1.
         12    1    4    4    0    0 -0.22686072321E+02 -0.45980060779E+02 -0.18626174001E+03  0.19318969863E+03  0.00000000000E+00 0. -1.
         -5    1    5    5    0  501  0.25477066740E+02 -0.51756491139E+02 -0.19492283244E+03  0.20333424677E+03  0.47000000000E+01 0.  1.
         13    1    6    6    0    0 -0.12577648530E+01  0.10541330587E+02 -0.21808653151E+03  0.21834476602E+03  0.00000000000E+00 0. -1.
        -14    1    6    6    0    0 -0.91113236602E+02 -0.10818230133E+02 -0.28987115967E+03  0.30404595902E+03  0.00000000000E+00 0.  1.
</event>
<event>
12    1  0.1348628E-002  0.1736677E+03  0.7818608E-02  0.1174076E+00
          2   -1    0    0  502    0  0.00000000000E+00  0.00000000000E+00  0.62895953026E+03  0.62895953026E+03  0.00000000000E+00 0. -1.
         -2   -1    0    0    0  501 -0.00000000000E+00 -0.00000000000E+00 -0.47985571274E+02  0.47985571274E+02  0.00000000000E+00 0.  1.
          6    2    1    2  502    0 -0.21893385647E+02 -0.21396525934E+02  0.30123596773E+03  0.34842527446E+03  0.17239469821E+03 0.  0.
         24    2    3    3    0    0  0.46176683553E+02 -0.24837535630E+02  0.23718723403E+03  0.25477857053E+03  0.76844952562E+02 0.  0.
         -6    2    1    2    0  501  0.21893385647E+02  0.21396525934E+02  0.27973799126E+03  0.32851982708E+03  0.16951342534E+03 0.  0.
        -24    2    5    5    0    0  0.52814425465E+02  0.65999183989E+02  0.19726198409E+03  0.22967707536E+03  0.81816946614E+02 0.  0.
          5    1    3    3  502    0 -0.68070069200E+02  0.34410096960E+01  0.64048733707E+02  0.93646703936E+02  0.47000000000E+01 0. -1.
        -13    1    4    4    0    0  0.23230412997E+01  0.24548938059E+02  0.41811260523E+02  0.48540996974E+02  0.00000000000E+00 0.  1.
         14    1    4    4    0    0  0.43853642254E+02 -0.49386473689E+02  0.19537597350E+03  0.20623757355E+03  0.00000000000E+00 0. -1.
         -5    1    5    5    0  501 -0.30921039819E+02 -0.44602658055E+02  0.82476007165E+02  0.98842751717E+02  0.47000000000E+01 0.  1.
         13    1    6    6    0    0  0.62221970428E+02  0.47713466902E+02  0.19348508977E+03  0.20876931885E+03  0.00000000000E+00 0. -1.
        -14    1    6    6    0    0 -0.94075449630E+01  0.18285717087E+02  0.37768943183E+01  0.20907756510E+02  0.00000000000E+00 0.  1.
</event>
<event>
12    1  0.1348628E-002  0.1787917E+03  0.7818608E-02  0.1168978E+00
         -2   -1    0    0    0  501 -0.00000000000E+00  0.00000000000E+00  0.36383195053E+02  0.36383195053E+02  0.00000000000E+00 0.  1.
          2   -1    0    0  502    0  0.00000000000E+00 -0.00000000000E+00 -0.10651706475E+04  0.10651706475E+04  0.00000000000E+00 0. -1.
          6    2    1    2  502    0 -0.35449966681E+02  0.33331412549E+02 -0.28325685447E+03  0.33482192553E+03  0.17176609971E+03 0.  0.
         24    2    3    3    0    0  0.24651647188E+02  0.66545879729E+01 -0.24440370603E+03  0.25830059449E+03  0.79586671916E+02 0.  0.
         -6    2    1    2    0  501  0.35449966681E+02 -0.33331412549E+02 -0.74553059794E+03  0.76673191699E+03  0.17232027409E+03 0.  0.
        -24    2    5    5    0    0 -0.39477438080E+02  0.13759151247E+02 -0.41308563630E+03  0.42267759032E+03  0.79175880643E+02 0.  0.
          5    1    3    3  502    0 -0.60101613869E+02  0.26676824576E+02 -0.38853148439E+02  0.76521331031E+02  0.47000000000E+01 0. -1.
        -13    1    4    4    0    0 -0.10697513896E+02  0.15532066583E+02 -0.10522163195E+02  0.21596245373E+02  0.00000000000E+00 0.  1.
         14    1    4    4    0    0  0.35349161085E+02 -0.88774786104E+01 -0.23388154283E+03  0.23670434912E+03  0.00000000000E+00 0. -1.
         -5    1    5    5    0  501  0.74927404761E+02 -0.47090563796E+02 -0.33244496163E+03  0.34405432667E+03  0.47000000000E+01 0.  1.
         11    1    6    6    0    0 -0.49262431360E+01  0.14700872890E+02 -0.35314703839E+03  0.35348721938E+03  0.00000000000E+00 0. -1.
        -12    1    6    6    0    0 -0.34551194944E+02 -0.94172164306E+00 -0.59938597909E+02  0.69190370941E+02  0.00000000000E+00 0.  1.
</event>
<event>
12    1  0.1348628E-002  0.2176097E+03  0.7818608E-02  0.1135678E+00
          2   -1    0    0  502    0  0.00000000000E+00  0.00000000000E+00  0.51442490371E+03  0.51442490371E+03  0.00000000000E+00 0. -1.
         -2   -1    0    0    0  501 -0.00000000000E+00 -0.00000000000E+00 -0.12349219289E+03  0.12349219289E+03  0.00000000000E+00 0.  1.
          6    2    1    2  502    0  0.10378669185E+03  0.80976392190E+02  0.34663279548E+02  0.22055016428E+03  0.17352803381E+03 0.  0.
         24    2    3    3    0    0  0.38670173443E+02  0.54310140851E+02 -0.46784347157E+02  0.11281411727E+03  0.78059440192E+02 0.  0.
         -6    2    1    2    0  501 -0.10378669185E+03 -0.80976392190E+02  0.35626943126E+03  0.41736693232E+03  0.17302715117E+03 0.  0.
        -24    2    5    5    0    0 -0.13700249883E+03 -0.45250634747E+02  0.23189124736E+03  0.28368207077E+03  0.76711550894E+02 0.  0.
          5    1    3    3  502    0  0.65116518403E+02  0.26666251338E+02  0.81447626706E+02  0.10773604701E+03  0.47000000000E+01 0. -1.
        -13    1    4    4    0    0  0.59585246284E+02  0.49488204743E+02 -0.23048531315E+02  0.80812862709E+02  0.00000000000E+00 0.  1.
         14    1    4    4    0    0 -0.20915072841E+02  0.48219361086E+01 -0.23735815843E+02  0.32001254561E+02  0.00000000000E+00 0. -1.
         -5    1    5    5    0  501  0.33215806978E+02 -0.35725757443E+02  0.12437818390E+03  0.13368486155E+03  0.47000000000E+01 0.  1.
         13    1    6    6    0    0  0.74231735123E+01 -0.98864831809E+01  0.33825776011E+02  0.36014291294E+02  0.00000000000E+00 0. -1.
        -14    1    6    6    0    0 -0.14442567234E+03 -0.35364151566E+02  0.19806547135E+03  0.24766777947E+03  0.00000000000E+00 0.  1.
</event>
<event>
12    1  0.1348628E-002  0.1741880E+03  0.7818608E-02  0.1173549E+00
          1   -1    0    0  502    0  0.00000000000E+00  0.00000000000E+00  0.54154128236E+03  0.54154128236E+03  0.00000000000E+00 0. -1.
         -1   -1    0    0    0  501 -0.00000000000E+00 -0.00000000000E+00 -0.57288408099E+02  0.57288408099E+02  0.00000000000E+00 0.  1.
          6    2    1    2  502    0 -0.10636103884E+02 -0.12763286409E+02  0.28132714638E+03  0.32906276268E+03  0.16988616867E+03 0.  0.
         24    2    3    3    0    0 -0.54047899651E+02 -0.50676406930E+02  0.14341325461E+03  0.17951571235E+03  0.78544609659E+02 0.  0.
         -6    2    1    2    0  501  0.10636103884E+02  0.12763286409E+02  0.20292572789E+03  0.26976692779E+03  0.17697264224E+03 0.  0.
        -24    2    5    5    0    0  0.46982434272E+02 -0.49417578449E+02  0.11881099060E+03  0.15892968353E+03  0.80580063461E+02 0.  0.
          5    1    3    3  502    0  0.43411795767E+02  0.37913120521E+02  0.13791389176E+03  0.14954705033E+03  0.47000000000E+01 0. -1.
        -11    1    4    4    0    0 -0.41153556327E+02 -0.68468138280E+02  0.82849926746E+02  0.11508958041E+03  0.00000000000E+00 0.  1.
         12    1    4    4    0    0 -0.12894343324E+02  0.17791731350E+02  0.60563327867E+02  0.64426131938E+02  0.00000000000E+00 0. -1.
         -5    1    5    5    0  501 -0.36346330388E+02  0.62180864858E+02  0.84114737283E+02  0.11083724426E+03  0.47000000000E+01 0.  1.
         11    1    6    6    0    0  0.23594180999E+01  0.21271948929E+02  0.31198547822E+02  0.37834006544E+02  0.00000000000E+00 0. -1.
        -12    1    6    6    0    0  0.44623016172E+02 -0.70689527378E+02  0.87612442782E+02  0.12109567698E+03  0.00000000000E+00 0.  1.
</event>
<event>
12    1  0.1348628E-002  0.2332349E+03  0.7818608E-02  0.1124383E+00
         -2   -1    0    0    0  501 -0.00000000000E+00  0.00000000000E+00  0.99299633223E+02  0.99299633223E+02  0.00000000000E+00 0.  1.
          2   -1    0    0  502    0  0.00000000000E+00 -0.00000000000E+00 -0.55009920780E+03  0.55009920780E+03  0.00000000000E+00 0. -1.
          6    2    1    2  502    0  0.13009450204E+03 -0.89861471878E+02 -0.20339058423E+03  0.30853406634E+03  0.16978185047E+03 0.  0.
         24    2    3    3    0    0  0.79704260330E+02 -0.27039662482E+01 -0.45761983335E+02  0.12143924261E+03  0.79330006798E+02 0.  0.
         -6    2    1    2    0  501 -0.13009450204E+03  0.89861471878E+02 -0.24740899035E+03  0.34086477468E+03  0.17314133685E+03 0.  0.
        -24    2    5    5    0    0 -0.15102302573E+03  0.56209712987E+02 -0.15068715087E+03  0.23623376488E+03  0.84452875015E+02 0.  0.
          5    1    3    3  502    0  0.50390241707E+02 -0.87157505630E+02 -0.15762860089E+03  0.18709482373E+03  0.47000000000E+01 0. -1.
        -13    1    4    4    0    0 -0.52634443630E+01  0.22878989563E+02 -0.61839473709E+01  0.24277421920E+02  0.00000000000E+00 0.  1.
         14    1    4    4    0    0  0.84967704693E+02 -0.25582955812E+02 -0.39578035964E+02  0.97161820689E+02  0.00000000000E+00 0. -1.
         -5    1    5    5    0  501  0.20928523692E+02  0.33651758891E+02 -0.96721839475E+02  0.10463100980E+03  0.47000000000E+01 0.  1.
         11    1    6    6    0    0 -0.50431644256E+02 -0.20445302181E+02 -0.57285780779E+02  0.79012795186E+02  0.00000000000E+00 0. -1.
        -12    1    6    6    0    0 -0.10059138147E+03  0.76655015169E+02 -0.93401370095E+02  0.15722096970E+03  0.00000000000E+00 0.  1.
</event>
<event>
12    1  0.1348628E-002  0.1836692E+03  0.7818608E-02  0.1164299E+00
         -4   -1    0    0    0  501 -0.00000000000E+00  0.00000000000E+00  0.80820287158E+02  0.80820287158E+02  0.00000000000E+00 0. -1.
          4   -1    0    0  502    0  0.00000000000E+00 -0.00000000000E+00 -0.43460906055E+03  0.43460906055E+03  0.00000000000E+00 0.  1.
          6    2    1    2  502    0 -0.57940794566E+02 -0.30929431632E+02 -0.12626981173E+03  0.22346611772E+03  0.17227673957E+03 0.  0.
         24    2    3    3    0    0 -0.91475484620E+02  0.15785350557E+02 -0.10746306777E+03  0.16278144148E+03  0.79577290585E+02 0.  0.
         -6    2    1    2    0  501  0.57940794566E+02  0.30929431632E+02 -0.22751896166E+03  0.29196322999E+03  0.17077436674E+03 0.  0.
        -24    2    5    5    0    0  0.97487896038E+02  0.21735117282E+01 -0.20271931841E+03  0.23693606879E+03  0.74397342766E+02 0.  0.
          5    1    3    3  502    0  0.33534690054E+02 -0.46714782189E+02 -0.18806743959E+02  0.60684676240E+02  0.47000000000E+01 0. -1.
        -13    1    4    4    0    0 -0.12665600518E+02 -0.18516411303E+02 -0.61175073746E+02  0.65158764352E+02  0.00000000000E+00 0.  1.
         14    1    4    4    0    0 -0.78809884102E+02  0.34301761860E+02 -0.46287994028E+02  0.97622677130E+02  0.00000000000E+00 0. -1.
         -5    1    5    5    0  501 -0.39547101472E+02  0.28755919904E+02 -0.24799643256E+02  0.55027161203E+02  0.47000000000E+01 0.  1.
         13    1    6    6    0    0  0.71616988742E+02  0.32543313101E+02 -0.10353675109E+03  0.13003045462E+03  0.00000000000E+00 0. -1.
        -14    1    6    6    0    0  0.25870907296E+02 -0.30369801373E+02 -0.99182567320E+02  0.10690561416E+03  0.00000000000E+00 0.  1.
</event>
<event>
12    1  0.1348628E-002  0.1733136E+03  0.7818608E-02  0.1174436E+00
         -1   -1    0    0    0  501 -0.00000000000E+00  0.00000000000E+00  0.40069578947E+03  0.40069578947E+03  0.00000000000E+00 0. -1.
          1   -1    0    0  502    0  0.00000000000E+00 -0.00000000000E+00 -0.13648977827E+03  0.13648977827E+03  0.00000000000E+00 0.  1.
          6    2    1    2  502    0 -0.64013109323E+01 -0.58637672671E+01  0.31239946060E+03  0.35721302329E+03  0.17300971210E+03 0.  0.
         24    2    3    3    0    0  0.26649205790E+02  0.49187792014E+02  0.11369306160E+03  0.14833666312E+03  0.77123500430E+02 0.  0.
         -6    2    1    2    0  501  0.64013109323E+01  0.58637672671E+01 -0.48193449399E+02  0.17997254445E+03  0.17318241147E+03 0.  0.
        -24    2    5    5    0    0 -0.29140339369E+02 -0.84951761660E+01 -0.89051009858E+02  0.12375138820E+03  0.80392762914E+02 0.  0.
          5    1    3    3  502    0 -0.33050516722E+02 -0.55051559281E+02  0.19870639900E+03  0.20887636017E+03  0.47000000000E+01 0. -1.
        -11    1    4    4    0    0 -0.16657043736E+02  0.25096530919E+01 -0.12967709867E+01  0.16894883239E+02  0.00000000000E+00 0.  1.
         12    1    4    4    0    0  0.43306249526E+02  0.46678138922E+02  0.11498983259E+03  0.13144177988E+03  0.00000000000E+00 0. -1.
         -5    1    5    5    0  501  0.35541650302E+02  0.14358943433E+02  0.40857560460E+02  0.56221156244E+02  0.47000000000E+01 0.  1.
         11    1    6    6    0    0  0.33769496510E+00  0.29634383314E+02 -0.10209149123E+02  0.31345453229E+02  0.00000000000E+00 0. -1.
        -12    1    6    6    0    0 -0.29478034334E+02 -0.38129559480E+02 -0.78841860736E+02  0.92405934975E+02  0.00000000000E+00 0.  1.
</event>
<event>
12    1  0.1348628E-002  0.1800371E+03  0.7818608E-02  0.1167767E+00
         -1   -1    0    0    0  501 -0.00000000000E+00  0.00000000000E+00  0.54209285334E+02  0.54209285334E+02  0.00000000000E+00 0.  1.
          1   -1    0    0  502    0  0.00000000000E+00 -0.00000000000E+00 -0.16543258975E+04  0.16543258975E+04  0.00000000000E+00 0. -1.
          6    2    1    2  502    0 -0.24577466461E+02 -0.45777311904E+02 -0.11684149610E+03  0.21433089395E+03  0.17200634508E+03 0.  0.
         24    2    3    3    0    0  0.37908497715E+02 -0.39431701900E+02 -0.19114752414E+02  0.98066673670E+02  0.79118805673E+02 0.  0.
         -6    2    1    2    0  501  0.24577466461E+02  0.45777311904E+02 -0.14832751160E+04  0.14942042888E+04  0.17274771443E+03 0.  0.
        -24    2    5    5    0    0  0.28626386055E+02 -0.22458596533E+02 -0.11809803416E+04  0.11842417853E+04  0.79938603346E+02 0.  0.
          5    1    3    3  502    0 -0.62485964176E+02 -0.63456100047E+01 -0.97726743684E+02  0.11626422028E+03  0.47000000000E+01 0. -1.
        -13    1    4    4    0    0  0.24992735376E+02 -0.63752790996E+02 -0.16264414601E+02  0.70381718960E+02  0.00000000000E+00 0.  1.
         14    1    4    4    0    0  0.12915762339E+02  0.24321089097E+02 -0.28503378131E+01  0.27684954710E+02  0.00000000000E+00 0. -1.
         -5    1    5    5    0  501 -0.40489195948E+01  0.68235908438E+02 -0.30229477446E+03  0.30996250356E+03  0.47000000000E+01 0.  1.
         11    1    6    6    0    0  0.49927869118E+02  0.17904437476E+01 -0.90547536348E+03  0.90685259644E+03  0.00000000000E+00 0. -1.
        -12    1    6    6    0    0 -0.21301483063E+02 -0.24249040281E+02 -0.27550497809E+03  0.27738918884E+03  0.00000000000E+00 0.  1.
</event>
<event>
12    1  0.1348628E-002  0.3608124E+03  0.7818608E-02  0.1058263E+00
          2   -1    0    0  502    0  0.00000000000E+00  0.00000000000E+00  0.12568807795E+04  0.12568807795E+04  0.00000000000E+00 0.  1.
         -2   -1    0    0    0  501 -0.00000000000E+00 -0.00000000000E+00 -0.10370635712E+03  0.10370635712E+03  0.00000000000E+00 0. -1.
          6    2    1    2  502    0  0.17784076367E+03 -0.26222730280E+03  0.55262204480E+03  0.65996186863E+03  0.17253419397E+03 0.  0.
         24    2    3    3    0    0  0.45676029063E+02 -0.14026726578E+03  0.35724387388E+03  0.39437480686E+03  0.78403427122E+02 0.  0.
         -6    2    1    2    0  501 -0.17784076367E+03  0.26222730280E+03  0.60055237754E+03  0.70062526796E+03  0.17269079989E+03 0.  0.
        -24    2    5    5    0    0 -0.18989774885E+03  0.17585835498E+03  0.41878333784E+03  0.49896456322E+03  0.81233215269E+02 0.  0.
          5    1    3    3  502    0  0.13216473461E+03 -0.12196003703E+03  0.19537817092E+03  0.26558706176E+03  0.47000000000E+01 0. -1.
        -13    1    4    4    0    0  0.27974213577E+01 -0.69797316186E+02  0.24698840610E+03  0.25667637924E+03  0.00000000000E+00 0.  1.
         14    1    4    4    0    0  0.42878607705E+02 -0.70469949590E+02  0.11025546778E+03  0.13769842762E+03  0.00000000000E+00 0. -1.
         -5    1    5    5    0  501  0.12056985180E+02  0.86368947819E+02  0.18176903971E+03  0.20166070474E+03  0.47000000000E+01 0.  1.
         13    1    6    6    0    0 -0.11709320418E+03  0.92064974163E+02  0.16687127900E+03  0.22368013253E+03  0.00000000000E+00 0. -1.
        -14    1    6    6    0    0 -0.72804544672E+02  0.83793380821E+02  0.25191205883E+03  0.27528443069E+03  0.00000000000E+00 0.  1.
</event>
<event>
12    1  0.1348628E-002  0.1719447E+03  0.7818608E-02  0.1175835E+00
         -2   -1    0    0    0  501 -0.00000000000E+00  0.00000000000E+00  0.37148077335E+02  0.37148077335E+02  0.00000000000E+00 0. -1.
          2   -1    0    0  502    0  0.00000000000E+00 -0.00000000000E+00 -0.79626812702E+03  0.79626812702E+03  0.00000000000E+00 0.  1.
          6    2    1    2  502    0 -0.12064107215E+02 -0.12127109026E+01 -0.37133379485E+03  0.40940939884E+03  0.17198911394E+03 0.  0.
         24    2    3    3    0    0  0.51707228177E+02 -0.33061316369E+02 -0.19791650743E+03  0.22185470692E+03  0.79258305442E+02 0.  0.
         -6    2    1    2    0  501  0.12064107215E+02  0.12127109026E+01 -0.38778625484E+03  0.42400680551E+03  0.17104554461E+03 0.  0.
        -24    2    5    5    0    0 -0.46065952599E+01 -0.40452586851E+02 -0.35942423671E+03  0.37071137016E+03  0.81138804055E+02 0.  0.
          5    1    3    3  502    0 -0.63771335392E+02  0.31848605466E+02 -0.17341728741E+03  0.18755469192E+03  0.47000000000E+01 0. -1.
        -13    1    4    4    0    0 -0.54437966964E+01 -0.25045769249E+01 -0.12154249971E+03  0.12169012723E+03  0.00000000000E+00 0.  1.
         14    1    4    4    0    0  0.57151024874E+02 -0.30556739444E+02 -0.76374007721E+02  0.10016457969E+03  0.00000000000E+00 0. -1.
         -5    1    5    5    0  501  0.16670702475E+02  0.41665297754E+02 -0.28362018123E+02  0.53295435357E+02  0.47000000000E+01 0.  1.
         11    1    6    6    0    0 -0.23576614603E+02 -0.55381500526E+02 -0.18303399875E+03  0.19267696296E+03  0.00000000000E+00 0. -1.
        -12    1    6    6    0    0  0.18970019344E+02  0.14928913675E+02 -0.17639023796E+03  0.17803440720E+03  0.00000000000E+00 0.  1.
</event>
<event>
12    1  0.1348628E-002  0.1910459E+03  0.7818608E-02  0.1157521E+00
         -2   -1    0    0    0  501 -0.00000000000E+00  0.00000000000E+00  0.26558107584E+03  0.26558107584E+03  0.00000000000E+00 0.  1.
          2   -1    0    0  502    0  0.00000000000E+00 -0.00000000000E+00 -0.13743228418E+03  0.13743228418E+03  0.00000000000E+00 0. -1.
          6    2    1    2  502    0 -0.69666381559E+02  0.42625218903E+02  0.63069172414E+02  0.20069628034E+03  0.17213646455E+03 0.  0.
         24    2    3    3    0    0 -0.99238188375E+02  0.71689888845E+02  0.62614685314E+02  0.15896447765E+03  0.79758686948E+02 0.  0.
         -6    2    1    2    0  501  0.69666381559E+02 -0.42625218903E+02  0.65079619245E+02  0.20231707968E+03  0.17328164901E+03 0.  0.
        -24    2    5    5    0    0  0.54568708355E+02  0.37720721193E+02  0.17009296863E+02  0.10736311336E+03  0.82685701254E+02 0.  0.
          5    1    3    3  502    0  0.29571806816E+02 -0.29064669942E+02  0.45448709988E+00  0.41731802690E+02  0.47000000000E+01 0. -1.
        -13    1    4    4    0    0 -0.49029317701E+02  0.16147588910E+02  0.66271098456E+02  0.84002839907E+02  0.00000000000E+00 0.  1.
         14    1    4    4    0    0 -0.50208870674E+02  0.55542299935E+02 -0.36564131413E+01  0.74961637745E+02  0.00000000000E+00 0. -1.
         -5    1    5    5    0  501  0.15097673204E+02 -0.80345940095E+02  0.48070322382E+02  0.94953966320E+02  0.47000000000E+01 0.  1.
         13    1    6    6    0    0  0.34431341507E+02  0.14839591681E+02 -0.32237450527E+02  0.49446779225E+02  0.00000000000E+00 0. -1.
        -14    1    6    6    0    0  0.20137366848E+02  0.22881129511E+02  0.49246747390E+02  0.57916334136E+02  0.00000000000E+00 0.  1.
</event>
<event>
12    1  0.1348628E-002  0.2287710E+03  0.7818608E-02  0.1127508E+00
         -2   -1    0    0    0  501 -0.00000000000E+00  0.00000000000E+00  0.11342510668E+03  0.11342510668E+03  0.00000000000E+00 0.  1.
          2   -1    0    0  502    0  0.00000000000E+00 -0.00000000000E+00 -0.54388866742E+03  0.54388866742E+03  0.00000000000E+00 0. -1.
          6    2    1    2  502    0 -0.13566411909E+03  0.19277282971E+02 -0.80716213525E+02  0.23431081790E+03  0.17207581298E+03 0.  0.
         24    2    3    3    0    0 -0.73698027652E+02 -0.23496113891E+02  0.15630987839E+02  0.11194156859E+03  0.79392193252E+02 0.  0.
         -6    2    1    2    0  501  0.13566411909E+03 -0.19277282971E+02 -0.34974734722E+03  0.42300295620E+03  0.19450431157E+03 0.  0.
        -24    2    5    5    0    0  0.17843840510E+02  0.22458661114E+02 -0.24688623545E+03  0.26105850465E+03  0.79849455184E+02 0.  0.
          5    1    3    3  502    0 -0.61966091437E+02  0.42773396863E+02 -0.96347201364E+02  0.12236924931E+03  0.47000000000E+01 0. -1.
        -11    1    4    4    0    0 -0.48724753860E+02 -0.10827489544E+02 -0.30122850660E+02  0.58298561736E+02  0.00000000000E+00 0.  1.
         12    1    4    4    0    0 -0.24973273791E+02 -0.12668624347E+02  0.45753838499E+02  0.53643006852E+02  0.00000000000E+00 0. -1.
         -5    1    5    5    0  501  0.11782027858E+03 -0.41735944085E+02 -0.10286111177E+03  0.16194445155E+03  0.47000000000E+01 0.  1.
         13    1    6    6    0    0 -0.21250576474E+02  0.46633430380E+01 -0.18166628276E+03  0.18296440107E+03  0.00000000000E+00 0. -1.
        -14    1    6    6    0    0  0.39094416984E+02  0.17795318076E+02 -0.65219952697E+02  0.78094103584E+02  0.00000000000E+00 0.  1.
</event>
<event>
12    1  0.1348628E-002  0.1835536E+03  0.7818608E-02  0.1164407E+00
         -1   -1    0    0    0  501 -0.00000000000E+00  0.00000000000E+00  0.20757762939E+03  0.20757762939E+03  0.00000000000E+00 0. -1.
          1   -1    0    0  502    0  0.00000000000E+00 -0.00000000000E+00 -0.21989687628E+03  0.21989687628E+03  0.00000000000E+00 0.  1.
          6    2    1    2  502    0 -0.46078564856E+02  0.44482197094E+02 -0.11553676824E+03  0.21684067043E+03  0.17195706307E+03 0.  0.
         24    2    3    3    0    0 -0.34660803971E+02  0.76078347190E+02 -0.21327962736E+02  0.11671040028E+03  0.78594842687E+02 0.  0.
         -6    2    1    2    0  501  0.46078564856E+02 -0.44482197094E+02  0.10321752135E+03  0.21063383524E+03  0.17207805158E+03 0.  0.
        -24    2    5    5    0    0  0.61461467343E+02 -0.79841315889E+02  0.11705555014E+03  0.16939693415E+03  0.69578529652E+02 0.  0.
          5    1    3    3  502    0 -0.11417760885E+02 -0.31596150097E+02 -0.94208805509E+02  0.10013027015E+03  0.47000000000E+01 0. -1.
        -11    1    4    4    0    0 -0.52922806981E+02  0.23964495968E+02 -0.20103795434E+02  0.61475874590E+02  0.00000000000E+00 0.  1.
         12    1    4    4    0    0  0.18262003010E+02  0.52113851222E+02 -0.12241673024E+01  0.55234525695E+02  0.00000000000E+00 0. -1.
         -5    1    5    5    0  501 -0.15382902487E+02  0.35359118796E+02 -0.13838028789E+02  0.41236901092E+02  0.47000000000E+01 0.  1.
         11    1    6    6    0    0 -0.64498636229E+01  0.14821143444E+00  0.36621191901E+02  0.37185136865E+02  0.00000000000E+00 0. -1.
        -12    1    6    6    0    0  0.67911330966E+02 -0.79989527324E+02  0.80434358241E+02  0.13221179728E+03  0.00000000000E+00 0.  1.
</event>
<event>
12    1  0.1348628E-002  0.1909326E+03  0.7818608E-02  0.1157623E+00
         -2   -1    0    0    0  501 -0.00000000000E+00  0.00000000000E+00  0.46478678903E+02  0.46478678903E+02  0.00000000000E+00 0. -1.
          2   -1    0    0  502    0  0.00000000000E+00 -0.00000000000E+00 -0.80754290088E+03  0.80754290088E+03  0.00000000000E+00 0.  1.
          6    2    1    2  502    0 -0.44800500558E+02 -0.67419066469E+02 -0.45160262479E+03  0.49004769383E+03  0.17219000010E+03 0.  0.
         24    2    3    3    0    0 -0.79097291995E+02  0.94415006673E+00 -0.31178284958E+03  0.33060661123E+03  0.76386602763E+02 0.  0.
         -6    2    1    2    0  501  0.44800500558E+02  0.67419066469E+02 -0.30946159719E+03  0.36397388596E+03  0.17366085958E+03 0.  0.
        -24    2    5    5    0    0  0.14643544965E+02  0.29467574577E+02 -0.50703022181E+02  0.10067206703E+03  0.80506504470E+02 0.  0.
          5    1    3    3  502    0  0.34296791437E+02 -0.68363216536E+02 -0.13981977521E+03  0.15944108259E+03  0.47000000000E+01 0. -1.
        -13    1    4    4    0    0 -0.48359897114E+02  0.26771486521E+02 -0.93131095213E+02  0.10829955233E+03  0.00000000000E+00 0.  1.
         14    1    4    4    0    0 -0.30737394882E+02 -0.25827336454E+02 -0.21865175436E+03  0.22230705890E+03  0.00000000000E+00 0. -1.
         -5    1    5    5    0  501  0.30156955593E+02  0.37951491892E+02 -0.25875857501E+03  0.26330181892E+03  0.47000000000E+01 0.  1.
         13    1    6    6    0    0 -0.23448738076E+02  0.32076508715E+02 -0.48118729101E+02  0.62403187571E+02  0.00000000000E+00 0. -1.
        -14    1    6    6    0    0  0.38092283041E+02 -0.26089341378E+01 -0.25842930801E+01  0.38268879463E+02  0.00000000000E+00 0.  1.
</event>
<event>
12    1  0.1348628E-002  0.2529901E+03  0.7818608E-02  0.1111430E+00
          2   -1    0    0  502    0  0.00000000000E+00  0.00000000000E+00  0.81254154789E+03  0.81254154789E+03  0.00000000000E+00 0.  1.
         -2   -1    0    0    0  501 -0.00000000000E+00 -0.00000000000E+00 -0.12156582605E+03  0.12156582605E+03  0.00000000000E+00 0. -1.
          6    2    1    2  502    0  0.18434139654E+03  0.24148482125E+02  0.62239189375E+03  0.67175513189E+03  0.17122613160E+03 0.  0.
         24    2    3    3    0    0  0.10896581688E+03  0.72475427500E+02  0.44563661038E+03  0.47355954198E+03  0.92414362798E+02 0.  0.
         -6    2    1    2    0  501 -0.18434139654E+03 -0.24148482125E+02  0.68583828088E+02  0.26235224206E+03  0.17193038641E+03 0.  0.
        -24    2    5    5    0    0 -0.92430611456E+02 -0.29922584323E+02 -0.31486972343E+02  0.12627436814E+03  0.74263097400E+02 0.  0.
          5    1    3    3  502    0  0.75375579655E+02 -0.48326945375E+02  0.17675528337E+03  0.19819558991E+03  0.47000000000E+01 0. -1.
        -11    1    4    4    0    0 -0.12290699603E+02  0.25304085803E+02  0.54191751794E+02  0.61058201886E+02  0.00000000000E+00 0.  1.
         12    1    4    4    0    0  0.12125651649E+03  0.47171341697E+02  0.39144485858E+03  0.41250134009E+03  0.00000000000E+00 0. -1.
         -5    1    5    5    0  501 -0.91910785083E+02  0.57741021980E+01  0.10007080043E+03  0.13607787392E+03  0.47000000000E+01 0.  1.
         13    1    6    6    0    0 -0.52217855918E+02  0.63730199304E+01 -0.46339474209E+02  0.70104684078E+02  0.00000000000E+00 0. -1.
        -14    1    6    6    0    0 -0.40212755538E+02 -0.36295604254E+02  0.14852501866E+02  0.56169684063E+02  0.00000000000E+00 0.  1.
</event>
<event>
12    1  0.1348628E-002  0.2027232E+03  0.7818608E-02  0.1147462E+00
          2   -1    0    0  502    0  0.00000000000E+00  0.00000000000E+00  0.13012932964E+04  0.13012932964E+04  0.00000000000E+00 0. -1.
         -2   -1    0    0    0  501 -0.00000000000E+00 -0.00000000000E+00 -0.32677798958E+02  0.32677798958E+02  0.00000000000E+00 0.  1.
          6    2    1    2  502    0 -0.10493207278E+03  0.16806750680E+02  0.75685806807E+03  0.78356995903E+03  0.17278465998E+03 0.  0.
         24    2    3    3    0    0 -0.95198964296E+02 -0.44290080636E+02  0.38558921647E+03  0.40715236331E+03  0.77907310602E+02 0.  0.
         -6    2    1    2    0  501  0.10493207278E+03 -0.16806750680E+02  0.51175742940E+03  0.55040113636E+03  0.17248923907E+03 0.  0.
        -24    2    5    5    0    0  0.30329166003E+02 -0.29546470700E+02  0.42847608960E+03  0.43777003176E+03  0.79107452893E+02 0.  0.
          5    1    3    3  502    0 -0.97331084795E+01  0.61096831316E+02  0.37126885160E+03  0.37641759572E+03  0.47000000000E+01 0. -1.
        -13    1    4    4    0    0 -0.72446880670E+02 -0.30764880046E+02  0.14390779258E+03  0.16402585506E+03  0.00000000000E+00 0.  1.
         14    1    4    4    0    0 -0.22752083626E+02 -0.13525200591E+02  0.24168142389E+03  0.24312650825E+03  0.00000000000E+00 0. -1.
         -5    1    5    5    0  501  0.74602906773E+02  0.12739720020E+02  0.83281339796E+02  0.11263110460E+03  0.47000000000E+01 0.  1.
         13    1    6    6    0    0  0.44616993094E+02  0.23975033243E+01  0.33485189547E+03  0.33781979811E+03  0.00000000000E+00 0. -1.
        -14    1    6    6    0    0 -0.14287827091E+02 -0.31943974024E+02  0.93624194135E+02  0.99950233651E+02  0.00000000000E+00 0.  1.
</event>
<event>
12    1  0.1348628E-002  0.2021194E+03  0.7818608E-02  0.1147963E+00
         -2   -1    0    0    0  501 -0.00000000000E+00  0.00000000000E+00  0.92390733515E+02  0.92390733515E+02  0.00000000000E+00 0. -1.
          2   -1    0    0  502    0  0.00000000000E+00 -0.00000000000E+00 -0.44987554029E+03  0.44987554029E+03  0.00000000000E+00 0.  1.
          6    2    1    2  502    0  0.90285684649E+02  0.56557456623E+02 -0.14518307783E+03  0.25056860217E+03  0.17423044382E+03 0.  0.
         24    2    3    3    0    0  0.47598639426E+02 -0.16836781647E+02 -0.14397839898E+02  0.94569350560E+02  0.78657209334E+02 0.  0.
         -6    2    1    2    0  501 -0.90285684649E+02 -0.56557456623E+02 -0.21230172895E+03  0.29169767164E+03  0.16930817102E+03 0.  0.
        -24    2    5    5    0    0 -0.29196303643E+02 -0.51561670563E+02 -0.20750750836E+03  0.23003775840E+03  0.79667899717E+02 0.  0.
          5    1    3    3  502    0  0.42687045223E+02  0.73394238270E+02 -0.13078523794E+03  0.15599925161E+03  0.47000000000E+01 0. -1.
        -11    1    4    4    0    0  0.23600966863E+02  0.96423843635E-01 -0.45830437610E+02  0.51550401996E+02  0.00000000000E+00 0.  1.
         12    1    4    4    0    0  0.23997672563E+02 -0.16933205491E+02  0.31432597712E+02  0.43018948564E+02  0.00000000000E+00 0. -1.
         -5    1    5    5    0  501 -0.61089381006E+02 -0.49957860603E+01 -0.47942205865E+01  0.61659913242E+02  0.47000000000E+01 0.  1.
         11    1    6    6    0    0  0.27399214137E+02 -0.13159443920E+02 -0.53618996685E+02  0.61635093130E+02  0.00000000000E+00 0. -1.
        -12    1    6    6    0    0 -0.56595517780E+02 -0.38402226643E+02 -0.15388851167E+03  0.16840266527E+03  0.00000000000E+00 0.  1.
</event>
<event>
12    1  0.1348628E-002  0.2313282E+03  0.7818608E-02  0.1125708E+00
          1   -1    0    0  502    0  0.00000000000E+00  0.00000000000E+00  0.93833393343E+03  0.93833393343E+03  0.00000000000E+00 0. -1.
         -1   -1    0    0    0  501 -0.00000000000E+00 -0.00000000000E+00 -0.13599458125E+03  0.13599458125E+03  0.00000000000E+00 0.  1.
          6    2    1    2  502    0 -0.13173152516E+03  0.84521822934E+02 -0.71500721096E+01  0.23280730112E+03  0.17219460692E+03 0.  0.
         24    2    3    3    0    0 -0.62072715234E+02  0.44233406627E+02 -0.70956332338E+02  0.13000246109E+03  0.77821735738E+02 0.  0.
         -6    2    1    2    0  501  0.13173152516E+03 -0.84521822934E+02  0.80948942428E+03  0.84152121356E+03  0.16848647294E+03 0.  0.
        -24    2    5    5    0    0  0.29959137527E+02  0.12740432261E+01  0.45494099138E+03  0.46277957231E+03  0.79337593904E+02 0.  0.
          5    1    3    3  502    0 -0.69658809926E+02  0.40288416306E+02  0.63806260228E+02  0.10280484003E+03  0.47000000000E+01 0. -1.
        -13    1    4    4    0    0 -0.65645107562E+02  0.61898649348E+02 -0.64283538911E+02  0.11078400748E+03  0.00000000000E+00 0.  1.
         14    1    4    4    0    0  0.35723923275E+01 -0.17665242720E+02 -0.66727934268E+01  0.19218453617E+02  0.00000000000E+00 0. -1.
         -5    1    5    5    0  501  0.10177238763E+03 -0.85795866160E+02  0.35454843290E+03  0.37874164124E+03  0.47000000000E+01 0.  1.
         11    1    6    6    0    0  0.53619781918E+02 -0.15477919657E+02  0.29516776637E+03  0.30039749885E+03  0.00000000000E+00 0. -1.
        -12    1    6    6    0    0 -0.23660644392E+02  0.16751962883E+02  0.15977322501E+03  0.16238207347E+03  0.00000000000E+00 0.  1.
</event>
<event>
12    1  0.1348628E-002  0.1939127E+03  0.7818608E-02  0.1154979E+00
          1   -1    0    0  502    0  0.00000000000E+00  0.00000000000E+00  0.57561614291E+02  0.57561614291E+02  0.00000000000E+00 0. -1.
         -1   -1    0    0    0  501 -0.00000000000E+00 -0.00000000000E+00 -0.70857513544E+03  0.70857513544E+03  0.00000000000E+00 0.  1.
          6    2    1    2  502    0  0.94244287571E+02 -0.19810759020E+02 -0.21787587744E+03  0.29141619065E+03  0.16786615589E+03 0.  0.
         24    2    3    3    0    0  0.66599451417E+02  0.30274110100E+02 -0.57417635178E+02  0.12100002772E+03  0.77409387070E+02 0.  0.
         -6    2    1    2    0  501 -0.94244287571E+02  0.19810759020E+02 -0.43313764371E+03  0.47472055907E+03  0.16875111525E+03 0.  0.
        -24    2    5    5    0    0 -0.18722193709E+01  0.40521769384E+02 -0.28607077472E+03  0.29975685173E+03  0.79825829222E+02 0.  0.
          5    1    3    3  502    0  0.27644836154E+02 -0.50084869120E+02 -0.16045824226E+03  0.17041616294E+03  0.47000000000E+01 0. -1.
        -11    1    4    4    0    0  0.47387711839E+01  0.41456168238E+02 -0.34322166950E+02  0.54028520075E+02  0.00000000000E+00 0.  1.
         12    1    4    4    0    0  0.61860680233E+02 -0.11182058138E+02 -0.23095468228E+02  0.66971507641E+02  0.00000000000E+00 0. -1.
         -5    1    5    5    0  501 -0.92372068200E+02 -0.20711010365E+02 -0.14706686899E+03  0.17496370734E+03  0.47000000000E+01 0.  1.
         13    1    6    6    0    0  0.34631445675E+02  0.17531361108E+02 -0.76412361927E+02  0.85706094924E+02  0.00000000000E+00 0. -1.
        -14    1    6    6    0    0 -0.36503665046E+02  0.22990408276E+02 -0.20965841279E+03  0.21405075681E+03  0.00000000000E+00 0.  1.
</event>
<event>
12    1  0.1348628E-002  0.2645603E+03  0.7818608E-02  0.1104434E+00
          2   -1    0    0  502    0  0.00000000000E+00  0.00000000000E+00  0.27593374268E+03  0.27593374268E+03  0.00000000000E+00 0. -1.
         -2   -1    0    0    0  501 -0.00000000000E+00 -0.00000000000E+00 -0.33663790180E+03  0.33663790180E+03  0.00000000000E+00 0.  1.
          6    2    1    2  502    0 -0.18444315024E+03  0.80242694741E+02 -0.18243724537E+03  0.32152904541E+03  0.17216100840E+03 0.  0.
         24    2    3    3    0    0 -0.13537241020E+02  0.28523837701E+02 -0.52813387139E+02  0.10082991854E+03  0.79878360021E+02 0.  0.
         -6    2    1    2    0  501  0.18444315024E+03 -0.80242694741E+02  0.12173308625E+03  0.29104259906E+03  0.17154790716E+03 0.  0.
        -24    2    5    5    0    0  0.30423151963E+02 -0.61963791030E+02  0.75129201766E+02  0.12902318591E+03  0.78977882790E+02 0.  0.
          5    1    3    3  502    0 -0.17090590922E+03  0.51718857040E+02 -0.12962385823E+03  0.22069912687E+03  0.47000000000E+01 0. -1.
        -13    1    4    4    0    0 -0.44862801557E+02  0.17720902315E+02 -0.14917024152E+02  0.50489790572E+02  0.00000000000E+00 0.  1.
         14    1    4    4    0    0  0.31325560538E+02  0.10802935386E+02 -0.37896362987E+02  0.50340127965E+02  0.00000000000E+00 0. -1.
         -5    1    5    5    0  501  0.15401999828E+03 -0.18278903711E+02  0.46603884485E+02  0.16201941316E+03  0.47000000000E+01 0.  1.
         11    1    6    6    0    0  0.43004443693E+02 -0.23359000054E+01  0.39456319891E+02  0.58409244008E+02  0.00000000000E+00 0. -1.
        -12    1    6    6    0    0 -0.12581291730E+02 -0.59627891024E+02  0.35672881875E+02  0.70613941901E+02  0.00000000000E+00 0.  1.
</event>
<event>
12    1  0.1348628E-002  0.1690594E+03  0.7818608E-02  0.1178832E+00
         -2   -1    0    0    0  501 -0.00000000000E+00  0.00000000000E+00  0.36985034863E+02  0.36985034863E+02  0.00000000000E+00 0. -1.
          2   -1    0    0  502    0  0.00000000000E+00 -0.00000000000E+00 -0.13483335996E+04  0.13483335996E+04  0.00000000000E+00 0.  1.
          6    2    1    2  502    0  0.11220269939E+02 -0.52401465796E+01 -0.19589149258E+03  0.25661424461E+03  0.16529984899E+03 0.  0.
         24    2    3    3    0    0 -0.42234029537E+02  0.38472803973E+02 -0.11853763670E+03  0.15281687856E+03  0.77704293075E+02 0.  0.
         -6    2    1    2    0  501 -0.11220269939E+02  0.52401465796E+01 -0.11154570722E+04  0.11287043899E+04  0.17197606305E+03 0.  0.
        -24    2    5    5    0    0  0.42673892177E+02  0.41052576153E+02 -0.48511758340E+03  0.49503486091E+03  0.78829364544E+02 0.  0.
          5    1    3    3  502    0  0.53454299476E+02 -0.43712950553E+02 -0.77353855875E+02  0.10379736604E+03  0.47000000000E+01 0. -1.
        -13    1    4    4    0    0 -0.55805731072E+02  0.11620214919E+01 -0.79489577687E+02  0.97129927804E+02  0.00000000000E+00 0.  1.
         14    1    4    4    0    0  0.13571701535E+02  0.37310782481E+02 -0.39048059018E+02  0.55686950761E+02  0.00000000000E+00 0. -1.
         -5    1    5    5    0  501 -0.53894162116E+02 -0.35812429573E+02 -0.63033948880E+03  0.63366952899E+03  0.47000000000E+01 0.  1.
         13    1    6    6    0    0 -0.25286300607E+01  0.51955530357E+02 -0.24639458887E+03  0.25182546442E+03  0.00000000000E+00 0. -1.
        -14    1    6    6    0    0  0.45202522237E+02 -0.10902954204E+02 -0.23872299453E+03  0.24320939649E+03  0.00000000000E+00 0.  1.
</event>
<event>
12    1  0.1348628E-002  0.1901490E+03  0.7818608E-02  0.1158327E+00
          2   -1    0    0  502    0  0.00000000000E+00  0.00000000000E+00  0.49737746755E+03  0.49737746755E+03  0.00000000000E+00 0. -1.
         -2   -1    0    0    0  501 -0.00000000000E+00 -0.00000000000E+00 -0.11692006504E+03  0.11692006504E+03  0.00000000000E+00 0.  1.
          6    2    1    2  502    0  0.39247131526E+02  0.72298583752E+02  0.37898348848E+03  0.42390366755E+03  0.17116778982E+03 0.  0.
         24    2    3    3    0    0  0.67536825166E+02  0.52174601956E+02  0.36940980407E+03  0.38758525840E+03  0.80469356543E+02 0.  0.
         -6    2    1    2    0  501 -0.39247131526E+02 -0.72298583752E+02  0.14739140313E+01  0.19039386505E+03  0.17169807477E+03 0.  0.
        -24    2    5    5    0    0 -0.27392883003E+02 -0.60181140280E+01  0.58018878959E+02  0.10234247702E+03  0.79506003245E+02 0.  0.
          5    1    3    3  502    0 -0.28289693640E+02  0.20123981796E+02  0.95736844050E+01  0.36318409143E+02  0.47000000000E+01 0. -1.
        -13    1    4    4    0    0  0.87294689555E+01  0.57556095695E+02  0.17898670548E+03  0.18821569679E+03  0.00000000000E+00 0.  1.
         14    1    4    4    0    0  0.58807356210E+02 -0.53814937383E+01  0.19042309859E+03  0.19936956161E+03  0.00000000000E+00 0. -1.
         -5    1    5    5    0  501 -0.11854248522E+02 -0.66280469724E+02 -0.56544964928E+02  0.88051388028E+02  0.47000000000E+01 0.  1.
         13    1    6    6    0    0 -0.43601098386E+02  0.37032369350E+01  0.26517286825E+01  0.43838355458E+02  0.00000000000E+00 0. -1.
        -14    1    6    6    0    0  0.16208215383E+02 -0.97213509630E+01  0.55367150277E+02  0.58504121566E+02  0.00000000000E+00 0.  1.
</event>
<event>
12    1  0.1348628E-002  0.1772812E+03  0.7818608E-02  0.1170461E+00
         -2   -1    0    0    0  501 -0.00000000000E+00  0.00000000000E+00  0.96446358488E+03  0.96446358488E+03  0.00000000000E+00 0. -1.
          2   -1    0    0  502    0  0.00000000000E+00 -0.00000000000E+00 -0.56501000566E+02  0.56501000566E+02  0.00000000000E+00 0.  1.
          6    2    1    2  502    0 -0.27517222992E+02 -0.32399039277E+02  0.12266469025E+03  0.21602221849E+03  0.17266174255E+03 0.  0.
         24    2    3    3    0    0 -0.62001710936E+02 -0.73102755727E+02  0.79491408872E+02  0.14723272317E+03  0.78551674933E+02 0.  0.
         -6    2    1    2    0  501  0.27517222992E+02  0.32399039277E+02  0.78529789406E+03  0.80494236695E+03  0.17155913377E+03 0.  0.
        -24    2    5    5    0    0  0.65974518915E+02  0.45597489024E+02  0.69444711813E+03  0.70529741639E+03  0.93572846097E+02 0.  0.
          5    1    3    3  502    0  0.34484487944E+02  0.40703716450E+02  0.43173281374E+02  0.68789495319E+02  0.47000000000E+01 0. -1.
        -13    1    4    4    0    0 -0.19508486527E+02 -0.14425405105E+02 -0.14725706200E+02  0.28381680397E+02  0.00000000000E+00 0.  1.
         14    1    4    4    0    0 -0.42493224408E+02 -0.58677350621E+02  0.94217115072E+02  0.11885104278E+03  0.00000000000E+00 0. -1.
         -5    1    5    5    0  501 -0.38457295924E+02 -0.13198449747E+02  0.90850775932E+02  0.99644950564E+02  0.47000000000E+01 0.  1.
         11    1    6    6    0    0 -0.11838789267E+02  0.33787864684E+02  0.35713359066E+03  0.35892363855E+03  0.00000000000E+00 0. -1.
        -12    1    6    6    0    0  0.77813308182E+02  0.11809624340E+02  0.33731352747E+03  0.34637377784E+03  0.00000000000E+00 0.  1.
</event>
<event>
12    1  0.1348628E-002  0.2067487E+03  0.7818608E-02  0.1144167E+00
          2   -1    0    0  502    0  0.00000000000E+00  0.00000000000E+00  0.42706226349E+03  0.42706226349E+03  0.00000000000E+00 0.  1.
         -2   -1    0    0    0  501 -0.00000000000E+00 -0.00000000000E+00 -0.10477494963E+03  0.10477494963E+03  0.00000000000E+00 0. -1.
          6    2    1    2  502    0 -0.68181759295E+02  0.92857606027E+02  0.21683044601E+03  0.29910941607E+03  0.17082070474E+03 0.  0.
         24    2    3    3    0    0 -0.10854472269E+02  0.25783030399E+01  0.33863196919E+02  0.87128580556E+02  0.79499724712E+02 0.  0.
         -6    2    1    2    0  501  0.68181759295E+02 -0.92857606027E+02  0.10545686785E+03  0.23272779705E+03  0.17253923972E+03 0.  0.
        -24    2    5    5    0    0  0.83909341144E+01  0.14882101965E+02  0.62342385990E+02  0.10209956120E+03  0.79030769784E+02 0.  0.
          5    1    3    3  502    0 -0.57327287026E+02  0.90279302988E+02  0.18296724909E+03  0.21198083551E+03  0.47000000000E+01 0. -1.
        -11    1    4    4    0    0  0.15195965594E+02 -0.20434253197E+02  0.44072988097E+02  0.50900926847E+02  0.00000000000E+00 0.  1.
         12    1    4    4    0    0 -0.26050437862E+02  0.23012556237E+02 -0.10209791178E+02  0.36227653709E+02  0.00000000000E+00 0. -1.
         -5    1    5    5    0  501  0.59790825181E+02 -0.10773970799E+03  0.43114481862E+02  0.13062823585E+03  0.47000000000E+01 0.  1.
         11    1    6    6    0    0 -0.21890161394E+02 -0.14833866750E+02 -0.29710860513E+00  0.26444489826E+02  0.00000000000E+00 0. -1.
        -12    1    6    6    0    0  0.30281095509E+02  0.29715968716E+02  0.62639494595E+02  0.75655071377E+02  0.00000000000E+00 0.  1.
</event>
<event>
12    1  0.1348628E-002  0.1780236E+03  0.7818608E-02  0.1169730E+00
          1   -1    0    0  502    0  0.00000000000E+00  0.00000000000E+00  0.17169619146E+03  0.17169619146E+03  0.00000000000E+00 0. -1.
         -1   -1    0    0    0  501 -0.00000000000E+00 -0.00000000000E+00 -0.21874239169E+03  0.21874239169E+03  0.00000000000E+00 0.  1.
          6    2    1    2  502    0  0.59030941315E+02 -0.81315076260E-01  0.53996465476E+02  0.18110544929E+03  0.16247740408E+03 0.  0.
         24    2    3    3    0    0  0.98472373298E+02  0.29971982418E+01  0.60880825255E+02  0.14067540835E+03  0.79858024836E+02 0.  0.
         -6    2    1    2    0  501 -0.59030941315E+02  0.81315076260E-01 -0.10104266571E+03  0.20933313386E+03  0.17356866651E+03 0.  0.
        -24    2    5    5    0    0  0.32602582771E+01  0.17837181271E+02 -0.11639316816E+03  0.14260089086E+03  0.80366971823E+02 0.  0.
          5    1    3    3  502    0 -0.39441431982E+02 -0.30785133181E+01 -0.68843597785E+01  0.40430040943E+02  0.47000000000E+01 0. -1.
        -13    1    4    4    0    0  0.10215095449E+01  0.24537928424E+02  0.23820196307E+02  0.34213376992E+02  0.00000000000E+00 0.  1.
         14    1    4    4    0    0  0.97450863753E+02 -0.21540730182E+02  0.37060628948E+02  0.10646203136E+03  0.00000000000E+00 0. -1.
         -5    1    5    5    0  501 -0.62291199593E+02 -0.17755866194E+02  0.15350502448E+02  0.66732243004E+02  0.47000000000E+01 0.  1.
         13    1    6    6    0    0  0.31252104658E+02 -0.13434864538E+02 -0.25592082255E+02  0.42569288282E+02  0.00000000000E+00 0. -1.
        -14    1    6    6    0    0 -0.27991846381E+02  0.31272045808E+02 -0.90801085901E+02  0.10003160257E+03  0.00000000000E+00 0.  1.
</event>
<event>
12    1  0.1348628E-002  0.2185934E+03  0.7818608E-02  0.1134936E+00
         -2   -1    0    0    0  501 -0.00000000000E+00  0.00000000000E+00  0.49081216489E+02  0.49081216489E+02  0.00000000000E+00 0.  1.
          2   -1    0    0  502    0  0.00000000000E+00 -0.00000000000E+00 -0.97700190806E+03  0.97700190806E+03  0.00000000000E+00 0. -1.
          6    2    1    2  502    0 -0.12540983414E+03 -0.50555365941E+02 -0.43257015997E+03  0.48446962480E+03  0.17120281111E+03 0.  0.
         24    2    3    3    0    0 -0.49096797098E+02 -0.32997742216E+02 -0.37381492008E+03  0.38645830919E+03  0.78186212259E+02 0.  0.
         -6    2    1    2    0  501  0.12540983414E+03  0.50555365941E+02 -0.49535053160E+03  0.54161349975E+03  0.17230659427E+03 0.  0.
        -24    2    5    5    0    0  0.66345453110E+02 -0.21436721094E+02 -0.14732318297E+03  0.18131280991E+03  0.79428978582E+02 0.  0.
          5    1    3    3  502    0 -0.76313037043E+02 -0.17557623726E+02 -0.58755239888E+02  0.98011315612E+02  0.47000000000E+01 0. -1.
        -13    1    4    4    0    0 -0.39117601199E+02  0.10404927681E+01 -0.66927676891E+02  0.77527951622E+02  0.00000000000E+00 0.  1.
         14    1    4    4    0    0 -0.99791958989E+01 -0.34038234984E+02 -0.30688724319E+03  0.30893035757E+03  0.00000000000E+00 0. -1.
         -5    1    5    5    0  501  0.59064381031E+02  0.71992087035E+02 -0.34802734863E+03  0.36030068984E+03  0.47000000000E+01 0.  1.
         11    1    6    6    0    0 -0.13503374639E+02  0.64740620025E+01 -0.50681540964E+01  0.15809515850E+02  0.00000000000E+00 0. -1.
        -12    1    6    6    0    0  0.79848827749E+02 -0.27910783096E+02 -0.14225502888E+03  0.16550329406E+03  0.00000000000E+00 0.  1.
</event>
<event>
12    1  0.1348628E-002  0.1799577E+03  0.7818608E-02  0.1167844E+00
          1   -1    0    0  502    0  0.00000000000E+00  0.00000000000E+00  0.37380869950E+03  0.37380869950E+03  0.00000000000E+00 0. -1.
         -1   -1    0    0    0  501 -0.00000000000E+00 -0.00000000000E+00 -0.87010024230E+02  0.87010024230E+02  0.00000000000E+00 0.  1.
          6    2    1    2  502    0 -0.49589640141E+02  0.28444375139E+02  0.12710811382E+03  0.21898731559E+03  0.16891049969E+03 0.  0.
         24    2    3    3    0    0 -0.81469234886E+01  0.38152068971E+02  0.14677075126E+03  0.17186569217E+03  0.80462475670E+02 0.  0.
         -6    2    1    2    0  501  0.49589640141E+02 -0.28444375139E+02  0.15969056145E+03  0.24183140814E+03  0.17237499720E+03 0.  0.
        -24    2    5    5    0    0  0.82191533588E+02 -0.21815204774E+02  0.48633745586E+02  0.12580324041E+03  0.78929479508E+02 0.  0.
          5    1    3    3  502    0 -0.41442716652E+02 -0.97076938322E+01 -0.19662637438E+02  0.47121623424E+02  0.47000000000E+01 0. -1.
        -11    1    4    4    0    0 -0.30643703565E+02 -0.13086319859E+02  0.50174553506E+02  0.60231006593E+02  0.00000000000E+00 0.  1.
         12    1    4    4    0    0  0.22496780076E+02  0.51238388830E+02  0.96596197754E+02  0.11163468558E+03  0.00000000000E+00 0. -1.
         -5    1    5    5    0  501 -0.32601893447E+02 -0.66291703648E+01  0.11105681586E+03  0.11602816773E+03  0.47000000000E+01 0.  1.
         13    1    6    6    0    0  0.25557507332E+02 -0.31777697534E+02  0.54425829234E+02  0.68008669516E+02  0.00000000000E+00 0. -1.
        -14    1    6    6    0    0  0.56634026256E+02  0.99624927602E+01 -0.57920836473E+01  0.57794570895E+02  0.00000000000E+00 0.  1.
</event>
<event>
12    1  0.1348628E-002  0.1851792E+03  0.7818608E-02  0.1162883E+00
          1   -1    0    0  502    0  0.00000000000E+00  0.00000000000E+00  0.66414052267E+03  0.66414052267E+03  0.00000000000E+00 0. -1.
         -1   -1    0    0    0  501 -0.00000000000E+00 -0.00000000000E+00 -0.75124434900E+02  0.75124434900E+02  0.00000000000E+00 0.  1.
          6    2    1    2  502    0  0.67542427084E+02 -0.10192927801E+02  0.87766194809E+02  0.20488913757E+03  0.17207782690E+03 0.  0.
         24    2    3    3    0    0  0.53524538295E+02  0.23732125862E+02 -0.10388538890E+02  0.99989889624E+02  0.80386356362E+02 0.  0.
         -6    2    1    2    0  501 -0.67542427084E+02  0.10192927801E+02  0.50124989296E+03  0.53437582000E+03  0.17216325558E+03 0.  0.
        -24    2    5    5    0    0 -0.20951868487E+02  0.70372213261E+02  0.30743848332E+03  0.32610393266E+03  0.80212995694E+02 0.  0.
          5    1    3    3  502    0  0.14017888788E+02 -0.33925053663E+02  0.98154733699E+02  0.10489924795E+03  0.47000000000E+01 0. -1.
        -11    1    4    4    0    0  0.59761030389E+02 -0.55262203168E+01  0.13725548579E+02  0.61565498032E+02  0.00000000000E+00 0.  1.
         12    1    4    4    0    0 -0.62364920935E+01  0.29258346179E+02 -0.24114087469E+02  0.38424391592E+02  0.00000000000E+00 0. -1.
         -5    1    5    5    0  501 -0.46590558597E+02 -0.60179285459E+02  0.19381140964E+03  0.20827188734E+03  0.47000000000E+01 0.  1.
         13    1    6    6    0    0  0.10755319764E+02  0.62827858394E+02  0.12025296018E+03  0.13610213490E+03  0.00000000000E+00 0. -1.
        -14    1    6    6    0    0 -0.31707188251E+02  0.75443548667E+01  0.18718552314E+03  0.19000179776E+03  0.00000000000E+00 0.  1.
</event>
<event>
12    1  0.1348628E-002  0.1814403E+03  0.7818608E-02  0.1166416E+00
         -1   -1    0    0    0  501 -0.00000000000E+00  0.00000000000E+00  0.15402884740E+03  0.15402884740E+03  0.00000000000E+00 0.  1.
          1   -1    0    0  502    0  0.00000000000E+00 -0.00000000000E+00 -0.24599105487E+03  0.24599105487E+03  0.00000000000E+00 0. -1.
          6    2    1    2  502    0  0.24191012228E+02 -0.60510463888E+02  0.26016331895E+02  0.18513331766E+03  0.17132067730E+03 0.  0.
         24    2    3    3    0    0 -0.33363718342E+02  0.31204720134E+01  0.45330639086E+02  0.97061895074E+02  0.79014363177E+02 0.  0.
         -6    2    1    2    0  501 -0.24191012228E+02  0.60510463888E+02 -0.11797853936E+03  0.21488658462E+03  0.16736363758E+03 0.  0.
        -24    2    5    5    0    0 -0.55730246323E+01 -0.67215043405E+01 -0.11902212405E+03  0.14495843518E+03  0.82282711989E+02 0.  0.
          5    1    3    3  502    0  0.57554730570E+02 -0.63630935901E+02 -0.19314307191E+02  0.88071422589E+02  0.47000000000E+01 0. -1.
        -11    1    4    4    0    0  0.23234226945E+01  0.21525514247E+02  0.52028487302E+02  0.56353434213E+02  0.00000000000E+00 0.  1.
         12    1    4    4    0    0 -0.35687141036E+02 -0.18405042234E+02 -0.66978482157E+01  0.40708460861E+02  0.00000000000E+00 0. -1.
         -5    1    5    5    0  501 -0.18617987596E+02  0.67231968228E+02  0.10435846893E+01  0.69928149432E+02  0.47000000000E+01 0.  1.
         13    1    6    6    0    0 -0.35958130249E+02  0.20151838467E+02 -0.48964510027E+02  0.64004741752E+02  0.00000000000E+00 0. -1.
        -14    1    6    6    0    0  0.30385105616E+02 -0.26873342808E+02 -0.70057614027E+02  0.80953693431E+02  0.00000000000E+00 0.  1.
</event>
<event>
12    1  0.1348628E-002  0.1877737E+03  0.7818608E-02  0.1160485E+00
          1   -1    0    0  502    0  0.00000000000E+00  0.00000000000E+00  0.27129695861E+04  0.27129695861E+04  0.00000000000E+00 0. -1.
         -1   -1    0    0    0  501 -0.00000000000E+00 -0.00000000000E+00 -0.14577419146E+02  0.14577419146E+02  0.00000000000E+00 0.  1.
          6    2    1    2  502    0 -0.74466616652E+02  0.60112569752E+01  0.89610363113E+03  0.91543836294E+03  0.17159331693E+03 0.  0.
         24    2    3    3    0    0 -0.87641135937E+02  0.50482535091E+02  0.49415648501E+03  0.51079671802E+03  0.80580397116E+02 0.  0.
         -6    2    1    2    0  501  0.74466616652E+02 -0.60112569752E+01  0.18022885358E+04  0.18121086423E+04  0.17295188043E+03 0.  0.
        -24    2    5    5    0    0  0.19175750735E+02 -0.24380603337E+00  0.31243530139E+03  0.32121123017E+03  0.72062944549E+02 0.  0.
          5    1    3    3  502    0  0.13174519285E+02 -0.44471278116E+02  0.40194714612E+03  0.40464164492E+03  0.47000000000E+01 0. -1.
        -13    1    4    4    0    0 -0.19601583266E+02  0.22093245477E+02  0.35169025433E+02  0.45925961200E+02  0.00000000000E+00 0.  1.
         14    1    4    4    0    0 -0.68039552672E+02  0.28389289614E+02  0.45898745958E+03  0.46487075682E+03  0.00000000000E+00 0. -1.
         -5    1    5    5    0  501  0.55290865918E+02 -0.57674509418E+01  0.14898532344E+04  0.14908974121E+04  0.47000000000E+01 0.  1.
         13    1    6    6    0    0 -0.11182647744E+02 -0.37343293608E+01  0.26182885724E+03  0.26209415734E+03  0.00000000000E+00 0. -1.
        -14    1    6    6    0    0  0.30358398479E+02  0.34905233274E+01  0.50606444151E+02  0.59117072838E+02  0.00000000000E+00 0.  1.
</event>
<event>
12    1  0.1348628E-002  0.1806886E+03  0.7818608E-02  0.1167138E+00
         -3   -1    0    0    0  501 -0.00000000000E+00  0.00000000000E+00  0.12212685194E+03  0.12212685194E+03  0.00000000000E+00 0. -1.
          3   -1    0    0  502    0  0.00000000000E+00 -0.00000000000E+00 -0.36017898007E+03  0.36017898007E+03  0.00000000000E+00 0.  1.
          6    2    1    2  502    0  0.38038954815E+02 -0.22149271744E+02 -0.24320706659E+03  0.30526243962E+03  0.17915894474E+03 0.  0.
         24    2    3    3    0    0  0.63843409436E+02  0.16997303316E+02 -0.23608855041E+03  0.25760651145E+03  0.79110188083E+02 0.  0.
         -6    2    1    2    0  501 -0.38038954815E+02  0.22149271744E+02  0.51549384582E+01  0.17704339239E+03  0.17140664245E+03 0.  0.
        -24    2    5    5    0    0 -0.24813931548E+02  0.80311982648E+02  0.14512384222E+02  0.11648388471E+03  0.79323012705E+02 0.  0.
          5    1    3    3  502    0 -0.25804454620E+02 -0.39146575060E+02 -0.71185161803E+01  0.47655928171E+02  0.47000000000E+01 0. -1.
        -13    1    4    4    0    0  0.68638018902E+01 -0.28493303635E+02 -0.53562730410E+02  0.61056909661E+02  0.00000000000E+00 0.  1.
         14    1    4    4    0    0  0.56979607545E+02  0.45490606951E+02 -0.18252582000E+03  0.19654960179E+03  0.00000000000E+00 0. -1.
         -5    1    5    5    0  501 -0.13225023267E+02 -0.58162710904E+02 -0.93574457640E+01  0.60559507688E+02  0.47000000000E+01 0.  1.
         11    1    6    6    0    0  0.13590795584E+02  0.64030954720E+02  0.29978519723E+02  0.71995725788E+02  0.00000000000E+00 0. -1.
        -12    1    6    6    0    0 -0.38404727132E+02  0.16281027928E+02 -0.15466135501E+02  0.44488158917E+02  0.00000000000E+00 0.  1.
</event>
<event>
12    1  0.1348628E-002  0.1972368E+03  0.7818608E-02  0.1152091E+00
          2   -1    0    0  502    0  0.00000000000E+00  0.00000000000E+00  0.20379765227E+04  0.20379765227E+04  0.00000000000E+00 0.  1.
         -2   -1    0    0    0  501 -0.00000000000E+00 -0.00000000000E+00 -0.20532408067E+02  0.20532408067E+02  0.00000000000E+00 0. -1.
          6    2    1    2  502    0 -0.73380723884E+02  0.56883183735E+02  0.12778315526E+04  0.12928431426E+04  0.17311697555E+03 0.  0.
         24    2    3    3    0    0 -0.59500961998E+01 -0.16822801458E+02  0.31907564932E+03  0.32888544957E+03  0.77704302699E+02 0.  0.
         -6    2    1    2    0  501  0.73380723884E+02 -0.56883183735E+02  0.73961256201E+03  0.76566578818E+03  0.17491978184E+03 0.  0.
        -24    2    5    5    0    0  0.44206651272E+01 -0.79347758602E+02  0.57298543395E+03  0.58387789905E+03  0.79281046972E+02 0.  0.
          5    1    3    3  502    0 -0.67430627684E+02  0.73705985193E+02  0.95875590327E+03  0.96395769298E+03  0.47000000000E+01 0. -1.
        -11    1    4    4    0    0  0.21789587552E+01 -0.16167217276E+02  0.32023303461E+03  0.32064828587E+03  0.00000000000E+00 0.  1.
         12    1    4    4    0    0 -0.81290549550E+01 -0.65558418154E+00 -0.11573852941E+01  0.82371636987E+01  0.00000000000E+00 0. -1.
         -5    1    5    5    0  501  0.68960058757E+02  0.22464574867E+02  0.16662712806E+03  0.18178788912E+03  0.47000000000E+01 0.  1.
         11    1    6    6    0    0  0.28414777153E+02  0.95757589938E+00  0.14170163699E+03  0.14452567397E+03  0.00000000000E+00 0. -1.
        -12    1    6    6    0    0 -0.23994112026E+02 -0.80305334502E+02  0.43128379696E+03  0.43935222508E+03  0.00000000000E+00 0.  1.
</event>
<event>
12    1  0.1348628E-002  0.1785159E+03  0.7818608E-02  0.1169247E+00
          2   -1    0    0  502    0  0.00000000000E+00  0.00000000000E+00  0.17446011604E+04  0.17446011604E+04  0.00000000000E+00 0. -1.
         -2   -1    0    0    0  501 -0.00000000000E+00 -0.00000000000E+00 -0.18376623053E+02  0.18376623053E+02  0.00000000000E+00 0.  1.
          6    2    1    2  502    0 -0.49371318094E+02 -0.29955361463E+01  0.79177577059E+03  0.81150433650E+03  0.17083300908E+03 0.  0.
         24    2    3    3    0    0 -0.47721682797E+02  0.45710930954E+00  0.23204105733E+03  0.25173681219E+03  0.85151643348E+02 0.  0.
         -6    2    1    2    0  501  0.49371318094E+02  0.29955361463E+01  0.93444876675E+03  0.95147344693E+03  0.17222288541E+03 0.  0.
        -24    2    5    5    0    0  0.42680641986E+02  0.46929870824E+02  0.33194601732E+03  0.34731564969E+03  0.80099638735E+02 0.  0.
          5    1    3    3  502    0 -0.16496352967E+01 -0.34526454558E+01  0.55973471326E+03  0.55976752432E+03  0.47000000000E+01 0. -1.
        -11    1    4    4    0    0 -0.10429795447E+02  0.27966632551E+02  0.23166882173E+02  0.37783827214E+02  0.00000000000E+00 0.  1.
         12    1    4    4    0    0 -0.37291887350E+02 -0.27509523241E+02  0.20887417516E+03  0.21395298497E+03  0.00000000000E+00 0. -1.
         -5    1    5    5    0  501  0.66906761072E+01 -0.43934334678E+02  0.60250274942E+03  0.60415779725E+03  0.47000000000E+01 0.  1.
         11    1    6    6    0    0  0.42918797163E+02  0.20417110500E+02  0.30782170090E+03  0.31146922977E+03  0.00000000000E+00 0. -1.
        -12    1    6    6    0    0 -0.23815517661E+00  0.26512760324E+02  0.24124316428E+02  0.35846419919E+02  0.00000000000E+00 0.  1.
</event>
