<event>
12    1  0.8331241E-002  0.2139160E+03  0.7818608E-02  0.1139051E+00
         21   -1    0    0  501  502  0.00000000000E+00  0.00000000000E+00  0.33785342598E+03  0.33785342598E+03  0.00000000000E+00 0. -1.
         21   -1    0    0  502  503 -0.00000000000E+00 -0.00000000000E+00 -0.16707343204E+03  0.16707343204E+03  0.00000000000E+00 0. -1.
         -6    2    1    2    0  503 -0.27665723785E+02 -0.11937308535E+03 -0.27960171857E+02  0.21293766752E+03  0.17188761812E+03 0.  0.
        -24    2    3    3    0    0  0.13284232075E+02 -0.11979992583E+02  0.21371930514E+02  0.87774088223E+02  0.83231845500E+02 0.  0.
          6    2    1    2  501    0  0.27665723785E+02  0.11937308535E+03  0.19874016580E+03  0.29198919050E+03  0.17534168953E+03 0.  0.
         24    2    5    5    0    0 -0.28312634973E+02  0.62192487487E+02  0.16405635831E+02  0.92812966417E+02  0.60626652960E+02 0.  0.
          5    1    5    5  501    0  0.55978358758E+02  0.57180597864E+02  0.18233452997E+03  0.19917622408E+03  0.47000000000E+01 0. -1.
        -11    1    6    6    0    0 -0.36360887452E+02  0.38306978590E+02  0.33329653405E+02  0.62453218821E+02  0.00000000000E+00 0.  1.
         12    1    6    6    0    0  0.80482524783E+01  0.23885508896E+02 -0.16924017575E+02  0.30359747595E+02  0.00000000000E+00 0. -1.
         -5    1    3    3    0  503 -0.40949955860E+02 -0.10739309277E+03 -0.49332102372E+02  0.12516357930E+03  0.47000000000E+01 0.  1.
         11    1    4    4    0    0 -0.60787154980E+01 -0.45287675596E+02  0.51930861174E+01  0.45987960233E+02  0.00000000000E+00 0. -1.
        -12    1    4    4    0    0  0.19362947573E+02  0.33307683012E+02  0.16178844397E+02  0.41786127990E+02  0.00000000000E+00 0.  1.
</event>
<event>
12    1  0.8331241E-002  0.2365986E+03  0.7818608E-02  0.1122161E+00
         21   -1    0    0  503  502  0.00000000000E+00  0.00000000000E+00  0.18210697532E+03  0.18210697532E+03  0.00000000000E+00 0. -1.
         21   -1    0    0  501  503 -0.00000000000E+00 -0.00000000000E+00 -0.32944973998E+03  0.32944973998E+03  0.00000000000E+00 0. -1.
          6    2    1    2  501    0  0.34292571004E+02  0.15879620317E+03 -0.14070169731E+03  0.27486491595E+03  0.17135209315E+03 0.  0.
         24    2    3    3    0    0  0.57882992857E+02  0.44040737426E+02 -0.26177158309E+02  0.11096468729E+03  0.79610871079E+02 0.  0.
         -6    2    1    2    0  502 -0.34292571004E+02 -0.15879620317E+03 -0.66410673455E+01  0.23669179935E+03  0.17200781825E+03 0.  0.
        -24    2    5    5    0    0  0.22263383335E+02 -0.12849869215E+03  0.38365707056E+02  0.15817928514E+03  0.80877602887E+02 0.  0.
          5    1    3    3  501    0 -0.23590421852E+02  0.11475546574E+03 -0.11452453900E+03  0.16390022866E+03  0.47000000000E+01 0. -1.
        -11    1    4    4    0    0 -0.11204136624E+02 -0.13663888021E+02 -0.64654424117E+01  0.18815856582E+02  0.00000000000E+00 0.  1.
         12    1    4    4    0    0  0.69087129481E+02  0.57704625446E+02 -0.19711715898E+02  0.92148830711E+02  0.00000000000E+00 0. -1.
         -5    1    5    5    0  502 -0.56555954339E+02 -0.30297511017E+02 -0.45006774401E+02  0.78512514207E+02  0.47000000000E+01 0.  1.
         11    1    6    6    0    0  0.29048033275E+02 -0.57411153002E+02 -0.18438476380E+02  0.66931353919E+02  0.00000000000E+00 0. -1.
        -12    1    6    6    0    0 -0.67846499405E+01 -0.71087539147E+02  0.56804183436E+02  0.91247931224E+02  0.00000000000E+00 0.  1.
</event>
<event>
12    1  0.8331241E-002  0.2052733E+03  0.7818608E-02  0.1146050E+00
         21   -1    0    0  501  502  0.00000000000E+00  0.00000000000E+00  0.12533992239E+03  0.12533992239E+03  0.00000000000E+00 0.  1.
         21   -1    0    0  502  503 -0.00000000000E+00 -0.00000000000E+00 -0.33683208122E+03  0.33683208122E+03  0.00000000000E+00 0.  1.
         -6    2    1    2    0  503 -0.70859403506E+02  0.56772197973E+02 -0.75537109373E+02  0.21873036472E+03  0.18410046178E+03 0.  0.
        -24    2    3    3    0    0  0.26230147146E+02  0.68724364793E+02 -0.33952736627E+02  0.11233212604E+03  0.77811691153E+02 0.  0.
          6    2    1    2  501    0  0.70859403506E+02 -0.56772197973E+02 -0.13595504946E+03  0.24344163889E+03  0.18037715638E+03 0.  0.
         24    2    5    5    0    0  0.61212992823E+02 -0.10317586668E+03 -0.12949749857E+03  0.19537768491E+03  0.83729013313E+02 0.  0.
          5    1    5    5  501    0  0.96464106832E+01  0.46403668704E+02 -0.64575508878E+01  0.48063953975E+02  0.47000000000E+01 0. -1.
        -13    1    6    6    0    0  0.46819296649E+02 -0.65730004016E+02 -0.13250809045E+03  0.15514791007E+03  0.00000000000E+00 0.  1.
         14    1    6    6    0    0  0.14393696174E+02 -0.37445862661E+02  0.30105918760E+01  0.40229774837E+02  0.00000000000E+00 0. -1.
         -5    1    3    3    0  503 -0.97089550653E+02 -0.11952166821E+02 -0.41584372746E+02  0.10639823868E+03  0.47000000000E+01 0.  1.
         11    1    4    4    0    0  0.15041614212E+02 -0.14204048578E+02 -0.17396080395E+02  0.27030145527E+02  0.00000000000E+00 0. -1.
        -12    1    4    4    0    0  0.11188532935E+02  0.82928413371E+02 -0.16556656232E+02  0.85301980511E+02  0.00000000000E+00 0.  1.
</event>
<event>
12    1  0.8331241E-002  0.1887896E+03  0.7818608E-02  0.1160976E+00
         21   -1    0    0  501  502  0.00000000000E+00  0.00000000000E+00  0.33228860869E+03  0.33228860869E+03  0.00000000000E+00 0.  1.
         21   -1    0    0  502  503 -0.00000000000E+00 -0.00000000000E+00 -0.10386785998E+03  0.10386785998E+03  0.00000000000E+00 0. -1.
         -6    2    1    2    0  503 -0.44984881902E+00  0.76810562802E+02  0.10703218821E+03  0.21170894424E+03  0.16572484073E+03 0.  0.
        -24    2    3    3    0    0 -0.16177701835E+02  0.46281151276E+02  0.13706472684E+03  0.16584551976E+03  0.79462784265E+02 0.  0.
          6    2    1    2  501    0  0.44984881902E+00 -0.76810562802E+02  0.12138856051E+03  0.22444752443E+03  0.17245707779E+03 0.  0.
         24    2    5    5    0    0 -0.27040340900E+02 -0.81199660490E+02  0.14589258829E+03  0.18706421148E+03  0.79898729651E+02 0.  0.
          5    1    5    5  501    0  0.27490189719E+02  0.43890976874E+01 -0.24504027784E+02  0.37383312947E+02  0.47000000000E+01 0. -1.
        -13    1    6    6    0    0  0.13944790184E+02 -0.50054623984E+02  0.11703458189E+03  0.12805083332E+03  0.00000000000E+00 0.  1.
         14    1    6    6    0    0 -0.40985131083E+02 -0.31145036505E+02  0.28858006400E+02  0.59013378163E+02  0.00000000000E+00 0. -1.
         -5    1    3    3    0  503  0.15727853016E+02  0.30529411526E+02 -0.30032538624E+02  0.45863424478E+02  0.47000000000E+01 0.  1.
         13    1    4    4    0    0 -0.21755925458E+02  0.65463575283E+01 -0.31957898593E+00  0.22721734532E+02  0.00000000000E+00 0. -1.
        -14    1    4    4    0    0  0.55782236234E+01  0.39734793748E+02  0.13738430582E+03  0.14312378523E+03  0.00000000000E+00 0.  1.
</event>
<event>
12    1  0.8331241E-002  0.1990126E+03  0.7818608E-02  0.1151913E+00
         21   -1    0    0  503  502  0.00000000000E+00  0.00000000000E+00  0.44322262009E+03  0.44322262009E+03  0.00000000000E+00 0.  1.
         21   -1    0    0  501  503 -0.00000000000E+00 -0.00000000000E+00 -0.98891781488E+02  0.98891781488E+02  0.00000000000E+00 0. -1.
          6    2    1    2  501    0 -0.46192574642E+02 -0.73102192008E+02  0.27011524756E+03  0.33551194918E+03  0.17924379110E+03 0.  0.
         24    2    3    3    0    0  0.15626450137E+02 -0.56112580065E+02  0.24565484583E+03  0.26673230109E+03  0.86063985374E+02 0.  0.
         -6    2    1    2    0  502  0.46192574642E+02  0.73102192008E+02  0.74215591039E+02  0.20660245240E+03  0.17233378936E+03 0.  0.
        -24    2    5    5    0    0  0.48845659076E+02  0.36203586242E+02  0.11677904099E+03  0.15001373235E+03  0.71903945728E+02 0.  0.
          5    1    3    3  501    0 -0.61819024779E+02 -0.16989611943E+02  0.24460401734E+02  0.68779648092E+02  0.47000000000E+01 0. -1.
        -11    1    4    4    0    0  0.34739478017E+01 -0.75763394491E+02  0.21730354328E+03  0.23015861961E+03  0.00000000000E+00 0.  1.
         12    1    4    4    0    0  0.12152502335E+02  0.19650814426E+02  0.28351302545E+02  0.36573681474E+02  0.00000000000E+00 0. -1.
         -5    1    5    5    0  502 -0.26530844340E+01  0.36898605766E+02 -0.42563449956E+02  0.56588720048E+02  0.47000000000E+01 0.  1.
         13    1    6    6    0    0  0.38125851923E+02 -0.53886413404E+01  0.18416478948E+02  0.42682370332E+02  0.00000000000E+00 0. -1.
        -14    1    6    6    0    0  0.10719807153E+02  0.41592227583E+02  0.98362562047E+02  0.10733136202E+03  0.00000000000E+00 0.  1.
</event>
<event>
12    1  0.8331241E-002  0.2421345E+03  0.7818608E-02  0.1118505E+00
         21   -1    0    0  501  502  0.00000000000E+00  0.00000000000E+00  0.35223892361E+02  0.35223892361E+02  0.00000000000E+00 0. -1.
         21   -1    0    0  502  503 -0.00000000000E+00 -0.00000000000E+00 -0.16598679279E+04  0.16598679279E+04  0.00000000000E+00 0. -1.
         -6    2    1    2    0  503  0.14155208836E+03 -0.93844988156E+02 -0.83036689074E+03  0.86494987601E+03  0.17258400638E+03 0.  0.
        -24    2    3    3    0    0  0.10455573837E+03 -0.70468972445E+02 -0.32296638873E+03  0.35564394883E+03  0.79231001437E+02 0.  0.
          6    2    1    2  501    0 -0.14155208836E+03  0.93844988156E+02 -0.79427714478E+03  0.83014194423E+03  0.17150973537E+03 0.  0.
         24    2    5    5    0    0 -0.15265023986E+03  0.78099584835E+02 -0.78660931760E+03  0.80888230486E+03  0.78324477021E+02 0.  0.
          5    1    5    5  501    0  0.11098151503E+02  0.15745403321E+02 -0.76678271874E+01  0.21259639374E+02  0.47000000000E+01 0. -1.
        -11    1    6    6    0    0 -0.65136662850E+02 -0.14251030801E+01 -0.19578697788E+03  0.20634281299E+03  0.00000000000E+00 0.  1.
         12    1    6    6    0    0 -0.87513577009E+02  0.79524687915E+02 -0.59082233971E+03  0.60253949186E+03  0.00000000000E+00 0. -1.
         -5    1    3    3    0  503  0.36996349991E+02 -0.23376015711E+02 -0.50740050201E+03  0.50930592718E+03  0.47000000000E+01 0.  1.
         13    1    4    4    0    0  0.51679047979E+02 -0.37602268505E+02 -0.25744811511E+03  0.26526248618E+03  0.00000000000E+00 0. -1.
        -14    1    4    4    0    0  0.52876690386E+02 -0.32866703940E+02 -0.65518273616E+02  0.90381462655E+02  0.00000000000E+00 0.  1.
</event>
<event>
12    1  0.8331241E-002  0.2568850E+03  0.7818608E-02  0.1109743E+00
         21   -1    0    0  501  502  0.00000000000E+00  0.00000000000E+00  0.26717928372E+03  0.26717928372E+03  0.00000000000E+00 0. -1.
         21   -1    0    0  502  503 -0.00000000000E+00 -0.00000000000E+00 -0.26129727034E+03  0.26129727034E+03  0.00000000000E+00 0.  1.
         -6    2    1    2    0  503  0.17557099481E+03  0.66564194209E+02 -0.67801271358E+02  0.26568196215E+03  0.17531094216E+03 0.  0.
        -24    2    3    3    0    0  0.16555861826E+03  0.84480225294E+02 -0.10119475722E+03  0.22620479467E+03  0.79885328413E+02 0.  0.
          6    2    1    2  501    0 -0.17557099481E+03 -0.66564194209E+02  0.73683284737E+02  0.26279459192E+03  0.16845119448E+03 0.  0.
         24    2    5    5    0    0 -0.33837969682E+02 -0.42611296771E+01 -0.80151424248E+01  0.87675645874E+02  0.80371704928E+02 0.  0.
          5    1    5    5  501    0 -0.14173302513E+03 -0.62303064532E+02  0.81698427162E+02  0.17511894604E+03  0.47000000000E+01 0. -1.
        -13    1    6    6    0    0 -0.31186630710E+02 -0.80684519651E+00  0.33590368160E+02  0.45842881316E+02  0.00000000000E+00 0.  1.
         14    1    6    6    0    0 -0.26513389715E+01 -0.34542844806E+01 -0.41605510584E+02  0.41832764558E+02  0.00000000000E+00 0. -1.
         -5    1    3    3    0  503  0.10012376556E+02 -0.17916031085E+02  0.33393485864E+02  0.39477167481E+02  0.47000000000E+01 0.  1.
         11    1    4    4    0    0  0.25191625012E+02  0.30841445327E+02  0.77899015836E+01  0.40577029060E+02  0.00000000000E+00 0. -1.
        -12    1    4    4    0    0  0.14036699325E+03  0.53638779967E+02 -0.10898465881E+03  0.18562776561E+03  0.00000000000E+00 0.  1.
</event>
<event>
12    1  0.8331241E-002  0.1910192E+03  0.7818608E-02  0.1160390E+00
         21   -1    0    0  501  502  0.00000000000E+00  0.00000000000E+00  0.15879851259E+03  0.15879851259E+03  0.00000000000E+00 0. -1.
         21   -1    0    0  502  503 -0.00000000000E+00 -0.00000000000E+00 -0.29284983932E+03  0.29284983932E+03  0.00000000000E+00 0. -1.
         -6    2    1    2    0  503 -0.82985735737E+02 -0.35883168040E+01 -0.18484536215E+03  0.26581226541E+03  0.17201408134E+03 0.  0.
        -24    2    3    3    0    0 -0.35807006921E+02  0.53530262326E+02 -0.15508654557E+03  0.18583700862E+03  0.79598532815E+02 0.  0.
          6    2    1    2  501    0  0.82985735737E+02  0.35883168040E+01  0.50794035421E+02  0.18583608650E+03  0.15828931947E+03 0.  0.
         24    2    5    5    0    0  0.49798602491E+02  0.58764105482E+02  0.16222255261E+02  0.11260322876E+03  0.80518349829E+02 0.  0.
          5    1    5    5  501    0  0.33187133246E+02 -0.55175788678E+02  0.34571780160E+02  0.73232857740E+02  0.47000000000E+01 0. -1.
        -13    1    6    6    0    0 -0.78477948759E+01  0.13801116676E+02  0.33860371339E+02  0.37397639673E+02  0.00000000000E+00 0.  1.
         14    1    6    6    0    0  0.57646397367E+02  0.44962988806E+02 -0.17638116078E+02  0.75205589091E+02  0.00000000000E+00 0. -1.
         -5    1    3    3    0  503 -0.47178728816E+02 -0.57118579130E+02 -0.29758816584E+02  0.79975256792E+02  0.47000000000E+01 0.  1.
         11    1    4    4    0    0 -0.55495639504E+01  0.72387647543E+00 -0.10988312472E+03  0.11002555501E+03  0.00000000000E+00 0. -1.
        -12    1    4    4    0    0 -0.30257442970E+02  0.52806385851E+02 -0.45203420849E+02  0.75811453608E+02  0.00000000000E+00 0.  1.
</event>
<event>
12    1  0.8331241E-002  0.2353575E+03  0.7818608E-02  0.1123023E+00
         21   -1    0    0  501  502  0.00000000000E+00  0.00000000000E+00  0.19882117194E+03  0.19882117194E+03  0.00000000000E+00 0. -1.
         21   -1    0    0  502  503 -0.00000000000E+00 -0.00000000000E+00 -0.34084971977E+03  0.34084971977E+03  0.00000000000E+00 0.  1.
         -6    2    1    2    0  503  0.30185595807E+02  0.15697491827E+03 -0.18702182213E+03  0.30061654196E+03  0.17274503810E+03 0.  0.
        -24    2    3    3    0    0  0.26431452022E+02  0.54884850742E+02 -0.16945572575E+03  0.19685174434E+03  0.79526082278E+02 0.  0.
          6    2    1    2  501    0 -0.30185595807E+02 -0.15697491827E+03  0.44993274305E+02  0.23905434975E+03  0.17196014724E+03 0.  0.
         24    2    5    5    0    0 -0.74251343324E+02 -0.11089355350E+03 -0.94087402422E+01  0.15510822732E+03  0.78481816977E+02 0.  0.
          5    1    5    5  501    0  0.44065747516E+02 -0.46081364777E+02  0.54402014548E+02  0.83946122428E+02  0.47000000000E+01 0. -1.
        -11    1    6    6    0    0 -0.66416308990E+02 -0.10377666587E+03 -0.34438371482E+02  0.12793249748E+03  0.00000000000E+00 0.  1.
         12    1    6    6    0    0 -0.78350343342E+01 -0.71168876224E+01  0.25029631240E+02  0.27175729842E+02  0.00000000000E+00 0. -1.
         -5    1    3    3    0  503  0.37541437855E+01  0.10209006753E+03 -0.17566096379E+02  0.10376479763E+03  0.47000000000E+01 0.  1.
         13    1    4    4    0    0  0.23820895722E+02 -0.34058583006E+01 -0.82939676198E+01  0.25452403474E+02  0.00000000000E+00 0. -1.
        -14    1    4    4    0    0  0.26105563004E+01  0.58290709042E+02 -0.16116175813E+03  0.17139934086E+03  0.00000000000E+00 0.  1.
</event>
<event>
12    1  0.8331241E-002  0.3370699E+03  0.7818608E-02  0.1068208E+00
         21   -1    0    0  503  502  0.00000000000E+00  0.00000000000E+00  0.35895640162E+03  0.35895640162E+03  0.00000000000E+00 0.  1.
         21   -1    0    0  501  503 -0.00000000000E+00 -0.00000000000E+00 -0.37591120973E+03  0.37591120973E+03  0.00000000000E+00 0. -1.
          6    2    1    2  501    0 -0.55101047438E+02 -0.28263920754E+03 -0.15618456703E+03  0.37017450692E+03  0.17237894168E+03 0.  0.
         24    2    3    3    0    0 -0.68417560513E+02 -0.29319744959E+03 -0.16201883408E+03  0.35160209007E+03  0.82025728378E+02 0.  0.
         -6    2    1    2    0  502  0.55101047438E+02  0.28263920754E+03  0.13922975892E+03  0.36469310443E+03  0.17520013579E+03 0.  0.
        -24    2    5    5    0    0  0.45808320977E+02  0.15544640709E+03  0.15366206614E+03  0.23626123634E+03  0.77106118270E+02 0.  0.
          5    1    3    3  501    0  0.13316513075E+02  0.10558242052E+02  0.58342670501E+01  0.18572416852E+02  0.47000000000E+01 0. -1.
        -11    1    4    4    0    0 -0.78127599272E+02 -0.17015843494E+03 -0.11372167389E+03  0.21906719029E+03  0.00000000000E+00 0.  1.
         12    1    4    4    0    0  0.97100387590E+01 -0.12303901465E+03 -0.48297160187E+02  0.13253489978E+03  0.00000000000E+00 0. -1.
         -5    1    5    5    0  502  0.92927264607E+01  0.12719280044E+03 -0.14432307225E+02  0.12843186809E+03  0.47000000000E+01 0.  1.
         11    1    6    6    0    0 -0.15883926957E+02  0.29827986312E+02  0.89757282937E+01  0.34965291382E+02  0.00000000000E+00 0. -1.
        -12    1    6    6    0    0  0.61692247934E+02  0.12561842078E+03  0.14468633785E+03  0.20129594495E+03  0.00000000000E+00 0.  1.
</event>
<event>
12    1  0.8331241E-002  0.2243183E+03  0.7818608E-02  0.1131695E+00
         21   -1    0    0  503  502  0.00000000000E+00  0.00000000000E+00  0.36209241959E+03  0.36209241959E+03  0.00000000000E+00 0. -1.
         21   -1    0    0  501  503 -0.00000000000E+00 -0.00000000000E+00 -0.17338514718E+03  0.17338514718E+03  0.00000000000E+00 0.  1.
          6    2    1    2  501    0 -0.76088589386E+02 -0.11465963836E+03 -0.31438563871E+02  0.22118013577E+03  0.17028201037E+03 0.  0.
         24    2    3    3    0    0 -0.48062977121E+02 -0.60634847140E+02  0.46123545745E+02  0.12247814056E+03  0.82987221828E+02 0.  0.
         -6    2    1    2    0  502  0.76088589386E+02  0.11465963836E+03  0.22014583628E+03  0.31429743100E+03  0.17715072621E+03 0.  0.
        -24    2    5    5    0    0  0.75312050165E+02  0.83335323934E+02  0.23973020163E+03  0.27704890010E+03  0.81662980352E+02 0.  0.
          5    1    3    3  501    0 -0.28025612265E+02 -0.54024791224E+02 -0.77562109616E+02  0.98701995207E+02  0.47000000000E+01 0. -1.
        -13    1    4    4    0    0 -0.40658278585E+02 -0.28042994047E+02 -0.16013734355E+02  0.51922488582E+02  0.00000000000E+00 0.  1.
         14    1    4    4    0    0 -0.74046985359E+01 -0.32591853093E+02  0.62137280100E+02  0.70555651983E+02  0.00000000000E+00 0. -1.
         -5    1    5    5    0  502  0.77653922094E+00  0.31324314431E+02 -0.19584365351E+02  0.37248530896E+02  0.47000000000E+01 0.  1.
         13    1    6    6    0    0  0.93714993109E+01  0.26383551457E+02  0.14764423186E+03  0.15027553356E+03  0.00000000000E+00 0. -1.
        -14    1    6    6    0    0  0.65940550854E+02  0.56951772476E+02  0.92085969771E+02  0.12677336654E+03  0.00000000000E+00 0.  1.
</event>
<event>
12    1  0.8331241E-002  0.2033666E+03  0.7818608E-02  0.1147225E+00
         21   -1    0    0  501  502  0.00000000000E+00  0.00000000000E+00  0.16817001727E+03  0.16817001727E+03  0.00000000000E+00 0. -1.
         21   -1    0    0  502  503 -0.00000000000E+00 -0.00000000000E+00 -0.37897957287E+03  0.37897957287E+03  0.00000000000E+00 0. -1.
         -6    2    1    2    0  503  0.10785615617E+03 -0.20508200389E+02 -0.26878664619E+03  0.33705226165E+03  0.17118536505E+03 0.  0.
        -24    2    3    3    0    0  0.10609061315E+03 -0.20194971185E+02 -0.98609078514E+02  0.16680036065E+03  0.80221910271E+02 0.  0.
          6    2    1    2  501    0 -0.10785615617E+03  0.20508200389E+02  0.57977090587E+02  0.21009732849E+03  0.16948748537E+03 0.  0.
         24    2    5    5    0    0 -0.10930022487E+03  0.48063678916E+02  0.88692501937E+02  0.16854114693E+03  0.79266019957E+02 0.  0.
          5    1    5    5  501    0  0.14440687000E+01 -0.27555478527E+02 -0.30715411351E+02  0.41556181559E+02  0.47000000000E+01 0. -1.
        -13    1    6    6    0    0  0.16203101102E+01  0.24098816645E+02  0.36177073855E+02  0.43498954484E+02  0.00000000000E+00 0.  1.
         14    1    6    6    0    0 -0.11092053498E+03  0.23964862271E+02  0.52515428083E+02  0.12504219244E+03  0.00000000000E+00 0. -1.
         -5    1    3    3    0  503  0.17655430169E+01 -0.31322920393E+00 -0.17017756768E+03  0.17025190100E+03  0.47000000000E+01 0.  1.
         11    1    4    4    0    0 -0.61102399720E+01 -0.16995713054E+02 -0.30675239507E+02  0.35597185472E+02  0.00000000000E+00 0. -1.
        -12    1    4    4    0    0  0.11220085313E+03 -0.31992581304E+01 -0.67933839007E+02  0.13120317518E+03  0.00000000000E+00 0.  1.
</event>
<event>
12    1  0.8331241E-002  0.1777962E+03  0.7818608E-02  0.1171229E+00
         21   -1    0    0  503  502  0.00000000000E+00  0.00000000000E+00  0.54740256465E+02  0.54740256465E+02  0.00000000000E+00 0.  1.
         21   -1    0    0  501  503 -0.00000000000E+00 -0.00000000000E+00 -0.76677720265E+03  0.76677720265E+03  0.00000000000E+00 0.  1.
          6    2    1    2  501    0 -0.18584806178E+02  0.48384830471E+01 -0.57258550756E+03  0.59955454351E+03  0.17675599349E+03 0.  0.
         24    2    3    3    0    0 -0.46486690748E+02 -0.37693948855E+02 -0.51770538552E+03  0.52457827579E+03  0.59846930053E+02 0.  0.
         -6    2    1    2    0  502  0.18584806178E+02 -0.48384830471E+01 -0.13945143862E+03  0.22196291560E+03  0.17161592651E+03 0.  0.
        -24    2    5    5    0    0  0.73668146166E+02 -0.25453322892E+02 -0.10601169142E+03  0.15414365094E+03  0.80292708280E+02 0.  0.
          5    1    3    3  501    0  0.27901884570E+02  0.42532431902E+02 -0.54880122042E+02  0.74976267722E+02  0.47000000000E+01 0. -1.
        -13    1    4    4    0    0 -0.55130894691E+02 -0.14240677995E+02 -0.41431003391E+03  0.41820451535E+03  0.00000000000E+00 0.  1.
         14    1    4    4    0    0  0.86442039425E+01 -0.23453270860E+02 -0.10339535161E+03  0.10637376044E+03  0.00000000000E+00 0. -1.
         -5    1    5    5    0  502 -0.55083339988E+02  0.20614839845E+02 -0.33439747201E+02  0.67819264659E+02  0.47000000000E+01 0.  1.
         11    1    6    6    0    0  0.72918060786E+00 -0.37609134374E+02 -0.30174436747E+02  0.48223182451E+02  0.00000000000E+00 0. -1.
        -12    1    6    6    0    0  0.72938965558E+02  0.12155811482E+02 -0.75837254674E+02  0.10592046849E+03  0.00000000000E+00 0.  1.
</event>
<event>
12    1  0.8331241E-002  0.1781995E+03  0.7818608E-02  0.1170295E+00
         21   -1    0    0  503  502  0.00000000000E+00  0.00000000000E+00  0.42066419190E+02  0.42066419190E+02  0.00000000000E+00 0. -1.
         21   -1    0    0  501  503 -0.00000000000E+00 -0.00000000000E+00 -0.14202817593E+04  0.14202817593E+04  0.00000000000E+00 0. -1.
          6    2    1    2  501    0  0.46697778526E+02 -0.72881449253E+01 -0.11912359283E+04  0.12040530768E+04  0.16872159062E+03 0.  0.
         24    2    3    3    0    0  0.37612579059E+02  0.30876496625E+02 -0.11082670283E+04  0.11121563462E+04  0.79169869585E+02 0.  0.
         -6    2    1    2    0  502 -0.46697778526E+02  0.72881449253E+01 -0.18697941176E+03  0.25829510171E+03  0.17181751822E+03 0.  0.
        -24    2    5    5    0    0  0.22247036082E+02  0.45347056582E+02 -0.13576350338E+03  0.16423646314E+03  0.77398971698E+02 0.  0.
          5    1    3    3  501    0  0.90851994670E+01 -0.38164641550E+02 -0.82968900021E+02  0.91896730545E+02  0.47000000000E+01 0. -1.
        -13    1    4    4    0    0  0.81471566785E+01 -0.53593292543E+01 -0.14994449195E+02  0.17886645260E+02  0.00000000000E+00 0.  1.
         14    1    4    4    0    0  0.29465422380E+02  0.36235825879E+02 -0.10932725791E+04  0.10942697009E+04  0.00000000000E+00 0. -1.
         -5    1    5    5    0  502 -0.68944814608E+02 -0.38058911657E+02 -0.51215908380E+02  0.94058638566E+02  0.47000000000E+01 0.  1.
         13    1    6    6    0    0  0.16553061215E+01  0.45447535087E+02 -0.25646694117E+02  0.52210836068E+02  0.00000000000E+00 0. -1.
        -14    1    6    6    0    0  0.20591729960E+02 -0.10047850460E+00 -0.11011680926E+03  0.11202562707E+03  0.00000000000E+00 0.  1.
</event>
<event>
12    1  0.8331241E-002  0.3092050E+03  0.7818608E-02  0.1080731E+00
         21   -1    0    0  503  502  0.00000000000E+00  0.00000000000E+00  0.91069877885E+02  0.91069877885E+02  0.00000000000E+00 0.  1.
         21   -1    0    0  501  503 -0.00000000000E+00 -0.00000000000E+00 -0.10519296406E+04  0.10519296406E+04  0.00000000000E+00 0.  1.
          6    2    1    2  501    0  0.21007443088E+03  0.14779547475E+03 -0.50651885157E+03  0.59342386305E+03  0.17209231644E+03 0.  0.
         24    2    3    3    0    0  0.20089611048E+03  0.16934798923E+03 -0.49467579470E+03  0.56675739643E+03  0.86439666139E+02 0.  0.
         -6    2    1    2    0  502 -0.21007443088E+03 -0.14779547475E+03 -0.45434091119E+03  0.54957565547E+03  0.17214229186E+03 0.  0.
        -24    2    5    5    0    0 -0.10133340380E+03 -0.12673565003E+02 -0.13564914213E+03  0.18671331914E+03  0.77666568155E+02 0.  0.
          5    1    3    3  501    0  0.91783203987E+01 -0.21552514485E+02 -0.11843056863E+02  0.26666466617E+02  0.47000000000E+01 0. -1.
        -11    1    4    4    0    0  0.14622349479E+03  0.16158589165E+03 -0.35488360863E+03  0.41645370269E+03  0.00000000000E+00 0.  1.
         12    1    4    4    0    0  0.54672615695E+02  0.77620975765E+01 -0.13979218607E+03  0.15030369374E+03  0.00000000000E+00 0. -1.
         -5    1    5    5    0  502 -0.10874102708E+03 -0.13512190974E+03 -0.31869176906E+03  0.36286233633E+03  0.47000000000E+01 0.  1.
         11    1    6    6    0    0 -0.10140312330E+03 -0.33544425681E+02 -0.10621158808E+03  0.15062776421E+03  0.00000000000E+00 0. -1.
        -12    1    6    6    0    0  0.69719496595E-01  0.20870860678E+02 -0.29437554053E+02  0.36085554934E+02  0.00000000000E+00 0.  1.
</event>
<event>
12    1  0.8331241E-002  0.1724168E+03  0.7818608E-02  0.1175430E+00
         21   -1    0    0  501  502  0.00000000000E+00  0.00000000000E+00  0.32172451891E+03  0.32172451891E+03  0.00000000000E+00 0.  1.
         21   -1    0    0  502  503 -0.00000000000E+00 -0.00000000000E+00 -0.37381128608E+03  0.37381128608E+03  0.00000000000E+00 0.  1.
         -6    2    1    2    0  503 -0.28548634767E+01 -0.87880837073E+01 -0.32786712900E+03  0.37029382232E+03  0.17185831348E+03 0.  0.
        -24    2    3    3    0    0 -0.33543057049E+02 -0.59424473301E+02 -0.26307970093E+03  0.28240007959E+03  0.76697269880E+02 0.  0.
          6    2    1    2  501    0  0.28548634767E+01  0.87880837073E+01  0.27578036182E+03  0.32524198267E+03  0.17216898287E+03 0.  0.
         24    2    5    5    0    0 -0.55153426544E+02 -0.52596754759E+01  0.23172756128E+03  0.25091136660E+03  0.78672019080E+02 0.  0.
          5    1    5    5  501    0  0.58008290021E+02  0.14047759183E+02  0.44052800539E+02  0.74330616065E+02  0.47000000000E+01 0. -1.
        -13    1    6    6    0    0 -0.20687848649E+02 -0.38941079560E+02  0.75646681117E+02  0.87560351319E+02  0.00000000000E+00 0.  1.
         14    1    6    6    0    0 -0.34465577895E+02  0.33681404084E+02  0.15608088017E+03  0.16335101528E+03  0.00000000000E+00 0. -1.
         -5    1    3    3    0  503  0.30688193572E+02  0.50636389593E+02 -0.64787428067E+02  0.87893742731E+02  0.47000000000E+01 0.  1.
         13    1    4    4    0    0 -0.39102919372E+02 -0.34020323096E+02 -0.67524471227E+02  0.85123292355E+02  0.00000000000E+00 0. -1.
        -14    1    4    4    0    0  0.55598623235E+01 -0.25404150205E+02 -0.19555522971E+03  0.19727678724E+03  0.00000000000E+00 0.  1.
</event>
<event>
12    1  0.8331241E-002  0.1810545E+03  0.7818608E-02  0.1167157E+00
         21   -1    0    0  501  502  0.00000000000E+00  0.00000000000E+00  0.52587762238E+03  0.52587762238E+03  0.00000000000E+00 0. -1.
         21   -1    0    0  502  503 -0.00000000000E+00 -0.00000000000E+00 -0.78281684871E+02  0.78281684871E+02  0.00000000000E+00 0. -1.
         -6    2    1    2    0  503 -0.40253566173E+02  0.40612761656E+02  0.85975095748E+02  0.20043068018E+03  0.17178764354E+03 0.  0.
        -24    2    3    3    0    0  0.91735443599E+00  0.36008852748E+02 -0.16984815937E+02  0.89349295177E+02  0.79983333019E+02 0.  0.
          6    2    1    2  501    0  0.40253566173E+02 -0.40612761656E+02  0.36162084176E+03  0.40372862706E+03  0.17016881359E+03 0.  0.
         24    2    5    5    0    0 -0.15650196124E+02  0.30409873411E+02  0.17300399602E+03  0.19452095553E+03  0.82087334369E+02 0.  0.
          5    1    5    5  501    0  0.55903762297E+02 -0.71022635066E+02  0.18861684574E+03  0.20920767153E+03  0.47000000000E+01 0. -1.
        -11    1    6    6    0    0  0.13031564785E+02  0.49802605227E+02  0.78498234102E+02  0.93872753903E+02  0.00000000000E+00 0.  1.
         12    1    6    6    0    0 -0.28681760909E+02 -0.19392731816E+02  0.94505761916E+02  0.10064820163E+03  0.00000000000E+00 0. -1.
         -5    1    3    3    0  503 -0.41170920609E+02  0.46039089072E+01  0.10295991169E+03  0.11108138501E+03  0.47000000000E+01 0.  1.
         11    1    4    4    0    0  0.13937770285E+01 -0.24029522496E+02 -0.16721989563E+02  0.29308454425E+02  0.00000000000E+00 0. -1.
        -12    1    4    4    0    0 -0.47642259247E+00  0.60038375245E+02 -0.26282637326E+00  0.60040840752E+02  0.00000000000E+00 0.  1.
</event>
<event>
12    1  0.8331241E-002  0.2967551E+03  0.7818608E-02  0.1086897E+00
         21   -1    0    0  503  502  0.00000000000E+00  0.00000000000E+00  0.75602426962E+03  0.75602426962E+03  0.00000000000E+00 0. -1.
         21   -1    0    0  501  503 -0.00000000000E+00 -0.00000000000E+00 -0.11755584901E+03  0.11755584901E+03  0.00000000000E+00 0. -1.
          6    2    1    2  501    0  0.17284898045E+02  0.24093145787E+03  0.36224162410E+03  0.46816082421E+03  0.17207215926E+03 0.  0.
         24    2    3    3    0    0 -0.23906563520E+02  0.72233006602E+02  0.20900562205E+03  0.23651612582E+03  0.80420126209E+02 0.  0.
         -6    2    1    2    0  502 -0.17284898045E+02 -0.24093145787E+03  0.27622679651E+03  0.40541929442E+03  0.17238568992E+03 0.  0.
        -24    2    5    5    0    0 -0.57702322169E+02 -0.21548379493E+03  0.26581130855E+03  0.35630998663E+03  0.80859946582E+02 0.  0.
          5    1    3    3  501    0  0.41191461565E+02  0.16869845127E+03  0.15323600205E+03  0.23164469839E+03  0.47000000000E+01 0. -1.
        -13    1    4    4    0    0 -0.21229089439E+02  0.89368457577E+02  0.15947891318E+03  0.18404053683E+03  0.00000000000E+00 0.  1.
         14    1    4    4    0    0 -0.26774740818E+01 -0.17135450975E+02  0.49526708875E+02  0.52475588987E+02  0.00000000000E+00 0. -1.
         -5    1    5    5    0  502  0.40417424125E+02 -0.25447662940E+02  0.10415487961E+02  0.49109307788E+02  0.47000000000E+01 0.  1.
         13    1    6    6    0    0 -0.75733107367E+02 -0.13690837514E+03  0.18231471074E+03  0.24024583345E+03  0.00000000000E+00 0. -1.
        -14    1    6    6    0    0  0.18030785197E+02 -0.78575419791E+02  0.83496597807E+02  0.11606415319E+03  0.00000000000E+00 0.  1.
</event>
<event>
12    1  0.8331241E-002  0.1919902E+03  0.7818608E-02  0.1159588E+00
         21   -1    0    0  503  502  0.00000000000E+00  0.00000000000E+00  0.69227549660E+02  0.69227549660E+02  0.00000000000E+00 0. -1.
         21   -1    0    0  501  503 -0.00000000000E+00 -0.00000000000E+00 -0.53681005605E+03  0.53681005605E+03  0.00000000000E+00 0. -1.
          6    2    1    2  501    0 -0.31015042562E+02  0.40617855558E+02 -0.32254727041E+03  0.37536245028E+03  0.18506346040E+03 0.  0.
         24    2    3    3    0    0 -0.31710935562E+02  0.36890722507E+02 -0.57506677504E+02  0.11025307346E+03  0.80512194162E+02 0.  0.
         -6    2    1    2    0  502  0.31015042562E+02 -0.40617855558E+02 -0.14503523598E+03  0.23067515543E+03  0.17194203850E+03 0.  0.
        -24    2    5    5    0    0 -0.30534618374E+02 -0.36811043810E+02 -0.14058045165E+03  0.16866880350E+03  0.79993037328E+02 0.  0.
          5    1    3    3  501    0  0.69589299986E+00  0.37271330515E+01 -0.26504059290E+03  0.26510937681E+03  0.47000000000E+01 0. -1.
        -13    1    4    4    0    0 -0.42572275516E+02  0.10343780306E+02 -0.66989163948E+02  0.80043366496E+02  0.00000000000E+00 0.  1.
         14    1    4    4    0    0  0.10861339954E+02  0.26546942200E+02  0.94824864431E+01  0.30209706965E+02  0.00000000000E+00 0. -1.
         -5    1    5    5    0  502  0.61549660936E+02 -0.38068117480E+01 -0.44547843274E+01  0.62006351936E+02  0.47000000000E+01 0.  1.
         11    1    6    6    0    0 -0.11294648833E+02 -0.41180211797E+02 -0.21209439850E+02  0.47678289343E+02  0.00000000000E+00 0. -1.
        -12    1    6    6    0    0 -0.19239969541E+02  0.43691679865E+01 -0.11937101180E+03  0.12099051415E+03  0.00000000000E+00 0.  1.
</event>
<event>
12    1  0.8331241E-002  0.2393164E+03  0.7818608E-02  0.1120300E+00
         21   -1    0    0  501  502  0.00000000000E+00  0.00000000000E+00  0.26280875596E+02  0.26280875596E+02  0.00000000000E+00 0. -1.
         21   -1    0    0  502  503 -0.00000000000E+00 -0.00000000000E+00 -0.21790294659E+04  0.21790294659E+04  0.00000000000E+00 0. -1.
         -6    2    1    2    0  503  0.10926666437E+03  0.12437752370E+03 -0.10393573990E+04  0.10665533894E+04  0.17281017695E+03 0.  0.
        -24    2    3    3    0    0  0.96311809146E+02  0.88546360476E+02 -0.44087067645E+03  0.46683666662E+03  0.80331173322E+02 0.  0.
          6    2    1    2  501    0 -0.10926666437E+03 -0.12437752370E+03 -0.11133911913E+04  0.11387569521E+04  0.17239048323E+03 0.  0.
         24    2    5    5    0    0 -0.52399135068E+02 -0.53733205528E+01 -0.64458776549E+03  0.65173060957E+03  0.80528616620E+02 0.  0.
          5    1    5    5  501    0 -0.56867529304E+02 -0.11900420315E+03 -0.46880342584E+03  0.48702634255E+03  0.47000000000E+01 0. -1.
        -13    1    6    6    0    0  0.16165815622E+02  0.10196556055E+02 -0.26483267697E+03  0.26552146833E+03  0.00000000000E+00 0.  1.
         14    1    6    6    0    0 -0.68564950691E+02 -0.15569876607E+02 -0.37975508852E+03  0.38620914124E+03  0.00000000000E+00 0. -1.
         -5    1    3    3    0  503  0.12954855226E+02  0.35831163227E+02 -0.59848672251E+03  0.59971672276E+03  0.47000000000E+01 0.  1.
         13    1    4    4    0    0  0.84916140305E+02  0.10223862498E+03 -0.35326761625E+03  0.37744071854E+03  0.00000000000E+00 0. -1.
        -14    1    4    4    0    0  0.11395668840E+02 -0.13692264501E+02 -0.87603060201E+02  0.89395948074E+02  0.00000000000E+00 0.  1.
</event>
<event>
12    1  0.8331241E-002  0.2047960E+03  0.7818608E-02  0.1145887E+00
         21   -1    0    0  503  502  0.00000000000E+00  0.00000000000E+00  0.12802972010E+02  0.12802972010E+02  0.00000000000E+00 0. -1.
         21   -1    0    0  501  503 -0.00000000000E+00 -0.00000000000E+00 -0.33432487164E+04  0.33432487164E+04  0.00000000000E+00 0. -1.
          6    2    1    2  501    0 -0.10446168383E+03  0.27806820734E+02 -0.19235185630E+04  0.19343901034E+04  0.17394236769E+03 0.  0.
         24    2    3    3    0    0 -0.40533945734E+02  0.22438866179E+02 -0.16877394273E+04  0.16899939875E+04  0.73951334517E+02 0.  0.
         -6    2    1    2    0  502  0.10446168383E+03 -0.27806820734E+02 -0.14069271814E+04  0.14216615850E+04  0.17318229089E+03 0.  0.
        -24    2    5    5    0    0  0.18527891732E+02  0.34824062327E+02 -0.46274070925E+03  0.47149453216E+03  0.81376481693E+02 0.  0.
          5    1    3    3  501    0 -0.63927738097E+02  0.53679545542E+01 -0.23577913571E+03  0.24439611591E+03  0.47000000000E+01 0. -1.
        -13    1    4    4    0    0 -0.55056584995E+01  0.28362302276E+02 -0.22812204310E+03  0.22994433895E+03  0.00000000000E+00 0.  1.
         14    1    4    4    0    0 -0.35028287234E+02 -0.59234360963E+01 -0.14596173842E+04  0.14600496485E+04  0.00000000000E+00 0. -1.
         -5    1    5    5    0  502  0.85933792099E+02 -0.62630883060E+02 -0.94418647214E+03  0.95016705285E+03  0.47000000000E+01 0.  1.
         11    1    6    6    0    0  0.81920561401E+01  0.53768083727E+01 -0.41067515266E+03  0.41079204089E+03  0.00000000000E+00 0. -1.
        -12    1    6    6    0    0  0.10335835592E+02  0.29447253954E+02 -0.52065556593E+02  0.60702491269E+02  0.00000000000E+00 0.  1.
</event>
<event>
12    1  0.8331241E-002  0.1824160E+03  0.7818608E-02  0.1170079E+00
         21   -1    0    0  503  502  0.00000000000E+00  0.00000000000E+00  0.20595077038E+03  0.20595077038E+03  0.00000000000E+00 0.  1.
         21   -1    0    0  501  503 -0.00000000000E+00 -0.00000000000E+00 -0.35867524336E+03  0.35867524336E+03  0.00000000000E+00 0.  1.
          6    2    1    2  501    0 -0.49410671684E+02  0.38143274905E+02 -0.29536607172E+03  0.34715518994E+03  0.17140386717E+03 0.  0.
         24    2    3    3    0    0 -0.41492625430E+02  0.66918935097E+02 -0.29583608968E+03  0.31693855557E+03  0.82044342950E+02 0.  0.
         -6    2    1    2    0  502  0.49410671684E+02 -0.38143274905E+02  0.14264159875E+03  0.21747082379E+03  0.15182427214E+03 0.  0.
        -24    2    5    5    0    0  0.87237230147E+02 -0.38780702629E+02  0.11974288658E+03  0.17299953127E+03  0.80474851443E+02 0.  0.
          5    1    3    3  501    0 -0.79180462539E+01 -0.28775660192E+02  0.47001795355E+00  0.30216634373E+02  0.47000000000E+01 0. -1.
        -11    1    4    4    0    0  0.17994931227E+02 -0.47000700212E+01 -0.75152284556E+02  0.77419468366E+02  0.00000000000E+00 0.  1.
         12    1    4    4    0    0 -0.59487556657E+02  0.71619005118E+02 -0.22068380512E+03  0.23951908720E+03  0.00000000000E+00 0. -1.
         -5    1    5    5    0  502 -0.37826558463E+02  0.63742772403E+00  0.22898712170E+02  0.44471292519E+02  0.47000000000E+01 0.  1.
         13    1    6    6    0    0  0.50285349685E+01  0.22003459149E+02  0.19777337959E+02  0.30009689688E+02  0.00000000000E+00 0. -1.
        -14    1    6    6    0    0  0.82208695178E+02 -0.60784161778E+02  0.99965548618E+02  0.14298984158E+03  0.00000000000E+00 0.  1.
</event>
<event>
12    1  0.8331241E-002  0.2346036E+03  0.7818608E-02  0.1123506E+00
         21   -1    0    0  503  502  0.00000000000E+00  0.00000000000E+00  0.24166280896E+03  0.24166280896E+03  0.00000000000E+00 0. -1.
         21   -1    0    0  501  503 -0.00000000000E+00 -0.00000000000E+00 -0.28269453507E+03  0.28269453507E+03  0.00000000000E+00 0.  1.
          6    2    1    2  501    0  0.66410142658E+01 -0.16044882524E+03 -0.13649887976E+03  0.27142364803E+03  0.17102901492E+03 0.  0.
         24    2    3    3    0    0 -0.62365225280E+02 -0.10144743064E+03 -0.76443369147E+02  0.16246594975E+03  0.79815998599E+02 0.  0.
         -6    2    1    2    0  502 -0.66410142658E+01  0.16044882524E+03  0.95467153645E+02  0.25293369600E+03  0.17050967291E+03 0.  0.
        -24    2    5    5    0    0 -0.22414457445E+01  0.18742438345E+03  0.93658802849E+02  0.22514166339E+03  0.82364274134E+02 0.  0.
          5    1    3    3  501    0  0.69006239546E+02 -0.59001394592E+02 -0.60055510611E+02  0.10895769828E+03  0.47000000000E+01 0. -1.
        -13    1    4    4    0    0 -0.44442248077E+02 -0.49289936386E+02 -0.83722467802E+02  0.10683661759E+03  0.00000000000E+00 0.  1.
         14    1    4    4    0    0 -0.17922977203E+02 -0.52157494259E+02  0.72790986550E+01  0.55629332159E+02  0.00000000000E+00 0. -1.
         -5    1    5    5    0  502 -0.43995685213E+01 -0.26975558209E+02  0.18083507958E+01  0.27792032608E+02  0.47000000000E+01 0.  1.
         13    1    6    6    0    0  0.34040902067E+02  0.56409246899E+02  0.48786929724E+02  0.81981404362E+02  0.00000000000E+00 0. -1.
        -14    1    6    6    0    0 -0.36282347812E+02  0.13101513655E+03  0.44871873126E+02  0.14316025903E+03  0.00000000000E+00 0.  1.
</event>
<event>
12    1  0.8331241E-002  0.1781741E+03  0.7818608E-02  0.1169596E+00
         21   -1    0    0  501  502  0.00000000000E+00  0.00000000000E+00  0.14415877689E+03  0.14415877689E+03  0.00000000000E+00 0. -1.
         21   -1    0    0  502  503 -0.00000000000E+00 -0.00000000000E+00 -0.22015028926E+03  0.22015028926E+03  0.00000000000E+00 0. -1.
         -6    2    1    2    0  503  0.38445061354E+02  0.23734675471E+02 -0.38731147733E+02  0.18228067714E+03  0.17229273314E+03 0.  0.
        -24    2    3    3    0    0  0.39013560409E+02 -0.23414440013E+02 -0.77962770645E+02  0.12076179777E+03  0.80217979891E+02 0.  0.
          6    2    1    2  501    0 -0.38445061354E+02 -0.23734675471E+02 -0.37260364635E+02  0.18202838902E+03  0.17235034689E+03 0.  0.
         24    2    5    5    0    0  0.30859747745E+00  0.22457824983E+02  0.31505310805E+02  0.90451092213E+02  0.81757974157E+02 0.  0.
          5    1    5    5  501    0 -0.38753658831E+02 -0.46192500453E+02 -0.68765675440E+02  0.91577296803E+02  0.47000000000E+01 0. -1.
        -11    1    6    6    0    0 -0.25117203373E+02  0.17093685911E+02 -0.17442728840E+02  0.35033081404E+02  0.00000000000E+00 0.  1.
         12    1    6    6    0    0  0.25425800850E+02  0.53641390720E+01  0.48948039645E+02  0.55418010808E+02  0.00000000000E+00 0. -1.
         -5    1    3    3    0  503 -0.56849905540E+00  0.47149115484E+02  0.39231622912E+02  0.61518879365E+02  0.47000000000E+01 0.  1.
         11    1    4    4    0    0  0.58535777462E+00  0.23050265729E+02 -0.48391609276E+02  0.53604153219E+02  0.00000000000E+00 0. -1.
        -12    1    4    4    0    0  0.38428202635E+02 -0.46464705742E+02 -0.29571161369E+02  0.67157644555E+02  0.00000000000E+00 0.  1.
</event>
<event>
12    1  0.8331241E-002  0.2291733E+03  0.7818608E-02  0.1127732E+00
         21   -1    0    0  503  502  0.00000000000E+00  0.00000000000E+00  0.55309489784E+03  0.55309489784E+03  0.00000000000E+00 0. -1.
         21   -1    0    0  501  503 -0.00000000000E+00 -0.00000000000E+00 -0.16835664433E+03  0.16835664433E+03  0.00000000000E+00 0. -1.
          6    2    1    2  501    0 -0.49954945390E+02  0.14218558807E+03 -0.47045544200E+02  0.23395235779E+03  0.17265046905E+03 0.  0.
         24    2    3    3    0    0 -0.44534935592E+00 -0.13137012653E+01 -0.16401256388E+02  0.79018796173E+02  0.77285475935E+02 0.  0.
         -6    2    1    2    0  502  0.49954945390E+02 -0.14218558807E+03  0.43178379771E+03  0.48749918438E+03  0.16883710726E+03 0.  0.
        -24    2    5    5    0    0 -0.35373401648E+02 -0.16082854483E+02  0.96907933124E+02  0.11960414377E+03  0.58344390924E+02 0.  0.
          5    1    3    3  501    0 -0.49509596034E+02  0.14349928934E+03 -0.30644287813E+02  0.15493356162E+03  0.47000000000E+01 0. -1.
        -13    1    4    4    0    0  0.30118152046E+00 -0.62302302058E+01 -0.47306539027E+02  0.47715983836E+02  0.00000000000E+00 0.  1.
         14    1    4    4    0    0 -0.74653087637E+00  0.49165289405E+01  0.30905282639E+02  0.31302812337E+02  0.00000000000E+00 0. -1.
         -5    1    5    5    0  502  0.85328347038E+02 -0.12610273359E+03  0.33487586458E+03  0.36789504061E+03  0.47000000000E+01 0.  1.
         11    1    6    6    0    0 -0.29930107149E+01 -0.27039119527E+02  0.72959191916E+02  0.77866011731E+02  0.00000000000E+00 0. -1.
        -12    1    6    6    0    0 -0.32380390933E+02  0.10956265044E+02  0.23948741209E+02  0.41738132040E+02  0.00000000000E+00 0.  1.
</event>
<event>
12    1  0.8331241E-002  0.3113456E+03  0.7818608E-02  0.1079841E+00
         21   -1    0    0  501  502  0.00000000000E+00  0.00000000000E+00  0.34228342727E+03  0.34228342727E+03  0.00000000000E+00 0. -1.
         21   -1    0    0  502  503 -0.00000000000E+00 -0.00000000000E+00 -0.28700127802E+03  0.28700127802E+03  0.00000000000E+00 0.  1.
         -6    2    1    2    0  503 -0.99688185463E+02  0.23964959260E+03  0.68605283155E+02  0.31881462044E+03  0.17194887547E+03 0.  0.
        -24    2    3    3    0    0 -0.30919716900E+02  0.15413474778E+03  0.10242468673E+03  0.20388971882E+03  0.79791300433E+02 0.  0.
          6    2    1    2  501    0  0.99688185463E+02 -0.23964959260E+03 -0.13323133903E+02  0.31047008485E+03  0.16983670433E+03 0.  0.
         24    2    5    5    0    0  0.96086053428E+00 -0.57873561625E+02 -0.28596614174E+02  0.10299724488E+03  0.80252063670E+02 0.  0.
          5    1    5    5  501    0  0.98727324929E+02 -0.18177603097E+03  0.15273480272E+02  0.20747283996E+03  0.47000000000E+01 0. -1.
        -13    1    6    6    0    0 -0.16584645983E+01  0.20357217342E+02 -0.30005029697E+01  0.20643880953E+02  0.00000000000E+00 0.  1.
         14    1    6    6    0    0  0.26193251326E+01 -0.78230778967E+02 -0.25596111205E+02  0.82353363931E+02  0.00000000000E+00 0. -1.
         -5    1    3    3    0  503 -0.68768468563E+02  0.85514844820E+02 -0.33819403574E+02  0.11492490162E+03  0.47000000000E+01 0.  1.
         11    1    4    4    0    0  0.24896460116E+02  0.27781755538E+02  0.13822455564E+02  0.39783412936E+02  0.00000000000E+00 0. -1.
        -12    1    4    4    0    0 -0.55816177016E+02  0.12635299224E+03  0.88602231164E+02  0.16410630589E+03  0.00000000000E+00 0.  1.
</event>
<event>
12    1  0.8331241E-002  0.1848236E+03  0.7818608E-02  0.1163230E+00
         21   -1    0    0  501  502  0.00000000000E+00  0.00000000000E+00  0.17374187684E+03  0.17374187684E+03  0.00000000000E+00 0.  1.
         21   -1    0    0  502  503 -0.00000000000E+00 -0.00000000000E+00 -0.19920735709E+03  0.19920735709E+03  0.00000000000E+00 0. -1.
         -6    2    1    2    0  503  0.28399488667E+02  0.60160029687E+02 -0.34303824432E+02  0.18798012005E+03  0.17243553298E+03 0.  0.
        -24    2    3    3    0    0  0.37325512301E+01 -0.26458557652E+02  0.12794227749E+02  0.86237533121E+02  0.80989089656E+02 0.  0.
          6    2    1    2  501    0 -0.28399488667E+02 -0.60160029687E+02  0.88383441852E+01  0.18496911388E+03  0.17236500989E+03 0.  0.
         24    2    5    5    0    0 -0.62190823583E+02 -0.55908862499E+02 -0.42657562431E+02  0.12305106210E+03  0.79551221285E+02 0.  0.
          5    1    5    5  501    0  0.33791334916E+02 -0.42511671881E+01  0.51495906616E+02  0.61918051779E+02  0.47000000000E+01 0. -1.
        -11    1    6    6    0    0 -0.48290422150E+01 -0.56164920002E+02 -0.10671070044E+02  0.57373248326E+02  0.00000000000E+00 0.  1.
         12    1    6    6    0    0 -0.57361781369E+02  0.25605750336E+00 -0.31986492386E+02  0.65677813776E+02  0.00000000000E+00 0. -1.
         -5    1    3    3    0  503  0.24666937437E+02  0.86618587338E+02 -0.47098052182E+02  0.10174258693E+03  0.47000000000E+01 0.  1.
         13    1    4    4    0    0  0.26307930436E+02 -0.20193148281E+02 -0.25164450753E+02  0.41630758136E+02  0.00000000000E+00 0. -1.
        -14    1    4    4    0    0 -0.22575379206E+02 -0.62654093706E+01  0.37958678502E+02  0.44606774984E+02  0.00000000000E+00 0.  1.
</event>
<event>
12    1  0.8331241E-002  0.2820789E+03  0.7818608E-02  0.1094607E+00
         21   -1    0    0  501  502  0.00000000000E+00  0.00000000000E+00  0.12397613324E+03  0.12397613324E+03  0.00000000000E+00 0.  1.
         21   -1    0    0  502  503 -0.00000000000E+00 -0.00000000000E+00 -0.65647616453E+03  0.65647616453E+03  0.00000000000E+00 0. -1.
         -6    2    1    2    0  503  0.21865311071E+03  0.47399646719E+02 -0.32632533357E+03  0.43134293921E+03  0.17179231225E+03 0.  0.
        -24    2    3    3    0    0  0.51577230754E+02 -0.12262867506E+02 -0.16711126883E+03  0.19292068002E+03  0.80508533450E+02 0.  0.
          6    2    1    2  501    0 -0.21865311071E+03 -0.47399646719E+02 -0.20617469772E+03  0.34910935856E+03  0.17121164950E+03 0.  0.
         24    2    5    5    0    0 -0.10532232673E+03  0.37955324578E+02 -0.81241928785E+02  0.16000720501E+03  0.80427952183E+02 0.  0.
          5    1    5    5  501    0 -0.11333078398E+03 -0.85354971296E+02 -0.12493276893E+03  0.18910215355E+03  0.47000000000E+01 0. -1.
        -11    1    6    6    0    0 -0.34010567671E+02 -0.20475793821E+02 -0.43099552044E+01  0.39931848940E+02  0.00000000000E+00 0.  1.
         12    1    6    6    0    0 -0.71311759058E+02  0.58431118399E+02 -0.76931973581E+02  0.12007535607E+03  0.00000000000E+00 0. -1.
         -5    1    3    3    0  503  0.16707587996E+03  0.59662514225E+02 -0.15921406474E+03  0.23842225919E+03  0.47000000000E+01 0.  1.
         13    1    4    4    0    0  0.14226373885E+02  0.28401209783E+02 -0.10554799121E+03  0.11022430258E+03  0.00000000000E+00 0. -1.
        -14    1    4    4    0    0  0.37350856870E+02 -0.40664077289E+02 -0.61563277626E+02  0.82696377446E+02  0.00000000000E+00 0.  1.
</event>
<event>
12    1  0.8331241E-002  0.1897108E+03  0.7818608E-02  0.1159614E+00
         21   -1    0    0  503  502  0.00000000000E+00  0.00000000000E+00  0.30269935679E+03  0.30269935679E+03  0.00000000000E+00 0. -1.
         21   -1    0    0  501  503 -0.00000000000E+00 -0.00000000000E+00 -0.38518623490E+03  0.38518623490E+03  0.00000000000E+00 0. -1.
          6    2    1    2  501    0 -0.66876733194E+02 -0.29710857630E+02 -0.32838736075E+03  0.37730995071E+03  0.17079024474E+03 0.  0.
         24    2    3    3    0    0 -0.93467996573E+02  0.25552033979E+02 -0.21876207540E+03  0.25160841664E+03  0.77850991451E+02 0.  0.
         -6    2    1    2    0  502  0.66876733194E+02  0.29710857630E+02  0.24590048264E+03  0.31057564097E+03  0.17502842311E+03 0.  0.
        -24    2    5    5    0    0  0.47304777187E+02 -0.51199338758E+02  0.15218690095E+03  0.18514100965E+03  0.79102632062E+02 0.  0.
          5    1    3    3  501    0  0.26591263379E+02 -0.55262891608E+02 -0.10962528536E+03  0.12570153407E+03  0.47000000000E+01 0. -1.
        -13    1    4    4    0    0 -0.15834368314E+01  0.16389838252E+02 -0.99108761393E+02  0.10046731137E+03  0.00000000000E+00 0.  1.
         14    1    4    4    0    0 -0.91884559742E+02  0.91621957271E+01 -0.11965331400E+03  0.15114110527E+03  0.00000000000E+00 0. -1.
         -5    1    5    5    0  502  0.19571956007E+02  0.80910196388E+02  0.93713581690E+02  0.12543463132E+03  0.47000000000E+01 0.  1.
         11    1    6    6    0    0  0.46129798547E+02  0.73882094936E+01  0.63195306243E+02  0.78588744007E+02  0.00000000000E+00 0. -1.
        -12    1    6    6    0    0  0.11749786405E+01 -0.58587548252E+02  0.88991594710E+02  0.10655226564E+03  0.00000000000E+00 0.  1.
</event>
<event>
12    1  0.8331241E-002  0.1774168E+03  0.7818608E-02  0.1170695E+00
         21   -1    0    0  503  502  0.00000000000E+00  0.00000000000E+00  0.11475703471E+03  0.11475703471E+03  0.00000000000E+00 0. -1.
         21   -1    0    0  501  503 -0.00000000000E+00 -0.00000000000E+00 -0.58469832584E+03  0.58469832584E+03  0.00000000000E+00 0. -1.
          6    2    1    2  501    0  0.27296321284E+01 -0.43311194028E+02 -0.49118615505E+03  0.52224569482E+03  0.17202737115E+03 0.  0.
         24    2    3    3    0    0 -0.81903097509E+01 -0.66865255721E+02 -0.16642773545E+03  0.19641727363E+03  0.79646159084E+02 0.  0.
         -6    2    1    2    0  502 -0.27296321284E+01  0.43311194028E+02  0.21244863917E+02  0.17720966573E+03  0.17049519338E+03 0.  0.
        -24    2    5    5    0    0  0.63475758022E+02  0.35696017450E+02  0.21029084786E+02  0.11040187307E+03  0.80268135973E+02 0.  0.
          5    1    3    3  501    0  0.10919941879E+02  0.23554061693E+02 -0.32475841960E+03  0.32582842119E+03  0.47000000000E+01 0. -1.
        -11    1    4    4    0    0 -0.30615766746E+02 -0.20574070927E+02 -0.12512845404E+03  0.13045208921E+03  0.00000000000E+00 0.  1.
         12    1    4    4    0    0  0.22425456995E+02 -0.46291184794E+02 -0.41299281411E+02  0.65965184424E+02  0.00000000000E+00 0. -1.
         -5    1    5    5    0  502 -0.66205390151E+02  0.76151765779E+01  0.21577913080E+00  0.66807792659E+02  0.47000000000E+01 0.  1.
         13    1    6    6    0    0  0.11045826705E+02 -0.11759348872E+02  0.34798602299E+02  0.38356685147E+02  0.00000000000E+00 0. -1.
        -14    1    6    6    0    0  0.52429931317E+02  0.47455366321E+02 -0.13769517513E+02  0.72045187925E+02  0.00000000000E+00 0.  1.
</event>
<event>
12    1  0.8331241E-002  0.1866625E+03  0.7818608E-02  0.1162193E+00
         21   -1    0    0  501  502  0.00000000000E+00  0.00000000000E+00  0.39497088352E+02  0.39497088352E+02  0.00000000000E+00 0. -1.
         21   -1    0    0  502  503 -0.00000000000E+00 -0.00000000000E+00 -0.10366659676E+04  0.10366659676E+04  0.00000000000E+00 0. -1.
         -6    2    1    2    0  503 -0.65771213428E+02  0.38284271046E+02 -0.27839684183E+03  0.33354866800E+03  0.16720757894E+03 0.  0.
        -24    2    3    3    0    0 -0.96994717338E+02  0.65653320305E+02 -0.20625936735E+03  0.25018274403E+03  0.79562209198E+02 0.  0.
          6    2    1    2  501    0  0.65771213428E+02 -0.38284271046E+02 -0.71877203742E+03  0.74261438796E+03  0.17044456432E+03 0.  0.
         24    2    5    5    0    0 -0.21586848290E+02 -0.32323794845E+02 -0.48260523235E+03  0.49069414653E+03  0.79762869927E+02 0.  0.
          5    1    5    5  501    0  0.87358061718E+02 -0.59604762006E+01 -0.23616680507E+03  0.25192024143E+03  0.47000000000E+01 0. -1.
        -11    1    6    6    0    0 -0.44665022982E+02 -0.19522988204E+02 -0.16648906177E+03  0.17347829557E+03  0.00000000000E+00 0.  1.
         12    1    6    6    0    0  0.23078174693E+02 -0.12800806641E+02 -0.31611617058E+03  0.31721585096E+03  0.00000000000E+00 0. -1.
         -5    1    3    3    0  503  0.31223503910E+02 -0.27369049260E+02 -0.72137474486E+02  0.83365923967E+02  0.47000000000E+01 0.  1.
         13    1    4    4    0    0 -0.57189931062E+02  0.10433822745E+02 -0.15325184328E+03  0.16390753595E+03  0.00000000000E+00 0. -1.
        -14    1    4    4    0    0 -0.39804786276E+02  0.55219497561E+02 -0.53007524064E+02  0.86275208077E+02  0.00000000000E+00 0.  1.
</event>
<event>
12    1  0.8331241E-002  0.2311157E+03  0.7818608E-02  0.1125921E+00
         21   -1    0    0  501  502  0.00000000000E+00  0.00000000000E+00  0.16252550856E+03  0.16252550856E+03  0.00000000000E+00 0.  1.
         21   -1    0    0  502  503 -0.00000000000E+00 -0.00000000000E+00 -0.41834162283E+03  0.41834162283E+03  0.00000000000E+00 0.  1.
         -6    2    1    2    0  503 -0.12233769373E+03  0.89923951963E+02 -0.26285276863E+03  0.35000863711E+03  0.17424591712E+03 0.  0.
        -24    2    3    3    0    0 -0.68978266742E+02  0.43000718768E+02 -0.25367351569E+03  0.27820775309E+03  0.80263554731E+02 0.  0.
          6    2    1    2  501    0  0.12233769373E+03 -0.89923951963E+02  0.70366543612E+01  0.23085849429E+03  0.17376219795E+03 0.  0.
         24    2    5    5    0    0  0.13164876385E+02  0.65818379872E+01  0.13309546917E+02  0.84935532686E+02  0.82584902446E+02 0.  0.
          5    1    5    5  501    0  0.10917281735E+03 -0.96505789951E+02 -0.62728925558E+01  0.14592296160E+03  0.47000000000E+01 0. -1.
        -11    1    6    6    0    0  0.46818186701E+02 -0.34950381865E+01 -0.11102944116E+01  0.46961586979E+02  0.00000000000E+00 0.  1.
         12    1    6    6    0    0 -0.33653310316E+02  0.10076876174E+02  0.14419841329E+02  0.37973945707E+02  0.00000000000E+00 0. -1.
         -5    1    3    3    0  503 -0.53359426988E+02  0.46923233196E+02 -0.91792529413E+01  0.71800884024E+02  0.47000000000E+01 0.  1.
         11    1    4    4    0    0 -0.71409174724E+02  0.26063533541E+00 -0.15642597090E+03  0.17195471071E+03  0.00000000000E+00 0. -1.
        -12    1    4    4    0    0  0.24309079814E+01  0.42740083432E+02 -0.97247544792E+02  0.10625304237E+03  0.00000000000E+00 0.  1.
</event>
<event>
12    1  0.8331241E-002  0.1769882E+03  0.7818608E-02  0.1171022E+00
         21   -1    0    0  503  502  0.00000000000E+00  0.00000000000E+00  0.84069932931E+02  0.84069932931E+02  0.00000000000E+00 0.  1.
         21   -1    0    0  501  503 -0.00000000000E+00 -0.00000000000E+00 -0.37581952361E+03  0.37581952361E+03  0.00000000000E+00 0.  1.
          6    2    1    2  501    0 -0.28587019069E+01  0.35930893249E+02 -0.11846602292E+03  0.21297656718E+03  0.17327901868E+03 0.  0.
         24    2    3    3    0    0  0.65998258968E+02  0.36672543335E+02 -0.64587937486E+02  0.12541647812E+03  0.76531337983E+02 0.  0.
         -6    2    1    2    0  502  0.28587019069E+01 -0.35930893249E+02 -0.17328356776E+03  0.24691288937E+03  0.17216149051E+03 0.  0.
        -24    2    5    5    0    0  0.21561762689E+02 -0.13418141009E+02 -0.19337322374E+03  0.21110349432E+03  0.80786914398E+02 0.  0.
          5    1    3    3  501    0 -0.68856960875E+02 -0.74165008573E+00 -0.53878085434E+02  0.87560089058E+02  0.47000000000E+01 0. -1.
        -13    1    4    4    0    0  0.51238922475E+02  0.94343195112E+01 -0.76219696281E+02  0.92324837732E+02  0.00000000000E+00 0.  1.
         14    1    4    4    0    0  0.14759336493E+02  0.27238223823E+02  0.11631758795E+02  0.33091640386E+02  0.00000000000E+00 0. -1.
         -5    1    5    5    0  502 -0.18703060782E+02 -0.22512752239E+02  0.20089655979E+02  0.35809395043E+02  0.47000000000E+01 0.  1.
         11    1    6    6    0    0  0.42308495819E+02  0.12546745540E+02 -0.65480250671E+02  0.78962604251E+02  0.00000000000E+00 0. -1.
        -12    1    6    6    0    0 -0.20746733130E+02 -0.25964886550E+02 -0.12789297307E+03  0.13214089007E+03  0.00000000000E+00 0.  1.
</event>
<event>
12    1  0.8331241E-002  0.2095064E+03  0.7818608E-02  0.1142178E+00
         21   -1    0    0  501  502  0.00000000000E+00  0.00000000000E+00  0.11444895185E+04  0.11444895185E+04  0.00000000000E+00 0.  1.
         21   -1    0    0  502  503 -0.00000000000E+00 -0.00000000000E+00 -0.46976409134E+02  0.46976409134E+02  0.00000000000E+00 0.  1.
         -6    2    1    2    0  503 -0.13482979461E+02  0.11625788983E+03  0.29169458221E+03  0.35913601166E+03  0.17376782755E+03 0.  0.
        -24    2    3    3    0    0 -0.40955321911E+02  0.28574234606E+02  0.22618171800E+03  0.24618833186E+03  0.83406833724E+02 0.  0.
          6    2    1    2  501    0  0.13482979461E+02 -0.11625788983E+03  0.80581852720E+03  0.83232991603E+03  0.17242941352E+03 0.  0.
         24    2    5    5    0    0  0.16796784345E+02 -0.11847714267E+03  0.37955501934E+03  0.40602184137E+03  0.80453450269E+02 0.  0.
          5    1    5    5  501    0 -0.33138048837E+01  0.22192528344E+01  0.42626350786E+03  0.42630807466E+03  0.47000000000E+01 0. -1.
        -11    1    6    6    0    0 -0.10891130495E+01 -0.27531882816E+01  0.13340994018E+03  0.13344279056E+03  0.00000000000E+00 0.  1.
         12    1    6    6    0    0  0.17885897395E+02 -0.11572395439E+03  0.24614507916E+03  0.27257905081E+03  0.00000000000E+00 0. -1.
         -5    1    3    3    0  503  0.27472342450E+02  0.87683655228E+02  0.65512864216E+02  0.11294767980E+03  0.47000000000E+01 0.  1.
         13    1    4    4    0    0 -0.54514665562E+02  0.45998556870E+02  0.19754948710E+03  0.21003217813E+03  0.00000000000E+00 0. -1.
        -14    1    4    4    0    0  0.13559343651E+02 -0.17424322264E+02  0.28632230895E+02  0.36156153731E+02  0.00000000000E+00 0.  1.
</event>
<event>
12    1  0.8331241E-002  0.1951377E+03  0.7818608E-02  0.1154131E+00
         21   -1    0    0  501  502  0.00000000000E+00  0.00000000000E+00  0.23989799794E+03  0.23989799794E+03  0.00000000000E+00 0. -1.
         21   -1    0    0  502  503 -0.00000000000E+00 -0.00000000000E+00 -0.15839025682E+03  0.15839025682E+03  0.00000000000E+00 0. -1.
         -6    2    1    2    0  503 -0.47592437368E+02 -0.78267211320E+02  0.29539449643E+02  0.19634907788E+03  0.17114200196E+03 0.  0.
        -24    2    3    3    0    0  0.20258054772E+02 -0.30609406997E+02  0.61710182120E+02  0.10728729244E+03  0.79718830665E+02 0.  0.
          6    2    1    2  501    0  0.47592437368E+02  0.78267211320E+02  0.51968291484E+02  0.20193917688E+03  0.17230186121E+03 0.  0.
         24    2    5    5    0    0  0.83213349670E+02  0.34165785490E+02  0.72603322421E+02  0.14142736270E+03  0.81478181328E+02 0.  0.
          5    1    5    5  501    0 -0.35620912302E+02  0.44101425830E+02 -0.20635030937E+02  0.60511814179E+02  0.47000000000E+01 0. -1.
        -11    1    6    6    0    0  0.27543542017E+01  0.23884046837E+01 -0.16701004819E+02  0.17094282845E+02  0.00000000000E+00 0.  1.
         12    1    6    6    0    0  0.80458995468E+02  0.31777380806E+02  0.89304327240E+02  0.12433307986E+03  0.00000000000E+00 0. -1.
         -5    1    3    3    0  503 -0.67850492140E+02 -0.47657804323E+02 -0.32170732477E+02  0.89061785434E+02  0.47000000000E+01 0.  1.
         11    1    4    4    0    0 -0.27622132627E+02 -0.20597771570E+02  0.42552921862E+02  0.54754009565E+02  0.00000000000E+00 0. -1.
        -12    1    4    4    0    0  0.47880187399E+02 -0.10011635427E+02  0.19157260258E+02  0.52533282878E+02  0.00000000000E+00 0.  1.
</event>
<event>
12    1  0.8331241E-002  0.1758972E+03  0.7818608E-02  0.1171903E+00
         21   -1    0    0  501  502  0.00000000000E+00  0.00000000000E+00  0.11489830300E+03  0.11489830300E+03  0.00000000000E+00 0. -1.
         21   -1    0    0  502  503 -0.00000000000E+00 -0.00000000000E+00 -0.28785433206E+03  0.28785433206E+03  0.00000000000E+00 0. -1.
         -6    2    1    2    0  503 -0.33426705438E+02 -0.12598591555E+02 -0.13814551737E+03  0.22344395283E+03  0.17195042001E+03 0.  0.
        -24    2    3    3    0    0 -0.46697067403E+01  0.41254386821E+02 -0.13611471041E+03  0.16217958773E+03  0.77789933121E+02 0.  0.
          6    2    1    2  501    0  0.33426705438E+02  0.12598591555E+02 -0.34810511696E+02  0.17930868223E+03  0.17223171210E+03 0.  0.
         24    2    5    5    0    0  0.37421620246E+02  0.47977041187E+02  0.31238287683E+02  0.10412804681E+03  0.78515255669E+02 0.  0.
          5    1    5    5  501    0 -0.39949148081E+01 -0.35378449633E+02 -0.66048799378E+02  0.75180635419E+02  0.47000000000E+01 0. -1.
        -11    1    6    6    0    0 -0.12699204466E+02  0.35896128542E+02 -0.85252924835E+01  0.39019001145E+02  0.00000000000E+00 0.  1.
         12    1    6    6    0    0  0.50120824712E+02  0.12080912645E+02  0.39763580166E+02  0.65109045668E+02  0.00000000000E+00 0. -1.
         -5    1    3    3    0  503 -0.28756998698E+02 -0.53852978376E+02 -0.20308069632E+01  0.61264365099E+02  0.47000000000E+01 0.  1.
         13    1    4    4    0    0  0.89401024173E+00  0.29532377666E+02 -0.44524487052E+01  0.29879506094E+02  0.00000000000E+00 0. -1.
        -14    1    4    4    0    0 -0.55637169820E+01  0.11722009155E+02 -0.13166226170E+03  0.13230008164E+03  0.00000000000E+00 0.  1.
</event>
<event>
12    1  0.8331241E-002  0.2925555E+03  0.7818608E-02  0.1089114E+00
         21   -1    0    0  503  502  0.00000000000E+00  0.00000000000E+00  0.46025604958E+03  0.46025604958E+03  0.00000000000E+00 0.  1.
         21   -1    0    0  501  503 -0.00000000000E+00 -0.00000000000E+00 -0.20275331849E+03  0.20275331849E+03  0.00000000000E+00 0. -1.
          6    2    1    2  501    0  0.15682925008E+03 -0.17705907020E+03  0.32220666607E+02  0.29432447401E+03  0.17217257802E+03 0.  0.
         24    2    3    3    0    0  0.12042384851E+03 -0.14622583033E+03  0.87106091607E+02  0.22145100955E+03  0.74626950168E+02 0.  0.
         -6    2    1    2    0  502 -0.15682925008E+03  0.17705907020E+03  0.22528206448E+03  0.36868489406E+03  0.17097138508E+03 0.  0.
        -24    2    5    5    0    0 -0.17678941866E+03  0.12818304540E+03  0.21213995669E+03  0.31407647780E+03  0.77170467200E+02 0.  0.
          5    1    3    3  501    0  0.36405401575E+02 -0.30833239870E+02 -0.54885425000E+02  0.72873464459E+02  0.47000000000E+01 0. -1.
        -11    1    4    4    0    0  0.21307177887E+02 -0.75995898442E+02  0.15477313808E+02  0.80429594380E+02  0.00000000000E+00 0.  1.
         12    1    4    4    0    0  0.99116670620E+02 -0.70229931886E+02  0.71628777799E+02  0.14102141517E+03  0.00000000000E+00 0. -1.
         -5    1    5    5    0  502  0.19960168575E+02  0.48876024793E+02  0.13142107787E+02  0.54608416258E+02  0.47000000000E+01 0.  1.
         11    1    6    6    0    0 -0.80234617541E+02  0.81877913961E+02  0.64019252357E+02  0.13130137592E+03  0.00000000000E+00 0. -1.
        -12    1    6    6    0    0 -0.96554801117E+02  0.46305131443E+02  0.14812070433E+03  0.18277510188E+03  0.00000000000E+00 0.  1.
</event>
<event>
12    1  0.8331241E-002  0.1747468E+03  0.7818608E-02  0.1174861E+00
         21   -1    0    0  503  502  0.00000000000E+00  0.00000000000E+00  0.19731245596E+03  0.19731245596E+03  0.00000000000E+00 0. -1.
         21   -1    0    0  501  503 -0.00000000000E+00 -0.00000000000E+00 -0.25781857197E+03  0.25781857197E+03  0.00000000000E+00 0. -1.
          6    2    1    2  501    0  0.77385938116E+01  0.20196707674E+02 -0.17812908052E+03  0.24448533875E+03  0.16605817867E+03 0.  0.
         24    2    3    3    0    0 -0.29830113594E+02 -0.42293288304E+01 -0.42749846308E+02  0.10180504547E+03  0.87344118428E+02 0.  0.
         -6    2    1    2    0  502 -0.77385938116E+01 -0.20196707674E+02  0.11762296451E+03  0.21064568919E+03  0.17340314806E+03 0.  0.
        -24    2    5    5    0    0 -0.22875690675E+01  0.53375932691E+02  0.91707951833E+02  0.13231099085E+03  0.79003966407E+02 0.  0.
          5    1    3    3  501    0  0.37568707406E+02  0.24426036504E+02 -0.13537923421E+03  0.14268029328E+03  0.47000000000E+01 0. -1.
        -13    1    4    4    0    0 -0.53493063995E+02  0.79008563634E+01 -0.50624383530E+02  0.74072664557E+02  0.00000000000E+00 0.  1.
         14    1    4    4    0    0  0.23662950401E+02 -0.12130185194E+02  0.78745372217E+01  0.27732380910E+02  0.00000000000E+00 0. -1.
         -5    1    5    5    0  502 -0.54510247440E+01 -0.73572640364E+02  0.25915012677E+02  0.78334698333E+02  0.47000000000E+01 0.  1.
         13    1    6    6    0    0 -0.53121260232E+01  0.18954032746E+02  0.95538069016E+02  0.97544844413E+02  0.00000000000E+00 0. -1.
        -14    1    6    6    0    0  0.30245569557E+01  0.34421899945E+02 -0.38301171834E+01  0.34766146439E+02  0.00000000000E+00 0.  1.
</event>
<event>
12    1  0.8331241E-002  0.4122285E+03  0.7818608E-02  0.1039642E+00
         21   -1    0    0  501  502  0.00000000000E+00  0.00000000000E+00  0.53570007058E+03  0.53570007058E+03  0.00000000000E+00 0.  1.
         21   -1    0    0  502  503 -0.00000000000E+00 -0.00000000000E+00 -0.33840027939E+03  0.33840027939E+03  0.00000000000E+00 0. -1.
         -6    2    1    2    0  503  0.17403966320E+03 -0.33158751086E+03 -0.11064404784E+02  0.41237697260E+03  0.17231443571E+03 0.  0.
        -24    2    3    3    0    0  0.15164653849E+03 -0.28697483873E+03  0.48028055418E+02  0.33488018944E+03  0.66983702991E+02 0.  0.
          6    2    1    2  501    0 -0.17403966320E+03  0.33158751086E+03  0.20836419597E+03  0.46172337737E+03  0.17185097417E+03 0.  0.
         24    2    5    5    0    0 -0.16860529435E+03  0.20813866799E+03  0.98673852446E+02  0.29642603730E+03  0.79890024650E+02 0.  0.
          5    1    5    5  501    0 -0.54343688461E+01  0.12344884287E+03  0.10969034352E+03  0.16529734007E+03  0.47000000000E+01 0. -1.
        -11    1    6    6    0    0 -0.12615580989E+03  0.93285814145E+02  0.60611658039E+02  0.16820019197E+03  0.00000000000E+00 0.  1.
         12    1    6    6    0    0 -0.42449484462E+02  0.11485285385E+03  0.38062194406E+02  0.12822584533E+03  0.00000000000E+00 0. -1.
         -5    1    3    3    0  503  0.22393124706E+02 -0.44612672127E+02 -0.59092460201E+02  0.77496783166E+02  0.47000000000E+01 0.  1.
         13    1    4    4    0    0  0.15464072794E+03 -0.25467979067E+03  0.51096392792E+02  0.30230182247E+03  0.00000000000E+00 0. -1.
        -14    1    4    4    0    0 -0.29941894456E+01 -0.32295048062E+02 -0.30683373739E+01  0.32578366964E+02  0.00000000000E+00 0.  1.
</event>
<event>
12    1  0.8331241E-002  0.2019155E+03  0.7818608E-02  0.1149341E+00
         21   -1    0    0  501  502  0.00000000000E+00  0.00000000000E+00  0.86405240970E+02  0.86405240970E+02  0.00000000000E+00 0. -1.
         21   -1    0    0  502  503 -0.00000000000E+00 -0.00000000000E+00 -0.72598970449E+03  0.72598970449E+03  0.00000000000E+00 0.  1.
         -6    2    1    2    0  503  0.13119191657E+02 -0.92372074192E+02 -0.56918998259E+03  0.60394295345E+03  0.17906742155E+03 0.  0.
        -24    2    3    3    0    0  0.53139044814E+02 -0.99696602319E+02 -0.52846618033E+03  0.54618695437E+03  0.79249698888E+02 0.  0.
          6    2    1    2  501    0 -0.13119191657E+02  0.92372074192E+02 -0.70394480924E+02  0.20845199201E+03  0.17260398821E+03 0.  0.
         24    2    5    5    0    0 -0.48983920472E+02  0.98406419611E+00 -0.59091562754E+02  0.10951821060E+03  0.78115509454E+02 0.  0.
          5    1    5    5  501    0  0.35864728815E+02  0.91388009996E+02 -0.11302918170E+02  0.98933781406E+02  0.47000000000E+01 0. -1.
        -13    1    6    6    0    0 -0.50725587379E+02 -0.24143452782E+02 -0.14043933207E+02  0.57907025370E+02  0.00000000000E+00 0.  1.
         14    1    6    6    0    0  0.17416669075E+01  0.25127516978E+02 -0.45047629547E+02  0.51611185230E+02  0.00000000000E+00 0. -1.
         -5    1    3    3    0  503 -0.40019853158E+02  0.73245281267E+01 -0.40723802262E+02  0.57755999080E+02  0.47000000000E+01 0.  1.
         11    1    4    4    0    0  0.53431765692E+02 -0.10373518359E+03 -0.37651984769E+03  0.39418667863E+03  0.00000000000E+00 0. -1.
        -12    1    4    4    0    0 -0.29272087769E+00  0.40385812739E+01 -0.15194633264E+03  0.15200027575E+03  0.00000000000E+00 0.  1.
</event>
<event>
12    1  0.8331241E-002  0.3998376E+03  0.7818608E-02  0.1043891E+00
         21   -1    0    0  503  502  0.00000000000E+00  0.00000000000E+00  0.54605508972E+03  0.54605508972E+03  0.00000000000E+00 0. -1.
         21   -1    0    0  501  503 -0.00000000000E+00 -0.00000000000E+00 -0.29364725854E+03  0.29364725854E+03  0.00000000000E+00 0. -1.
          6    2    1    2  501    0 -0.83843913233E+02  0.35051565872E+03  0.15445402267E+03  0.42804101167E+03  0.17167420819E+03 0.  0.
         24    2    3    3    0    0 -0.68294719380E+02  0.22587175620E+03  0.16962007635E+03  0.30143145812E+03  0.80048327294E+02 0.  0.
         -6    2    1    2    0  502  0.83843913233E+02 -0.35051565872E+03  0.97953808514E+02  0.41166133660E+03  0.17314467549E+03 0.  0.
        -24    2    5    5    0    0  0.12608249857E+03 -0.28534461272E+03  0.79247202441E+02  0.33164014916E+03  0.79916988080E+02 0.  0.
          5    1    3    3  501    0 -0.15549193853E+02  0.12464390252E+03 -0.15166053678E+02  0.12660955354E+03  0.47000000000E+01 0. -1.
        -13    1    4    4    0    0  0.11450994006E+02  0.20517859071E+02  0.38395889691E+02  0.45015021379E+02  0.00000000000E+00 0.  1.
         14    1    4    4    0    0 -0.79745713386E+02  0.20535389713E+03  0.13122418666E+03  0.25641643675E+03  0.00000000000E+00 0. -1.
         -5    1    5    5    0  502 -0.42238585341E+02 -0.65171045999E+02  0.18706606074E+02  0.80021187438E+02  0.47000000000E+01 0.  1.
         11    1    6    6    0    0 -0.86321483509E+01 -0.50433421852E+02  0.15104055101E+02  0.53349568933E+02  0.00000000000E+00 0. -1.
        -12    1    6    6    0    0  0.13471464693E+03 -0.23491119087E+03  0.64143147340E+02  0.27829058022E+03  0.00000000000E+00 0.  1.
</event>
<event>
12    1  0.8331241E-002  0.2065750E+03  0.7818608E-02  0.1144360E+00
         21   -1    0    0  503  502  0.00000000000E+00  0.00000000000E+00  0.19289727097E+03  0.19289727097E+03  0.00000000000E+00 0. -1.
         21   -1    0    0  501  503 -0.00000000000E+00 -0.00000000000E+00 -0.22558006215E+03  0.22558006215E+03  0.00000000000E+00 0. -1.
          6    2    1    2  501    0  0.15232485243E+02 -0.11574102894E+03 -0.46353091601E+02  0.21171165269E+03  0.17042652492E+03 0.  0.
         24    2    3    3    0    0 -0.91925952835E+01 -0.38064815681E+02  0.35819525113E+02  0.95933383555E+02  0.79917092665E+02 0.  0.
         -6    2    1    2    0  502 -0.15232485243E+02  0.11574102894E+03  0.13670300424E+02  0.20676568044E+03  0.17010924463E+03 0.  0.
        -24    2    5    5    0    0  0.10836621677E+02  0.77999051649E+02  0.70884864630E+02  0.13328335915E+03  0.80861024999E+02 0.  0.
          5    1    3    3  501    0  0.24425080527E+02 -0.77676213260E+02 -0.82172616714E+02  0.11577826913E+03  0.47000000000E+01 0. -1.
        -11    1    4    4    0    0 -0.37212840630E+02 -0.87459016458E+01 -0.48085731444E+01  0.38528024593E+02  0.00000000000E+00 0.  1.
         12    1    4    4    0    0  0.28020245347E+02 -0.29318914035E+02  0.40628098257E+02  0.57405358961E+02  0.00000000000E+00 0. -1.
         -5    1    5    5    0  502 -0.26069106920E+02  0.37741977292E+02 -0.57214564207E+02  0.73482321295E+02  0.47000000000E+01 0.  1.
         13    1    6    6    0    0 -0.11958502904E+02  0.91443147558E+01  0.57615326095E+02  0.59549559907E+02  0.00000000000E+00 0. -1.
        -14    1    6    6    0    0  0.22795124580E+02  0.68854736893E+02  0.13269538536E+02  0.73733799239E+02  0.00000000000E+00 0.  1.
</event>
<event>
12    1  0.8331241E-002  0.2396548E+03  0.7818608E-02  0.1120221E+00
         21   -1    0    0  501  502  0.00000000000E+00  0.00000000000E+00  0.36768685562E+02  0.36768685562E+02  0.00000000000E+00 0.  1.
         21   -1    0    0  502  503 -0.00000000000E+00 -0.00000000000E+00 -0.15586248860E+04  0.15586248860E+04  0.00000000000E+00 0.  1.
         -6    2    1    2    0  503  0.11253535974E+03 -0.12407823274E+03 -0.71728027359E+03  0.75588368299E+03  0.16973372177E+03 0.  0.
        -24    2    3    3    0    0  0.11815063269E+03 -0.37966870218E+02 -0.52110608660E+03  0.54151694191E+03  0.79296845057E+02 0.  0.
          6    2    1    2  501    0 -0.11253535974E+03  0.12407823274E+03 -0.80457592688E+03  0.83950988861E+03  0.17139082797E+03 0.  0.
         24    2    5    5    0    0 -0.11131346472E+03  0.12781597166E+03 -0.81027678839E+03  0.83114008923E+03  0.74281653757E+02 0.  0.
          5    1    5    5  501    0 -0.12218950247E+01 -0.37377389182E+01  0.57008615053E+01  0.83697993748E+01  0.47000000000E+01 0. -1.
        -13    1    6    6    0    0 -0.63196318769E+02  0.43163797560E+02 -0.22107532405E+03  0.23394697482E+03  0.00000000000E+00 0.  1.
         14    1    6    6    0    0 -0.48117145946E+02  0.84652174096E+02 -0.58920146434E+03  0.59719311441E+03  0.00000000000E+00 0. -1.
         -5    1    3    3    0  503 -0.56152729495E+01 -0.86111362520E+02 -0.19617418699E+03  0.21436674109E+03  0.47000000000E+01 0.  1.
         11    1    4    4    0    0  0.32296271319E+02 -0.20002838117E+02 -0.52676771071E+02  0.64946169127E+02  0.00000000000E+00 0. -1.
        -12    1    4    4    0    0  0.85854361371E+02 -0.17964032101E+02 -0.46842931553E+03  0.47657077278E+03  0.00000000000E+00 0.  1.
</event>
<event>
12    1  0.8331241E-002  0.1945249E+03  0.7818608E-02  0.1154446E+00
         21   -1    0    0  503  502  0.00000000000E+00  0.00000000000E+00  0.33652929816E+03  0.33652929816E+03  0.00000000000E+00 0.  1.
         21   -1    0    0  501  503 -0.00000000000E+00 -0.00000000000E+00 -0.12036783123E+03  0.12036783123E+03  0.00000000000E+00 0.  1.
          6    2    1    2  501    0  0.28522409655E+02  0.83782776621E+02  0.49424276276E+02  0.20070553098E+03  0.17322491036E+03 0.  0.
         24    2    3    3    0    0  0.49750088804E+02  0.22935205394E+02  0.83793945372E+02  0.12751806320E+03  0.78983138573E+02 0.  0.
         -6    2    1    2    0  502 -0.28522409655E+02 -0.83782776621E+02  0.16673719065E+03  0.25619159842E+03  0.17320439614E+03 0.  0.
        -24    2    5    5    0    0 -0.78697086910E+02 -0.46251296981E+02  0.14409854447E+03  0.18940306270E+03  0.82320809538E+02 0.  0.
          5    1    3    3  501    0 -0.21227679149E+02  0.60847571227E+02 -0.34369669096E+02  0.73187467780E+02  0.47000000000E+01 0. -1.
        -13    1    4    4    0    0  0.42230570247E+02  0.50718207197E+02  0.67677899187E+02  0.94530712698E+02  0.00000000000E+00 0.  1.
         14    1    4    4    0    0  0.75195185563E+01 -0.27783001803E+02  0.16116046185E+02  0.32987350502E+02  0.00000000000E+00 0. -1.
         -5    1    5    5    0  502  0.50174677256E+02 -0.37531479639E+02  0.22638646184E+02  0.66788535713E+02  0.47000000000E+01 0.  1.
         11    1    6    6    0    0 -0.52136251129E+02  0.16197390031E+02  0.56143139030E+02  0.78310894426E+02  0.00000000000E+00 0. -1.
        -12    1    6    6    0    0 -0.26560835781E+02 -0.62448687012E+02  0.87955405439E+02  0.11109216828E+03  0.00000000000E+00 0.  1.
</event>
<event>
12    1  0.8331241E-002  0.1794831E+03  0.7818608E-02  0.1168336E+00
         21   -1    0    0  503  502  0.00000000000E+00  0.00000000000E+00  0.35688847266E+03  0.35688847266E+03  0.00000000000E+00 0.  1.
         21   -1    0    0  501  503 -0.00000000000E+00 -0.00000000000E+00 -0.10672324215E+03  0.10672324215E+03  0.00000000000E+00 0.  1.
          6    2    1    2  501    0 -0.43755307852E+01  0.50214601473E+02  0.33906965310E+02  0.18265777193E+03  0.17226005887E+03 0.  0.
         24    2    3    3    0    0 -0.68138211321E+02  0.18421009507E+02  0.96793807765E+01  0.10725500162E+03  0.80173533826E+02 0.  0.
         -6    2    1    2    0  502  0.43755307852E+01 -0.50214601473E+02  0.21625826520E+03  0.28095394287E+03  0.17212445868E+03 0.  0.
        -24    2    5    5    0    0  0.55315015309E+02 -0.15021528548E+01  0.17168299356E+03  0.19742683005E+03  0.80251452106E+02 0.  0.
          5    1    3    3  501    0  0.63762680536E+02  0.31793591966E+02  0.24227584533E+02  0.75402770317E+02  0.47000000000E+01 0. -1.
        -13    1    4    4    0    0 -0.46052985145E+02  0.40286622185E+02 -0.19908393254E+02  0.64344646163E+02  0.00000000000E+00 0.  1.
         14    1    4    4    0    0 -0.22085226176E+02 -0.21865612678E+02  0.29587774031E+02  0.42910355453E+02  0.00000000000E+00 0. -1.
         -5    1    5    5    0  502 -0.50939484524E+02 -0.48712448618E+02  0.44575271645E+02  0.83527112821E+02  0.47000000000E+01 0.  1.
         11    1    6    6    0    0  0.34986221649E+02  0.30326098898E+02  0.14210197975E+03  0.14945461060E+03  0.00000000000E+00 0. -1.
        -12    1    6    6    0    0  0.20328793660E+02 -0.31828251753E+02  0.29581013801E+02  0.47972219449E+02  0.00000000000E+00 0.  1.
</event>
<event>
12    1  0.8331241E-002  0.2134184E+03  0.7818608E-02  0.1139135E+00
         21   -1    0    0  503  502  0.00000000000E+00  0.00000000000E+00  0.11623685508E+03  0.11623685508E+03  0.00000000000E+00 0.  1.
         21   -1    0    0  501  503 -0.00000000000E+00 -0.00000000000E+00 -0.41274346666E+03  0.41274346666E+03  0.00000000000E+00 0.  1.
          6    2    1    2  501    0 -0.22075877190E+02  0.12272719465E+03 -0.21058360102E+03  0.29891473781E+03  0.17162534428E+03 0.  0.
         24    2    3    3    0    0 -0.59108829775E+02  0.13002221436E+03 -0.12654023380E+03  0.20666488977E+03  0.79361929844E+02 0.  0.
         -6    2    1    2    0  502  0.22075877190E+02 -0.12272719465E+03 -0.85923010564E+02  0.23006558393E+03  0.17319959730E+03 0.  0.
        -24    2    5    5    0    0 -0.10338436640E+02  0.54238271648E+01 -0.13750822783E+02  0.79386166546E+02  0.77309618667E+02 0.  0.
          5    1    3    3  501    0  0.37032952586E+02 -0.72950197086E+01 -0.84043367220E+02  0.92249848040E+02  0.47000000000E+01 0. -1.
        -11    1    4    4    0    0 -0.94932965648E+01  0.10329789057E+03 -0.10103981408E+03  0.14480891169E+03  0.00000000000E+00 0.  1.
         12    1    4    4    0    0 -0.49615533211E+02  0.26724323790E+02 -0.25500419712E+02  0.61855978072E+02  0.00000000000E+00 0. -1.
         -5    1    5    5    0  502  0.32414313830E+02 -0.12815102182E+03 -0.72172187781E+02  0.15067941738E+03  0.47000000000E+01 0.  1.
         13    1    6    6    0    0  0.26533455784E+02  0.16521907405E+02 -0.24151288579E+02  0.39500410633E+02  0.00000000000E+00 0. -1.
        -14    1    6    6    0    0 -0.36871892425E+02 -0.11098080240E+02  0.10400465796E+02  0.39885755913E+02  0.00000000000E+00 0.  1.
</event>
<event>
12    1  0.8331241E-002  0.2222269E+03  0.7818608E-02  0.1132311E+00
         21   -1    0    0  501  502  0.00000000000E+00  0.00000000000E+00  0.28081021310E+03  0.28081021310E+03  0.00000000000E+00 0.  1.
         21   -1    0    0  502  503 -0.00000000000E+00 -0.00000000000E+00 -0.20496189836E+03  0.20496189836E+03  0.00000000000E+00 0. -1.
         -6    2    1    2    0  503 -0.10647610815E+03  0.93654868711E+02 -0.54142645510E+02  0.22831830038E+03  0.17055622002E+03 0.  0.
        -24    2    3    3    0    0  0.15745458437E+02  0.52759611384E+02 -0.23016374319E+02  0.95647775516E+02  0.74747892408E+02 0.  0.
          6    2    1    2  501    0  0.10647610815E+03 -0.93654868711E+02  0.12999096025E+03  0.25745381108E+03  0.17110353315E+03 0.  0.
         24    2    5    5    0    0  0.79063060979E+02  0.83905052283E+00  0.16560356086E+02  0.10722342838E+03  0.70504940126E+02 0.  0.
          5    1    5    5  501    0  0.27413047167E+02 -0.94493919233E+02  0.11343060416E+03  0.15023038270E+03  0.47000000000E+01 0. -1.
        -11    1    6    6    0    0  0.34527823018E+01  0.16634949788E+02  0.24238845018E+02  0.29600082228E+02  0.00000000000E+00 0.  1.
         12    1    6    6    0    0  0.75610278677E+02 -0.15795899265E+02 -0.76784889319E+01  0.77623346149E+02  0.00000000000E+00 0. -1.
         -5    1    3    3    0  503 -0.12222156658E+03  0.40895257326E+02 -0.31126271191E+02  0.13267052486E+03  0.47000000000E+01 0.  1.
         11    1    4    4    0    0 -0.75198246527E+01  0.43043196680E+02 -0.44615408234E+02  0.62448372237E+02  0.00000000000E+00 0. -1.
        -12    1    4    4    0    0  0.23265283090E+02  0.97164147043E+01  0.21599033915E+02  0.33199403278E+02  0.00000000000E+00 0.  1.
</event>
<event>
12    1  0.8331241E-002  0.1799860E+03  0.7818608E-02  0.1168287E+00
         21   -1    0    0  503  502  0.00000000000E+00  0.00000000000E+00  0.10293748531E+03  0.10293748531E+03  0.00000000000E+00 0.  1.
         21   -1    0    0  501  503 -0.00000000000E+00 -0.00000000000E+00 -0.36664261506E+03  0.36664261506E+03  0.00000000000E+00 0.  1.
          6    2    1    2  501    0  0.10964755446E+02 -0.47751469640E+02 -0.40057450975E+02  0.18250303148E+03  0.17117922890E+03 0.  0.
         24    2    3    3    0    0 -0.44091726428E+02 -0.24999047982E+02  0.18997481118E+02  0.98488366737E+02  0.82280139488E+02 0.  0.
         -6    2    1    2    0  502 -0.10964755446E+02  0.47751469640E+02 -0.22364767878E+03  0.28707706889E+03  0.17318929109E+03 0.  0.
        -24    2    5    5    0    0 -0.66624845694E+02  0.15287033508E+02 -0.94335879680E+02  0.14252390689E+03  0.82105069165E+02 0.  0.
          5    1    3    3  501    0  0.55056481875E+02 -0.22752421657E+02 -0.59054932093E+02  0.84014664745E+02  0.47000000000E+01 0. -1.
        -13    1    4    4    0    0 -0.43147145122E+02 -0.57171377230E+01 -0.25175679664E+02  0.50280976945E+02  0.00000000000E+00 0.  1.
         14    1    4    4    0    0 -0.94458130596E+00 -0.19281910259E+02  0.44173160782E+02  0.48207389792E+02  0.00000000000E+00 0. -1.
         -5    1    5    5    0  502  0.55660090248E+02  0.32464436131E+02 -0.12931179910E+03  0.14455316200E+03  0.47000000000E+01 0.  1.
         13    1    6    6    0    0 -0.52207341964E+02 -0.17447034264E+02 -0.91321774526E+02  0.10662866435E+03  0.00000000000E+00 0. -1.
        -14    1    6    6    0    0 -0.14417503730E+02  0.32734067772E+02 -0.30141051543E+01  0.35895242534E+02  0.00000000000E+00 0.  1.
</event>
<event>
12    1  0.8331241E-002  0.2037706E+03  0.7818608E-02  0.1147021E+00
         21   -1    0    0  501  502  0.00000000000E+00  0.00000000000E+00  0.34931217960E+03  0.34931217960E+03  0.00000000000E+00 0.  1.
         21   -1    0    0  502  503 -0.00000000000E+00 -0.00000000000E+00 -0.20298307353E+03  0.20298307353E+03  0.00000000000E+00 0.  1.
         -6    2    1    2    0  503 -0.31821323425E+02  0.10084741326E+03 -0.10607222075E+03  0.22790522730E+03  0.17177508327E+03 0.  0.
        -24    2    3    3    0    0 -0.56678815788E+02  0.12857913246E+03 -0.70775669329E+02  0.17637970238E+03  0.79721531478E+02 0.  0.
          6    2    1    2  501    0  0.31821323425E+02 -0.10084741326E+03  0.25240132682E+03  0.32439002583E+03  0.17418283983E+03 0.  0.
         24    2    5    5    0    0 -0.23341594558E+01 -0.17345888750E+02  0.25666475062E+02  0.80320600031E+02  0.74069580061E+02 0.  0.
          5    1    5    5  501    0  0.34155482881E+02 -0.83501524509E+02  0.22673485176E+03  0.24406942580E+03  0.47000000000E+01 0. -1.
        -11    1    6    6    0    0 -0.74845329047E+01 -0.45425028755E+02  0.23506395481E+02  0.51691412234E+02  0.00000000000E+00 0.  1.
         12    1    6    6    0    0  0.51503734489E+01  0.28079140006E+02  0.21600795805E+01  0.28629187797E+02  0.00000000000E+00 0. -1.
         -5    1    3    3    0  503  0.24857492363E+02 -0.27731719196E+02 -0.35296551417E+02  0.51525524918E+02  0.47000000000E+01 0.  1.
         11    1    4    4    0    0 -0.16886533486E+02 -0.83491543251E+01 -0.10539214363E+02  0.21585607022E+02  0.00000000000E+00 0. -1.
        -12    1    4    4    0    0 -0.39792282302E+02  0.13692828678E+03 -0.60236454966E+02  0.15479409536E+03  0.00000000000E+00 0.  1.
</event>
<event>
12    1  0.8331241E-002  0.2795128E+03  0.7818608E-02  0.1097164E+00
         21   -1    0    0  501  502  0.00000000000E+00  0.00000000000E+00  0.97240206852E+03  0.97240206852E+03  0.00000000000E+00 0.  1.
         21   -1    0    0  502  503 -0.00000000000E+00 -0.00000000000E+00 -0.78615614646E+02  0.78615614646E+02  0.00000000000E+00 0. -1.
         -6    2    1    2    0  503 -0.13436783724E+02 -0.20847830509E+03  0.50514103890E+03  0.57731696081E+03  0.18569774689E+03 0.  0.
        -24    2    3    3    0    0 -0.40307920303E+01 -0.23241050593E+03  0.40411988091E+03  0.47296856705E+03  0.79721369293E+02 0.  0.
          6    2    1    2  501    0  0.13436783724E+02  0.20847830509E+03  0.38864541498E+03  0.47370072236E+03  0.17234664179E+03 0.  0.
         24    2    5    5    0    0  0.18114504510E+02  0.18619678692E+03  0.20528577808E+03  0.28887325264E+03  0.79423716067E+02 0.  0.
          5    1    5    5  501    0 -0.46777207860E+01  0.22281518175E+02  0.18335963689E+03  0.18482746973E+03  0.47000000000E+01 0. -1.
        -11    1    6    6    0    0  0.32422552247E+02  0.12457170835E+03  0.17873727157E+03  0.22026426097E+03  0.00000000000E+00 0.  1.
         12    1    6    6    0    0 -0.14308047737E+02  0.61625078574E+02  0.26548506517E+02  0.68608991667E+02  0.00000000000E+00 0. -1.
         -5    1    3    3    0  503 -0.94059916933E+01  0.23932200837E+02  0.10102115800E+03  0.10434839376E+03  0.47000000000E+01 0.  1.
         13    1    4    4    0    0  0.25853283666E+02 -0.52660747256E+02  0.62042054657E+02  0.85385965614E+02  0.00000000000E+00 0. -1.
        -14    1    4    4    0    0 -0.29884075696E+02 -0.17974975868E+03  0.34207782625E+03  0.38758260144E+03  0.00000000000E+00 0.  1.
</event>
<event>
12    1  0.8331241E-002  0.2748268E+03  0.7818608E-02  0.1098569E+00
         21   -1    0    0  503  502  0.00000000000E+00  0.00000000000E+00  0.10967115396E+03  0.10967115396E+03  0.00000000000E+00 0.  1.
         21   -1    0    0  501  503 -0.00000000000E+00 -0.00000000000E+00 -0.14539846775E+04  0.14539846775E+04  0.00000000000E+00 0. -1.
          6    2    1    2  501    0 -0.21575248832E+03 -0.44315822314E+01 -0.12395914945E+04  0.12696916396E+04  0.17017935035E+03 0.  0.
         24    2    3    3    0    0 -0.75436687478E+02  0.41358890397E+02 -0.42870978689E+03  0.44547290341E+03  0.85163223646E+02 0.  0.
         -6    2    1    2    0  502  0.21575248832E+03  0.44315822314E+01 -0.10472202903E+03  0.29396419185E+03  0.16993959983E+03 0.  0.
        -24    2    5    5    0    0  0.41606695659E+02 -0.23043055303E+02 -0.53467786196E+01  0.91531133280E+02  0.78020899742E+02 0.  0.
          5    1    3    3  501    0 -0.14031580084E+03 -0.45790472628E+02 -0.81088170760E+03  0.82421873618E+03  0.47000000000E+01 0. -1.
        -13    1    4    4    0    0 -0.54911280205E+02  0.15403039750E+02 -0.10014108559E+03  0.11524209019E+03  0.00000000000E+00 0.  1.
         14    1    4    4    0    0 -0.20525407273E+02  0.25955850647E+02 -0.32856870130E+03  0.33023081322E+03  0.00000000000E+00 0. -1.
         -5    1    5    5    0  502  0.17414579266E+03  0.27474637535E+02 -0.99375250406E+02  0.20243305857E+03  0.47000000000E+01 0.  1.
         11    1    6    6    0    0  0.33214271351E+02 -0.45060426831E+02 -0.24558570604E+02  0.61128988849E+02  0.00000000000E+00 0. -1.
        -12    1    6    6    0    0  0.83924243076E+01  0.22017371528E+02  0.19211791984E+02  0.30402144431E+02  0.00000000000E+00 0.  1.
</event>
<event>
12    1  0.8331241E-002  0.1724584E+03  0.7818608E-02  0.1176870E+00
         21   -1    0    0  503  502  0.00000000000E+00  0.00000000000E+00  0.37871403021E+03  0.37871403021E+03  0.00000000000E+00 0. -1.
         21   -1    0    0  501  503 -0.00000000000E+00 -0.00000000000E+00 -0.77370426007E+02  0.77370426007E+02  0.00000000000E+00 0. -1.
          6    2    1    2  501    0 -0.21468335144E+02 -0.90167734745E+01  0.11589090441E+03  0.20283632654E+03  0.16483228453E+03 0.  0.
         24    2    3    3    0    0 -0.20450596773E+02 -0.89575254894E+01  0.14840249027E+03  0.16997095698E+03  0.79802023321E+02 0.  0.
         -6    2    1    2    0  502  0.21468335144E+02  0.90167734745E+01  0.18545269980E+03  0.25324812968E+03  0.17087925476E+03 0.  0.
        -24    2    5    5    0    0 -0.23184886883E+02 -0.46815341715E+02  0.13629524220E+03  0.16635922958E+03  0.79810932953E+02 0.  0.
          5    1    3    3  501    0 -0.10177383704E+01 -0.59247985092E-01 -0.32511585858E+02  0.32865369566E+02  0.47000000000E+01 0. -1.
        -13    1    4    4    0    0  0.18580716798E+02  0.79345304242E-01  0.25971940011E+01  0.18761523102E+02  0.00000000000E+00 0.  1.
         14    1    4    4    0    0 -0.39031313572E+02 -0.90368707937E+01  0.14580529627E+03  0.15120943387E+03  0.00000000000E+00 0. -1.
         -5    1    5    5    0  502  0.44653222027E+02  0.55832115190E+02  0.49157457596E+02  0.86888900104E+02  0.47000000000E+01 0.  1.
         13    1    6    6    0    0  0.22460470437E+02 -0.36529604471E+02  0.37184503111E+02  0.56758893634E+02  0.00000000000E+00 0. -1.
        -14    1    6    6    0    0 -0.45645357320E+02 -0.10285737245E+02  0.99110739089E+02  0.10960033594E+03  0.00000000000E+00 0.  1.
</event>
<event>
12    1  0.8331241E-002  0.1855850E+03  0.7818608E-02  0.1163286E+00
         21   -1    0    0  501  502  0.00000000000E+00  0.00000000000E+00  0.28653811455E+03  0.28653811455E+03  0.00000000000E+00 0.  1.
         21   -1    0    0  502  503 -0.00000000000E+00 -0.00000000000E+00 -0.11895050478E+03  0.11895050478E+03  0.00000000000E+00 0.  1.
         -6    2    1    2    0  503 -0.73903155282E+01  0.61001154383E+02  0.66946605520E+02  0.19729078199E+03  0.17511723807E+03 0.  0.
        -24    2    3    3    0    0  0.42959419075E+02  0.64158511118E+02 -0.22917843624E+01  0.11149387465E+03  0.80397795817E+02 0.  0.
          6    2    1    2  501    0  0.73903155282E+01 -0.61001154383E+02  0.10064100425E+03  0.20819783734E+03  0.17158662575E+03 0.  0.
         24    2    5    5    0    0  0.70048823320E+02 -0.54524048990E+02  0.65261739534E+02  0.13579739629E+03  0.79385947275E+02 0.  0.
          5    1    5    5  501    0 -0.62658507792E+02 -0.64771053929E+01  0.35379264715E+02  0.72400441053E+02  0.47000000000E+01 0. -1.
        -13    1    6    6    0    0  0.42522356778E+02 -0.72960894524E+02  0.56237857772E+02  0.10146003944E+03  0.00000000000E+00 0.  1.
         14    1    6    6    0    0  0.27526466541E+02  0.18436845533E+02  0.90238817620E+01  0.34337356851E+02  0.00000000000E+00 0. -1.
         -5    1    3    3    0  503 -0.50349734603E+02 -0.31573567352E+01  0.69238389882E+02  0.85796907343E+02  0.47000000000E+01 0.  1.
         13    1    4    4    0    0 -0.11206995114E+02 -0.73147067088E+01  0.15064257286E+02  0.20150273480E+02  0.00000000000E+00 0. -1.
        -14    1    4    4    0    0  0.54166414189E+02  0.71473217827E+02 -0.17356041649E+02  0.91343601168E+02  0.00000000000E+00 0.  1.
</event>
<event>
12    1  0.8331241E-002  0.2241629E+03  0.7818608E-02  0.1130876E+00
         21   -1    0    0  503  502  0.00000000000E+00  0.00000000000E+00  0.32896010513E+03  0.32896010513E+03  0.00000000000E+00 0.  1.
         21   -1    0    0  501  503 -0.00000000000E+00 -0.00000000000E+00 -0.42971195543E+03  0.42971195543E+03  0.00000000000E+00 0.  1.
          6    2    1    2  501    0 -0.14278920255E+03  0.92280398739E+01 -0.35504984074E+03  0.41989212666E+03  0.17255461610E+03 0.  0.
         24    2    3    3    0    0 -0.53381339045E+02 -0.87954401903E+01 -0.68329707601E+02  0.11897829076E+03  0.80993565203E+02 0.  0.
         -6    2    1    2    0  502  0.14278920255E+03 -0.92280398739E+01  0.25429799045E+03  0.33877993390E+03  0.17213501267E+03 0.  0.
        -24    2    5    5    0    0  0.61245512871E+02 -0.68423763589E+02  0.12394008170E+03  0.17395038132E+03  0.80403775028E+02 0.  0.
          5    1    3    3  501    0 -0.89407863507E+02  0.18023480064E+02 -0.28672013314E+03  0.30091383591E+03  0.47000000000E+01 0. -1.
        -13    1    4    4    0    0 -0.18262278789E+02 -0.25854869978E+02 -0.73086037045E+02  0.79646430799E+02  0.00000000000E+00 0.  1.
         14    1    4    4    0    0 -0.35119060256E+02  0.17059429787E+02  0.47563294445E+01  0.39331859957E+02  0.00000000000E+00 0. -1.
         -5    1    5    5    0  502  0.81543689681E+02  0.59195723715E+02  0.13035790874E+03  0.16482955258E+03  0.47000000000E+01 0.  1.
         13    1    6    6    0    0 -0.15769563207E+01 -0.19957553532E+02  0.81590723914E+02  0.84010933593E+02  0.00000000000E+00 0. -1.
        -14    1    6    6    0    0  0.62822469192E+02 -0.48466210057E+02  0.42349357789E+02  0.89939447729E+02  0.00000000000E+00 0.  1.
</event>
<event>
12    1  0.8331241E-002  0.2342750E+03  0.7818608E-02  0.1123920E+00
         21   -1    0    0  501  502  0.00000000000E+00  0.00000000000E+00  0.17491042426E+03  0.17491042426E+03  0.00000000000E+00 0. -1.
         21   -1    0    0  502  503 -0.00000000000E+00 -0.00000000000E+00 -0.35698499076E+03  0.35698499076E+03  0.00000000000E+00 0. -1.
         -6    2    1    2    0  503  0.15487467493E+03 -0.18426535350E+02 -0.18588068812E+03  0.29905920944E+03  0.17481155109E+03 0.  0.
        -24    2    3    3    0    0  0.11637392607E+03  0.27393540842E+02 -0.19056996130E+03  0.23884404251E+03  0.80226365632E+02 0.  0.
          6    2    1    2  501    0 -0.15487467493E+03  0.18426535350E+02  0.38061216180E+01  0.23283620558E+03  0.17283665678E+03 0.  0.
         24    2    5    5    0    0 -0.16148857206E+03  0.49058227547E+02 -0.27493666703E+02  0.18829621286E+03  0.78830790135E+02 0.  0.
          5    1    5    5  501    0  0.66138971304E+01 -0.30631692198E+02  0.31299788321E+02  0.44539992715E+02  0.47000000000E+01 0. -1.
        -11    1    6    6    0    0 -0.46588746091E+02 -0.64124075364E+00 -0.41412242913E+02  0.62336957859E+02  0.00000000000E+00 0.  1.
         12    1    6    6    0    0 -0.11489982597E+03  0.49699468301E+02  0.13918576210E+02  0.12595925501E+03  0.00000000000E+00 0. -1.
         -5    1    3    3    0  503  0.38500748862E+02 -0.45820076192E+02  0.46892731827E+01  0.60215166928E+02  0.47000000000E+01 0.  1.
         11    1    4    4    0    0  0.76951199015E+02 -0.14557658975E+02 -0.14730850748E+03  0.16683287697E+03  0.00000000000E+00 0. -1.
        -12    1    4    4    0    0  0.39422727056E+02  0.41951199818E+02 -0.43261453828E+02  0.72011165537E+02  0.00000000000E+00 0.  1.
</event>
<event>
12    1  0.8331241E-002  0.1953311E+03  0.7818608E-02  0.1153886E+00
         21   -1    0    0  503  502  0.00000000000E+00  0.00000000000E+00  0.14430612223E+03  0.14430612223E+03  0.00000000000E+00 0.  1.
         21   -1    0    0  501  503 -0.00000000000E+00 -0.00000000000E+00 -0.33313374485E+03  0.33313374485E+03  0.00000000000E+00 0.  1.
          6    2    1    2  501    0 -0.92959709934E+02  0.53707687229E+01 -0.20343660299E+03  0.28156326555E+03  0.17094171007E+03 0.  0.
         24    2    3    3    0    0 -0.13023513029E+03  0.44094064204E+00 -0.18241527310E+03  0.23823029337E+03  0.80727673254E+02 0.  0.
         -6    2    1    2    0  502  0.92959709934E+02 -0.53707687229E+01  0.14608980363E+02  0.19587660153E+03  0.17170867157E+03 0.  0.
        -24    2    5    5    0    0  0.12352842827E+03  0.16256326600E+02 -0.13693266401E+02  0.14870367535E+03  0.80010854090E+02 0.  0.
          5    1    3    3  501    0  0.37275420356E+02  0.49298280809E+01 -0.21021329893E+02  0.43332972182E+02  0.47000000000E+01 0. -1.
        -11    1    4    4    0    0  0.53512149144E+00 -0.14287219023E+02 -0.48149897356E+02  0.50227717426E+02  0.00000000000E+00 0.  1.
         12    1    4    4    0    0 -0.13077025178E+03  0.14728159665E+02 -0.13426537574E+03  0.18800257594E+03  0.00000000000E+00 0. -1.
         -5    1    5    5    0  502 -0.30568718335E+02 -0.21627095323E+02  0.28302246764E+02  0.47172926183E+02  0.47000000000E+01 0.  1.
         13    1    6    6    0    0 -0.28303285893E+01  0.11178300596E+02 -0.18895396796E+02  0.22135970370E+02  0.00000000000E+00 0. -1.
        -14    1    6    6    0    0  0.12635875686E+03  0.50780260043E+01  0.52021303946E+01  0.12656770498E+03  0.00000000000E+00 0.  1.
</event>
<event>
12    1  0.8331241E-002  0.1813078E+03  0.7818608E-02  0.1166675E+00
         21   -1    0    0  501  502  0.00000000000E+00  0.00000000000E+00  0.43138411719E+03  0.43138411719E+03  0.00000000000E+00 0. -1.
         21   -1    0    0  502  503 -0.00000000000E+00 -0.00000000000E+00 -0.10638346278E+03  0.10638346278E+03  0.00000000000E+00 0. -1.
         -6    2    1    2    0  503  0.27213448287E+02 -0.50871113171E+02  0.30608764903E+03  0.35547602564E+03  0.17130415638E+03 0.  0.
        -24    2    3    3    0    0  0.13798925970E+02  0.35728404588E+02  0.19487924930E+03  0.21381154860E+03  0.79186660836E+02 0.  0.
          6    2    1    2  501    0 -0.27213448287E+02  0.50871113171E+02  0.18913005375E+02  0.18229155433E+03  0.17188387675E+03 0.  0.
         24    2    5    5    0    0 -0.59088029013E+02  0.59117621056E+02 -0.34132900712E+02  0.11968203476E+03  0.78564917366E+02 0.  0.
          5    1    5    5  501    0  0.31874580726E+02 -0.82465078844E+01  0.53045906087E+02  0.62609519574E+02  0.47000000000E+01 0. -1.
        -13    1    6    6    0    0 -0.33865758766E+02  0.31967153792E+02  0.22720686358E+02  0.51817160545E+02  0.00000000000E+00 0.  1.
         14    1    6    6    0    0 -0.25222270247E+02  0.27150467264E+02 -0.56853587070E+02  0.67864874212E+02  0.00000000000E+00 0. -1.
         -5    1    3    3    0  503  0.13414522317E+02 -0.86599517759E+02  0.11120839973E+03  0.14166447704E+03  0.47000000000E+01 0.  1.
         13    1    4    4    0    0  0.45826158660E+02  0.31602120772E+02  0.12227445047E+03  0.13434944024E+03  0.00000000000E+00 0. -1.
        -14    1    4    4    0    0 -0.32027232690E+02  0.41262838159E+01  0.72604798826E+02  0.79462108356E+02  0.00000000000E+00 0.  1.
</event>
<event>
12    1  0.8331241E-002  0.2097430E+03  0.7818608E-02  0.1141822E+00
         21   -1    0    0  501  502  0.00000000000E+00  0.00000000000E+00  0.25116968984E+02  0.25116968984E+02  0.00000000000E+00 0.  1.
         21   -1    0    0  502  503 -0.00000000000E+00 -0.00000000000E+00 -0.19603112390E+04  0.19603112390E+04  0.00000000000E+00 0. -1.
         -6    2    1    2    0  503 -0.95648526729E+02 -0.72794416014E+02 -0.12938650604E+04  0.13107550985E+04  0.17188503779E+03 0.  0.
        -24    2    3    3    0    0 -0.95747481146E+02 -0.43086562406E+02 -0.54533821122E+03  0.56162420193E+03  0.83689590529E+02 0.  0.
          6    2    1    2  501    0  0.95648526729E+02  0.72794416014E+02 -0.64132920967E+03  0.67467310948E+03  0.17156043193E+03 0.  0.
         24    2    5    5    0    0  0.11841728850E+03  0.14943377259E+02 -0.37904596665E+03  0.40508129067E+03  0.78543290475E+02 0.  0.
          5    1    5    5  501    0 -0.22768761770E+02  0.57851038755E+02 -0.26228324302E+03  0.26959181880E+03  0.47000000000E+01 0. -1.
        -11    1    6    6    0    0  0.27422382010E+02 -0.22348470063E+02 -0.47292694710E+02  0.59059631917E+02  0.00000000000E+00 0.  1.
         12    1    6    6    0    0  0.90994906489E+02  0.37291847322E+02 -0.33175327194E+03  0.34602165876E+03  0.00000000000E+00 0. -1.
         -5    1    3    3    0  503  0.98954416878E-01 -0.29707853608E+02 -0.74852684913E+03  0.74913089659E+03  0.47000000000E+01 0.  1.
         11    1    4    4    0    0 -0.83851431936E+02  0.16864152607E+01 -0.41250279274E+03  0.42094234837E+03  0.00000000000E+00 0. -1.
        -12    1    4    4    0    0 -0.11896049211E+02 -0.44772977666E+02 -0.13283541849E+03  0.14068185356E+03  0.00000000000E+00 0.  1.
</event>
<event>
12    1  0.8331241E-002  0.1856082E+03  0.7818608E-02  0.1162556E+00
         21   -1    0    0  503  502  0.00000000000E+00  0.00000000000E+00  0.17233038528E+04  0.17233038528E+04  0.00000000000E+00 0. -1.
         21   -1    0    0  501  503 -0.00000000000E+00 -0.00000000000E+00 -0.37891470471E+02  0.37891470471E+02  0.00000000000E+00 0.  1.
          6    2    1    2  501    0 -0.44051931628E+02  0.53644182183E+02  0.23650851836E+03  0.30045139336E+03  0.17180363660E+03 0.  0.
         24    2    3    3    0    0 -0.15424679746E+02  0.49331719454E+02  0.45959777738E+02  0.10765868230E+03  0.82501826734E+02 0.  0.
         -6    2    1    2    0  502  0.44051931628E+02 -0.53644182183E+02  0.14489038639E+04  0.14607439299E+04  0.17213991634E+03 0.  0.
        -24    2    5    5    0    0 -0.86812289414E+01 -0.58768857085E+02  0.12777092510E+04  0.12814767159E+04  0.78182485033E+02 0.  0.
          5    1    3    3  501    0 -0.28627251882E+02  0.43124627286E+01  0.19054874062E+03  0.19279271106E+03  0.47000000000E+01 0. -1.
        -13    1    4    4    0    0 -0.15558102307E+02 -0.21462295076E+02  0.10948541423E+02  0.28680223441E+02  0.00000000000E+00 0.  1.
         14    1    4    4    0    0  0.13342256117E+00  0.70794014530E+02  0.35011236316E+02  0.78978458856E+02  0.00000000000E+00 0. -1.
         -5    1    5    5    0  502  0.52733160569E+02  0.51246749020E+01  0.17119461297E+03  0.17926721403E+03  0.47000000000E+01 0.  1.
         11    1    6    6    0    0 -0.19673089863E+02 -0.61652404137E+02  0.56772761972E+03  0.57140414733E+03  0.00000000000E+00 0. -1.
        -12    1    6    6    0    0  0.10991860922E+02  0.28835470524E+01  0.70998163125E+03  0.71007256852E+03  0.00000000000E+00 0.  1.
</event>
<event>
12    1  0.8331241E-002  0.2464337E+03  0.7818608E-02  0.1115627E+00
         21   -1    0    0  501  502  0.00000000000E+00  0.00000000000E+00  0.79620143117E+03  0.79620143117E+03  0.00000000000E+00 0.  1.
         21   -1    0    0  502  503 -0.00000000000E+00 -0.00000000000E+00 -0.79743915403E+02  0.79743915403E+02  0.00000000000E+00 0.  1.
         -6    2    1    2    0  503  0.17392738225E+03  0.30336317515E+02  0.26588977257E+03  0.36252850846E+03  0.17192591960E+03 0.  0.
        -24    2    3    3    0    0  0.43420580254E+02  0.86828355553E+01  0.38700573465E+02  0.99587600957E+02  0.80369256902E+02 0.  0.
          6    2    1    2  501    0 -0.17392738225E+03 -0.30336317515E+02  0.45056774319E+03  0.51341683811E+03  0.17150665292E+03 0.  0.
         24    2    5    5    0    0 -0.85081839912E+02 -0.82717065535E+02  0.27074968143E+03  0.30606713714E+03  0.79313744273E+02 0.  0.
          5    1    5    5  501    0 -0.88845542334E+02  0.52380748020E+02  0.17981806176E+03  0.20734970097E+03  0.47000000000E+01 0. -1.
        -13    1    6    6    0    0 -0.68991170209E+02 -0.43582782477E+02  0.24073367836E+03  0.25418879674E+03  0.00000000000E+00 0.  1.
         14    1    6    6    0    0 -0.16090669702E+02 -0.39134283058E+02  0.30016003073E+02  0.51878340398E+02  0.00000000000E+00 0. -1.
         -5    1    3    3    0  503  0.13050680199E+03  0.21653481960E+02  0.22718919911E+03  0.26294090750E+03  0.47000000000E+01 0.  1.
         11    1    4    4    0    0 -0.19843883853E+02  0.17024001183E+02  0.26074154791E+01  0.26275367897E+02  0.00000000000E+00 0. -1.
        -12    1    4    4    0    0  0.63264464107E+02 -0.83411656281E+01  0.36093157986E+02  0.73312233060E+02  0.00000000000E+00 0.  1.
</event>
<event>
12    1  0.8331241E-002  0.2001196E+03  0.7818608E-02  0.1150320E+00
         21   -1    0    0  503  502  0.00000000000E+00  0.00000000000E+00  0.53857465834E+02  0.53857465834E+02  0.00000000000E+00 0.  1.
         21   -1    0    0  501  503 -0.00000000000E+00 -0.00000000000E+00 -0.73897791622E+03  0.73897791622E+03  0.00000000000E+00 0.  1.
          6    2    1    2  501    0 -0.63279979097E+02 -0.71903326284E+02 -0.30602569677E+03  0.36564951703E+03  0.17570827565E+03 0.  0.
         24    2    3    3    0    0 -0.66096549923E+02 -0.10874178984E+03 -0.18209795129E+03  0.23624634253E+03  0.80368773326E+02 0.  0.
         -6    2    1    2    0  502  0.63279979097E+02  0.71903326284E+02 -0.37909475362E+03  0.42718586503E+03  0.17204792058E+03 0.  0.
        -24    2    5    5    0    0  0.50923314237E+02 -0.71170329846E+01 -0.10252029919E+03  0.13924069111E+03  0.78953924680E+02 0.  0.
          5    1    3    3  501    0  0.28165708256E+01  0.36838463559E+02 -0.12392774548E+03  0.12940317449E+03  0.47000000000E+01 0. -1.
        -11    1    4    4    0    0 -0.34060169239E+02 -0.58902044821E+02 -0.15847212166E+03  0.17246147210E+03  0.00000000000E+00 0.  1.
         12    1    4    4    0    0 -0.32036380683E+02 -0.49839745023E+02 -0.23625829627E+02  0.63784870438E+02  0.00000000000E+00 0. -1.
         -5    1    5    5    0  502  0.12356664860E+02  0.79020359269E+02 -0.27657445442E+03  0.28794517392E+03  0.47000000000E+01 0.  1.
         11    1    6    6    0    0  0.54091797198E+02 -0.10429258132E+02 -0.23176970511E+02  0.59765072671E+02  0.00000000000E+00 0. -1.
        -12    1    6    6    0    0 -0.31684829608E+01  0.33122251474E+01 -0.79343328681E+02  0.79475618437E+02  0.00000000000E+00 0.  1.
</event>
<event>
12    1  0.8331241E-002  0.2050377E+03  0.7818608E-02  0.1146153E+00
         21   -1    0    0  501  502  0.00000000000E+00  0.00000000000E+00  0.31212646720E+03  0.31212646720E+03  0.00000000000E+00 0. -1.
         21   -1    0    0  502  503 -0.00000000000E+00 -0.00000000000E+00 -0.13340498190E+03  0.13340498190E+03  0.00000000000E+00 0. -1.
         -6    2    1    2    0  503 -0.52372380005E+02 -0.92842759510E+02  0.73673899769E+02  0.21515036588E+03  0.17175328891E+03 0.  0.
        -24    2    3    3    0    0 -0.30027819968E+02 -0.12246337666E+03  0.89735601120E+02  0.17444743510E+03  0.80501434214E+02 0.  0.
          6    2    1    2  501    0  0.52372380005E+02  0.92842759510E+02  0.10504758553E+03  0.23038108322E+03  0.17515080388E+03 0.  0.
         24    2    5    5    0    0  0.35329674607E+02  0.13379223035E+03  0.72993119139E+02  0.17545484372E+03  0.79422036825E+02 0.  0.
          5    1    5    5  501    0  0.17042705398E+02 -0.40949470843E+02  0.32054466394E+02  0.54926239498E+02  0.47000000000E+01 0. -1.
        -11    1    6    6    0    0 -0.11794766187E+01  0.17783399732E+02 -0.16633884479E+02  0.24378814245E+02  0.00000000000E+00 0.  1.
         12    1    6    6    0    0  0.36509151225E+02  0.11600883062E+03  0.89627003617E+02  0.15107602948E+03  0.00000000000E+00 0. -1.
         -5    1    3    3    0  503 -0.22344560037E+02  0.29620617152E+02 -0.16061701350E+02  0.40702930779E+02  0.47000000000E+01 0.  1.
         13    1    4    4    0    0 -0.51521752163E+02 -0.75455040450E+02  0.31651080376E+02  0.96694079261E+02  0.00000000000E+00 0. -1.
        -14    1    4    4    0    0  0.21493932196E+02 -0.47008336212E+02  0.58084520744E+02  0.77753355842E+02  0.00000000000E+00 0.  1.
</event>
<event>
12    1  0.8331241E-002  0.1708741E+03  0.7818608E-02  0.1179667E+00
         21   -1    0    0  501  502  0.00000000000E+00  0.00000000000E+00  0.38810636726E+03  0.38810636726E+03  0.00000000000E+00 0. -1.
         21   -1    0    0  502  503 -0.00000000000E+00 -0.00000000000E+00 -0.71457340673E+02  0.71457340673E+02  0.00000000000E+00 0. -1.
         -6    2    1    2    0  503  0.27802712197E+00  0.32464920851E+01  0.17532271292E+03  0.23781817003E+03  0.16065121015E+03 0.  0.
        -24    2    3    3    0    0  0.44241137663E+02  0.42195157319E+02  0.10406310544E+03  0.14535317520E+03  0.80998185556E+02 0.  0.
          6    2    1    2  501    0 -0.27802712197E+00 -0.32464920851E+01  0.14132631366E+03  0.22174553790E+03  0.17084302629E+03 0.  0.
         24    2    5    5    0    0  0.38563919205E+02  0.34876626817E+02  0.13790168089E+03  0.16701084050E+03  0.78563301156E+02 0.  0.
          5    1    5    5  501    0 -0.38841946327E+02 -0.38123118902E+02  0.34246327695E+01  0.54734697395E+02  0.47000000000E+01 0. -1.
        -13    1    6    6    0    0  0.14340984183E+02  0.50035597926E+02  0.41817968997E+02  0.66768011938E+02  0.00000000000E+00 0.  1.
         14    1    6    6    0    0  0.24222935022E+02 -0.15158971109E+02  0.96083711898E+02  0.10024282856E+03  0.00000000000E+00 0. -1.
         -5    1    3    3    0  503 -0.43963110541E+02 -0.38948665234E+02  0.71259607477E+02  0.92464994835E+02  0.47000000000E+01 0.  1.
         11    1    4    4    0    0  0.45533162365E+01  0.48733112134E+02  0.90531151012E+02  0.10291519912E+03  0.00000000000E+00 0. -1.
        -12    1    4    4    0    0  0.39687821427E+02 -0.65379548148E+01  0.13531954430E+02  0.42437976077E+02  0.00000000000E+00 0.  1.
</event>
<event>
12    1  0.8331241E-002  0.1909894E+03  0.7818608E-02  0.1157573E+00
         21   -1    0    0  501  502  0.00000000000E+00  0.00000000000E+00  0.18149331505E+04  0.18149331505E+04  0.00000000000E+00 0.  1.
         21   -1    0    0  502  503 -0.00000000000E+00 -0.00000000000E+00 -0.21057277714E+02  0.21057277714E+02  0.00000000000E+00 0.  1.
         -6    2    1    2    0  503  0.81272619854E+02  0.21917188677E+02  0.70094792501E+03  0.72650025811E+03  0.17143228856E+03 0.  0.
        -24    2    3    3    0    0  0.39969408843E+02 -0.19583506256E+02  0.62871225927E+03  0.63339631445E+03  0.62695445174E+02 0.  0.
          6    2    1    2  501    0 -0.81272619854E+02 -0.21917188677E+02  0.10929279478E+04  0.11094901701E+04  0.17143901723E+03 0.  0.
         24    2    5    5    0    0  0.18175867143E+02 -0.21252347432E+02  0.35325202849E+03  0.36314373637E+03  0.79399957257E+02 0.  0.
          5    1    5    5  501    0 -0.99448486998E+02 -0.66484124476E+00  0.73967591932E+03  0.74634643377E+03  0.47000000000E+01 0. -1.
        -11    1    6    6    0    0  0.81514191710E+01 -0.40411614184E+02  0.32480801527E+03  0.32741379167E+03  0.00000000000E+00 0.  1.
         12    1    6    6    0    0  0.10024447972E+02  0.19159266752E+02  0.28444013220E+02  0.35729944692E+02  0.00000000000E+00 0. -1.
         -5    1    3    3    0  503  0.41303211011E+02  0.41500694932E+02  0.72235665741E+02  0.93103943658E+02  0.47000000000E+01 0.  1.
         11    1    4    4    0    0  0.38959469709E+02 -0.91465242550E-01  0.57375104484E+03  0.57507226511E+03  0.00000000000E+00 0. -1.
        -12    1    4    4    0    0  0.10099391343E+01 -0.19492041013E+02  0.54961214430E+02  0.58324049341E+02  0.00000000000E+00 0.  1.
</event>
<event>
12    1  0.8331241E-002  0.3120176E+03  0.7818608E-02  0.1079751E+00
         21   -1    0    0  503  502  0.00000000000E+00  0.00000000000E+00  0.19908804440E+04  0.19908804440E+04  0.00000000000E+00 0. -1.
         21   -1    0    0  501  503 -0.00000000000E+00 -0.00000000000E+00 -0.61342704249E+02  0.61342704249E+02  0.00000000000E+00 0.  1.
          6    2    1    2  501    0  0.11070375300E+03  0.23335462915E+03  0.49756037944E+03  0.58730002665E+03  0.17505795107E+03 0.  0.
         24    2    3    3    0    0  0.95222386586E+02  0.10695021363E+03  0.38008263932E+03  0.41397703800E+03  0.80053258378E+02 0.  0.
         -6    2    1    2    0  502 -0.11070375300E+03 -0.23335462915E+03  0.14319773603E+04  0.14649231216E+04  0.16950188169E+03 0.  0.
        -24    2    5    5    0    0 -0.13882373634E+03 -0.20017166692E+03  0.10632731443E+04  0.10936324924E+04  0.78367869651E+02 0.  0.
          5    1    3    3  501    0  0.15481366417E+02  0.12640441552E+03  0.11747774012E+03  0.17332298864E+03  0.47000000000E+01 0. -1.
        -13    1    4    4    0    0  0.25743828115E+02  0.86943217553E+02  0.18763164005E+03  0.20839265849E+03  0.00000000000E+00 0.  1.
         14    1    4    4    0    0  0.69478558472E+02  0.20006996081E+02  0.19245099927E+03  0.20558437951E+03  0.00000000000E+00 0. -1.
         -5    1    5    5    0  502  0.28119983337E+02 -0.33182962229E+02  0.36870421603E+03  0.37129062925E+03  0.47000000000E+01 0.  1.
         11    1    6    6    0    0 -0.56376837710E+02 -0.13582101015E+03  0.71628325672E+03  0.73122322070E+03  0.00000000000E+00 0. -1.
        -12    1    6    6    0    0 -0.82446898631E+02 -0.64350656773E+02  0.34698988759E+03  0.36240927170E+03  0.00000000000E+00 0.  1.
</event>
<event>
12    1  0.8331241E-002  0.1894734E+03  0.7818608E-02  0.1159141E+00
         21   -1    0    0  503  502  0.00000000000E+00  0.00000000000E+00  0.34140911863E+03  0.34140911863E+03  0.00000000000E+00 0. -1.
         21   -1    0    0  501  503 -0.00000000000E+00 -0.00000000000E+00 -0.11672277167E+03  0.11672277167E+03  0.00000000000E+00 0. -1.
          6    2    1    2  501    0 -0.74206403945E+02 -0.22874304121E+02  0.18623722078E+03  0.26567741197E+03  0.17283043903E+03 0.  0.
         24    2    3    3    0    0 -0.29200184580E+02 -0.77019522724E+02  0.88416394826E+02  0.14506120880E+03  0.80253584118E+02 0.  0.
         -6    2    1    2    0  502  0.74206403945E+02  0.22874304121E+02  0.38449126182E+02  0.19245447833E+03  0.17184460058E+03 0.  0.
        -24    2    5    5    0    0 -0.29376495629E+02 -0.16678377416E+01  0.18607757874E+02  0.84068576531E+02  0.76521348189E+02 0.  0.
          5    1    3    3  501    0 -0.45006219365E+02  0.54145218603E+02  0.97820825949E+02  0.12061620318E+03  0.47000000000E+01 0. -1.
        -11    1    4    4    0    0  0.10942077476E+02 -0.73431433444E+02  0.51032897934E+02  0.90090294420E+02  0.00000000000E+00 0.  1.
         12    1    4    4    0    0 -0.40142262056E+02 -0.35880892796E+01  0.37383496893E+02  0.54970914378E+02  0.00000000000E+00 0. -1.
         -5    1    5    5    0  502  0.10358289957E+03  0.24542141863E+02  0.19841368308E+02  0.10838590179E+03  0.47000000000E+01 0.  1.
         13    1    6    6    0    0  0.54050791720E+01 -0.12596506798E+02 -0.24216700732E+02  0.27826883741E+02  0.00000000000E+00 0. -1.
        -14    1    6    6    0    0 -0.34781574801E+02  0.10928669057E+02  0.42824458606E+02  0.56241692791E+02  0.00000000000E+00 0.  1.
</event>
<event>
12    1  0.8331241E-002  0.2751121E+03  0.7818608E-02  0.1098571E+00
         21   -1    0    0  503  502  0.00000000000E+00  0.00000000000E+00  0.10090764558E+04  0.10090764558E+04  0.00000000000E+00 0.  1.
         21   -1    0    0  501  503 -0.00000000000E+00 -0.00000000000E+00 -0.96274522653E+02  0.96274522653E+02  0.00000000000E+00 0. -1.
          6    2    1    2  501    0 -0.20166341748E+03 -0.76400779482E+02  0.71916541307E+03  0.76999062401E+03  0.17082580791E+03 0.  0.
         24    2    3    3    0    0 -0.58759408413E+02 -0.84673224802E+02  0.38362667973E+03  0.40516419853E+03  0.79789568806E+02 0.  0.
         -6    2    1    2    0  502  0.20166341748E+03  0.76400779482E+02  0.19363652006E+03  0.33536035443E+03  0.16871944870E+03 0.  0.
        -24    2    5    5    0    0  0.21750876097E+03  0.50330309216E+02  0.14545781219E+03  0.27814128224E+03  0.79758364036E+02 0.  0.
          5    1    3    3  501    0 -0.14290400906E+03  0.82724453199E+01  0.33553873334E+03  0.36482642548E+03  0.47000000000E+01 0. -1.
        -11    1    4    4    0    0 -0.74228942226E+02 -0.75542810044E+02  0.36133142022E+03  0.37653292984E+03  0.00000000000E+00 0.  1.
         12    1    4    4    0    0  0.15469533813E+02 -0.91304147576E+01  0.22295259508E+02  0.28631268686E+02  0.00000000000E+00 0. -1.
         -5    1    5    5    0  502 -0.15845343492E+02  0.26070470266E+02  0.48178707875E+02  0.57219072194E+02  0.47000000000E+01 0.  1.
         11    1    6    6    0    0  0.18453749991E+03  0.21086772132E+02  0.87462739106E+02  0.20530092928E+03  0.00000000000E+00 0. -1.
        -12    1    6    6    0    0  0.32971261061E+02  0.29243537085E+02  0.57995073079E+02  0.72840352955E+02  0.00000000000E+00 0.  1.
</event>
<event>
12    1  0.8331241E-002  0.2118168E+03  0.7818608E-02  0.1140475E+00
         21   -1    0    0  503  502  0.00000000000E+00  0.00000000000E+00  0.17403464553E+03  0.17403464553E+03  0.00000000000E+00 0.  1.
         21   -1    0    0  501  503 -0.00000000000E+00 -0.00000000000E+00 -0.26353166766E+03  0.26353166766E+03  0.00000000000E+00 0. -1.
          6    2    1    2  501    0 -0.10199673537E+03  0.62859867894E+02 -0.72130225598E+01  0.21193956481E+03  0.17467585529E+03 0.  0.
         24    2    3    3    0    0  0.63040112415E+01  0.20505700930E+01  0.13383724956E+02  0.85950920781E+02  0.84643318071E+02 0.  0.
         -6    2    1    2    0  502  0.10199673537E+03 -0.62859867894E+02 -0.82283999569E+02  0.22562674838E+03  0.17257484168E+03 0.  0.
        -24    2    5    5    0    0  0.11647614464E+03 -0.35771984865E+02 -0.11065678454E+03  0.18354930043E+03  0.81234811205E+02 0.  0.
          5    1    3    3  501    0 -0.10830074662E+03  0.60809297801E+02 -0.20596747515E+02  0.12598864403E+03  0.47000000000E+01 0. -1.
        -11    1    4    4    0    0 -0.11910386764E+02 -0.33621463314E+02 -0.13027914404E+02  0.37973499469E+02  0.00000000000E+00 0.  1.
         12    1    4    4    0    0  0.18214398006E+02  0.35672033407E+02  0.26411639360E+02  0.47977421312E+02  0.00000000000E+00 0. -1.
         -5    1    5    5    0  502 -0.14479409265E+02 -0.27087883030E+02  0.28372784969E+02  0.42077447957E+02  0.47000000000E+01 0.  1.
         11    1    6    6    0    0  0.11155152209E+02  0.22367294290E+02 -0.28298945688E+02  0.37756636526E+02  0.00000000000E+00 0. -1.
        -12    1    6    6    0    0  0.10532099243E+03 -0.58139279155E+02 -0.82357838849E+02  0.14579266390E+03  0.00000000000E+00 0.  1.
</event>
<event>
12    1  0.8331241E-002  0.2067497E+03  0.7818608E-02  0.1145359E+00
         21   -1    0    0  501  502  0.00000000000E+00  0.00000000000E+00  0.58172253114E+03  0.58172253114E+03  0.00000000000E+00 0. -1.
         21   -1    0    0  502  503 -0.00000000000E+00 -0.00000000000E+00 -0.85956684829E+02  0.85956684829E+02  0.00000000000E+00 0. -1.
         -6    2    1    2    0  503  0.13250827744E+01  0.11263026919E+03  0.10770482147E+03  0.22797841370E+03  0.16639259347E+03 0.  0.
        -24    2    3    3    0    0  0.37751170714E+02  0.99209937124E+02  0.12755361219E+03  0.18412605129E+03  0.79779171889E+02 0.  0.
          6    2    1    2  501    0 -0.13250827744E+01 -0.11263026919E+03  0.38806102484E+03  0.43970080227E+03  0.17337272893E+03 0.  0.
         24    2    5    5    0    0  0.61541956129E+02 -0.10087514750E+03  0.26848597598E+03  0.30401465789E+03  0.79856027746E+02 0.  0.
          5    1    5    5  501    0 -0.62867038903E+02 -0.11755121685E+02  0.11957504886E+03  0.13568614438E+03  0.47000000000E+01 0. -1.
        -13    1    6    6    0    0  0.28604428000E+02  0.72619254870E+01  0.51930898368E+02  0.59730788278E+02  0.00000000000E+00 0.  1.
         14    1    6    6    0    0  0.32937528129E+02 -0.10813707299E+03  0.21655507761E+03  0.24428386961E+03  0.00000000000E+00 0. -1.
         -5    1    3    3    0  503 -0.36426087940E+02  0.13420332066E+02 -0.19848790722E+02  0.43852362405E+02  0.47000000000E+01 0.  1.
         13    1    4    4    0    0  0.48255355273E+02  0.61200428462E+02  0.38915890095E+02  0.87112101675E+02  0.00000000000E+00 0. -1.
        -14    1    4    4    0    0 -0.10504184559E+02  0.38009508662E+02  0.88637722097E+02  0.97013949618E+02  0.00000000000E+00 0.  1.
</event>
<event>
12    1  0.8331241E-002  0.3827412E+03  0.7818608E-02  0.1049960E+00
         21   -1    0    0  503  502  0.00000000000E+00  0.00000000000E+00  0.11919194840E+04  0.11919194840E+04  0.00000000000E+00 0.  1.
         21   -1    0    0  501  503 -0.00000000000E+00 -0.00000000000E+00 -0.12715737421E+03  0.12715737421E+03  0.00000000000E+00 0. -1.
          6    2    1    2  501    0 -0.22596866921E+03  0.25659532486E+03  0.41028589558E+03  0.56109300189E+03  0.17201116375E+03 0.  0.
         24    2    3    3    0    0 -0.13621509773E+03  0.15486520557E+03  0.34584007119E+03  0.41082632213E+03  0.81456291168E+02 0.  0.
         -6    2    1    2    0  502  0.22596866921E+03 -0.25659532486E+03  0.65447621423E+03  0.75798385635E+03  0.17116486579E+03 0.  0.
        -24    2    5    5    0    0  0.87092273378E+02 -0.14810530699E+03  0.44832730469E+03  0.48673452418E+03  0.79955480456E+02 0.  0.
          5    1    3    3  501    0 -0.89753571474E+02  0.10173011929E+03  0.64445824386E+02  0.15026667975E+03  0.47000000000E+01 0. -1.
        -13    1    4    4    0    0 -0.56208032817E+02  0.94456856881E+02  0.11460502853E+03  0.15879468924E+03  0.00000000000E+00 0.  1.
         14    1    4    4    0    0 -0.80007064916E+02  0.60408348687E+02  0.23123504266E+03  0.25203163290E+03  0.00000000000E+00 0. -1.
         -5    1    5    5    0  502  0.13887639583E+03 -0.10849001787E+03  0.20614890955E+03  0.27124933217E+03  0.47000000000E+01 0.  1.
         11    1    6    6    0    0  0.21131577254E+02 -0.31285411694E+02  0.32544762592E+02  0.49844579588E+02  0.00000000000E+00 0. -1.
        -12    1    6    6    0    0  0.65960696124E+02 -0.11681989530E+03  0.41578254210E+03  0.43688994459E+03  0.00000000000E+00 0.  1.
</event>
<event>
12    1  0.8331241E-002  0.2018124E+03  0.7818608E-02  0.1150474E+00
         21   -1    0    0  503  502  0.00000000000E+00  0.00000000000E+00  0.66851702699E+03  0.66851702699E+03  0.00000000000E+00 0. -1.
         21   -1    0    0  501  503 -0.00000000000E+00 -0.00000000000E+00 -0.59234167103E+02  0.59234167103E+02  0.00000000000E+00 0. -1.
          6    2    1    2  501    0 -0.69373368437E+02 -0.48744499881E+02  0.23993264085E+03  0.30686188256E+03  0.17148717824E+03 0.  0.
         24    2    3    3    0    0 -0.69663745705E+02 -0.83065059783E+02  0.11637015307E+03  0.17853509837E+03  0.81116750451E+02 0.  0.
         -6    2    1    2    0  502  0.69373368437E+02  0.48744499881E+02  0.36935021904E+03  0.42088931154E+03  0.18313802923E+03 0.  0.
        -24    2    5    5    0    0  0.11337725611E+02  0.29840319453E+02  0.56791573225E+02  0.10239205732E+03  0.78992796666E+02 0.  0.
          5    1    3    3  501    0  0.29037726787E+00  0.34320559902E+02  0.12356248778E+03  0.12832678418E+03  0.47000000000E+01 0. -1.
        -13    1    4    4    0    0 -0.43327598873E+01 -0.43779060777E+02  0.60050459186E+01  0.44400895793E+02  0.00000000000E+00 0.  1.
         14    1    4    4    0    0 -0.65330985817E+02 -0.39285999007E+02  0.11036510715E+03  0.13413420258E+03  0.00000000000E+00 0. -1.
         -5    1    5    5    0  502  0.58035642826E+02  0.18904180429E+02  0.31255864581E+03  0.31849725422E+03  0.47000000000E+01 0.  1.
         11    1    6    6    0    0  0.14336350984E+02  0.39358856892E+01  0.71106453760E+02  0.72643994397E+02  0.00000000000E+00 0. -1.
        -12    1    6    6    0    0 -0.29986253725E+01  0.25904433763E+02 -0.14314880535E+02  0.29748062919E+02  0.00000000000E+00 0.  1.
</event>
<event>
12    1  0.8331241E-002  0.1895397E+03  0.7818608E-02  0.1159099E+00
         21   -1    0    0  503  502  0.00000000000E+00  0.00000000000E+00  0.76807272802E+02  0.76807272802E+02  0.00000000000E+00 0. -1.
         21   -1    0    0  501  503 -0.00000000000E+00 -0.00000000000E+00 -0.50847087277E+03  0.50847087277E+03  0.00000000000E+00 0. -1.
          6    2    1    2  501    0  0.54253890687E+02 -0.58478401598E+02 -0.13109501659E+03  0.23045866832E+03  0.17193628564E+03 0.  0.
         24    2    3    3    0    0  0.80902640414E+02 -0.92235336225E+02 -0.10854388943E+03  0.18167004430E+03  0.78547021514E+02 0.  0.
         -6    2    1    2    0  502 -0.54253890687E+02  0.58478401598E+02 -0.30056858338E+03  0.35481947726E+03  0.17085719188E+03 0.  0.
        -24    2    5    5    0    0  0.72156636964E+01 -0.81478210089E+01 -0.21656103051E+03  0.23113876496E+03  0.80049959040E+02 0.  0.
          5    1    3    3  501    0 -0.26648749727E+02  0.33756934627E+02 -0.22551127165E+02  0.48788624021E+02  0.47000000000E+01 0. -1.
        -11    1    4    4    0    0  0.53637610691E+02 -0.37573128717E+02 -0.10064665278E+03  0.12007698363E+03  0.00000000000E+00 0.  1.
         12    1    4    4    0    0  0.27265029723E+02 -0.54662207508E+02 -0.78972366453E+01  0.61593060665E+02  0.00000000000E+00 0. -1.
         -5    1    5    5    0  502 -0.61469554383E+02  0.66626222607E+02 -0.84007552870E+02  0.12368071230E+03  0.47000000000E+01 0.  1.
         11    1    6    6    0    0  0.62426390617E+01 -0.33327562001E+02 -0.38495546157E+02  0.51299161839E+02  0.00000000000E+00 0. -1.
        -12    1    6    6    0    0  0.97302463475E+00  0.25179740992E+02 -0.17806548435E+03  0.17983960312E+03  0.00000000000E+00 0.  1.
</event>
<event>
12    1  0.8331241E-002  0.1757870E+03  0.7818608E-02  0.1172229E+00
         21   -1    0    0  503  502  0.00000000000E+00  0.00000000000E+00  0.32259984597E+03  0.32259984597E+03  0.00000000000E+00 0. -1.
         21   -1    0    0  501  503 -0.00000000000E+00 -0.00000000000E+00 -0.10498166249E+03  0.10498166249E+03  0.00000000000E+00 0. -1.
          6    2    1    2  501    0  0.31753906982E+02  0.17340081199E+02  0.43123258994E+02  0.17989311724E+03  0.17085938411E+03 0.  0.
         24    2    3    3    0    0  0.48560740375E+01 -0.24793370297E+02 -0.32058870812E+02  0.89487565451E+02  0.79636427009E+02 0.  0.
         -6    2    1    2    0  502 -0.31753906982E+02 -0.17340081199E+02  0.17449492449E+03  0.24768839122E+03  0.17202346191E+03 0.  0.
        -24    2    5    5    0    0  0.22613832212E+02 -0.22828574243E+02  0.26104074247E+02  0.89486276643E+02  0.79333736870E+02 0.  0.
          5    1    3    3  501    0  0.26897832945E+02  0.42133451496E+02  0.75182129806E+02  0.90405551789E+02  0.47000000000E+01 0. -1.
        -11    1    4    4    0    0  0.30240550388E+02 -0.19953875348E+02 -0.47226813873E+02  0.59523272573E+02  0.00000000000E+00 0.  1.
         12    1    4    4    0    0 -0.25384476351E+02 -0.48394949494E+01  0.15167943061E+02  0.29964292878E+02  0.00000000000E+00 0. -1.
         -5    1    5    5    0  502 -0.54367739194E+02  0.54884930437E+01  0.14839085024E+03  0.15820211458E+03  0.47000000000E+01 0.  1.
         11    1    6    6    0    0  0.44736323873E+02 -0.34897715478E+02  0.29682155858E+02  0.64032957105E+02  0.00000000000E+00 0. -1.
        -12    1    6    6    0    0 -0.22122491661E+02  0.12069141236E+02 -0.35780816103E+01  0.25453319538E+02  0.00000000000E+00 0.  1.
</event>
<event>
12    1  0.8331241E-002  0.2258288E+03  0.7818608E-02  0.1130331E+00
         21   -1    0    0  503  502  0.00000000000E+00  0.00000000000E+00  0.11369514467E+03  0.11369514467E+03  0.00000000000E+00 0.  1.
         21   -1    0    0  501  503 -0.00000000000E+00 -0.00000000000E+00 -0.48302567491E+03  0.48302567491E+03  0.00000000000E+00 0.  1.
          6    2    1    2  501    0 -0.13203183903E+03  0.49639419739E+02 -0.97860377076E+02  0.24612049663E+03  0.17635806460E+03 0.  0.
         24    2    3    3    0    0 -0.80010964647E+02  0.87037092967E+02 -0.19193947469E+02  0.14455645535E+03  0.80937946276E+02 0.  0.
         -6    2    1    2    0  502  0.13203183903E+03 -0.49639419739E+02 -0.27147015317E+03  0.35060032295E+03  0.17125438355E+03 0.  0.
        -24    2    5    5    0    0  0.79580989174E+02  0.12147760269E+02 -0.68616029794E+02  0.13210402405E+03  0.79136664759E+02 0.  0.
          5    1    3    3  501    0 -0.52020874387E+02 -0.37397673228E+02 -0.78666429608E+02  0.10156404128E+03  0.47000000000E+01 0. -1.
        -11    1    4    4    0    0 -0.88313389339E+02  0.43258840694E+02 -0.18058312686E+02  0.99983422085E+02  0.00000000000E+00 0.  1.
         12    1    4    4    0    0  0.83024246920E+01  0.43778252273E+02 -0.11356347822E+01  0.44573033263E+02  0.00000000000E+00 0. -1.
         -5    1    5    5    0  502  0.52450849860E+02 -0.61787180008E+02 -0.20285412337E+03  0.21849629890E+03  0.47000000000E+01 0.  1.
         11    1    6    6    0    0  0.71551634677E+00  0.46061389747E+01 -0.50654109698E+02  0.50868136483E+02  0.00000000000E+00 0. -1.
        -12    1    6    6    0    0  0.78865472827E+02  0.75416212942E+01 -0.17961920096E+02  0.81235887571E+02  0.00000000000E+00 0.  1.
</event>
<event>
12    1  0.8331241E-002  0.1981696E+03  0.7818608E-02  0.1152254E+00
         21   -1    0    0  503  502  0.00000000000E+00  0.00000000000E+00  0.36219658416E+03  0.36219658416E+03  0.00000000000E+00 0.  1.
         21   -1    0    0  501  503 -0.00000000000E+00 -0.00000000000E+00 -0.24026502938E+03  0.24026502938E+03  0.00000000000E+00 0. -1.
          6    2    1    2  501    0  0.85945123363E+02  0.35446475505E+02 -0.16451248634E+03  0.25414940340E+03  0.16995453578E+03 0.  0.
         24    2    3    3    0    0  0.28852270071E+02 -0.58118303685E+01 -0.40911510671E+01  0.78881218863E+02  0.73070365483E+02 0.  0.
         -6    2    1    2    0  502 -0.85945123363E+02 -0.35446475505E+02  0.28644404111E+03  0.34831221015E+03  0.17500911460E+03 0.  0.
        -24    2    5    5    0    0 -0.11515941989E+03  0.71605704739E+01  0.16487854414E+03  0.21614150408E+03  0.78862219777E+02 0.  0.
          5    1    3    3  501    0  0.57092853292E+02  0.41258305873E+02 -0.16042133527E+03  0.17526818453E+03  0.47000000000E+01 0. -1.
        -13    1    4    4    0    0 -0.11213612996E+02  0.43297077349E+01 -0.28465610966E+02  0.30899554902E+02  0.00000000000E+00 0.  1.
         14    1    4    4    0    0  0.40065883067E+02 -0.10141538103E+02  0.24374459899E+02  0.47981663961E+02  0.00000000000E+00 0. -1.
         -5    1    5    5    0  502  0.29214296528E+02 -0.42607045979E+02  0.12156549697E+03  0.13217070607E+03  0.47000000000E+01 0.  1.
         13    1    6    6    0    0  0.15439850852E+01  0.14442092583E+02  0.65039087275E+00  0.14538945505E+02  0.00000000000E+00 0. -1.
        -14    1    6    6    0    0 -0.11670340498E+03 -0.72815221091E+01  0.16422815327E+03  0.20160255858E+03  0.00000000000E+00 0.  1.
</event>
<event>
12    1  0.8331241E-002  0.2041079E+03  0.7818608E-02  0.1146546E+00
         21   -1    0    0  501  502  0.00000000000E+00  0.00000000000E+00  0.76812578060E+03  0.76812578060E+03  0.00000000000E+00 0. -1.
         21   -1    0    0  502  503 -0.00000000000E+00 -0.00000000000E+00 -0.56184995968E+02  0.56184995968E+02  0.00000000000E+00 0.  1.
         -6    2    1    2    0  503 -0.24635653483E+02  0.10622767938E+03  0.43737482863E+03  0.48219018956E+03  0.17122909480E+03 0.  0.
        -24    2    3    3    0    0 -0.11434861143E+01  0.10054519409E+03  0.43928286844E+03  0.45749397158E+03  0.78871109481E+02 0.  0.
          6    2    1    2  501    0  0.24635653483E+02 -0.10622767938E+03  0.27456595600E+03  0.34212058701E+03  0.17253636303E+03 0.  0.
         24    2    5    5    0    0 -0.11744373866E+01 -0.84382382697E+02  0.69846664742E+02  0.13457431267E+03  0.78165997986E+02 0.  0.
          5    1    5    5  501    0  0.25810090870E+02 -0.21845296678E+02  0.20471929126E+03  0.20754627434E+03  0.47000000000E+01 0. -1.
        -11    1    6    6    0    0 -0.29388240736E+02 -0.82609708901E+01  0.34397664734E+02  0.45990343256E+02  0.00000000000E+00 0.  1.
         12    1    6    6    0    0  0.28213803350E+02 -0.76121411807E+02  0.35449000008E+02  0.88583969410E+02  0.00000000000E+00 0. -1.
         -5    1    3    3    0  503 -0.23492167369E+02  0.56824852872E+01 -0.19080398131E+01  0.24696217983E+02  0.47000000000E+01 0.  1.
         11    1    4    4    0    0 -0.35959785072E+01 -0.13335153308E+02  0.42813575924E+02  0.44986216318E+02  0.00000000000E+00 0. -1.
        -12    1    4    4    0    0  0.24524923929E+01  0.11388034740E+03  0.39646929252E+03  0.41250775526E+03  0.00000000000E+00 0.  1.
</event>
<event>
12    1  0.8331241E-002  0.2068678E+03  0.7818608E-02  0.1144742E+00
         21   -1    0    0  503  502  0.00000000000E+00  0.00000000000E+00  0.46027899169E+02  0.46027899169E+02  0.00000000000E+00 0.  1.
         21   -1    0    0  501  503 -0.00000000000E+00 -0.00000000000E+00 -0.11800097344E+04  0.11800097344E+04  0.00000000000E+00 0. -1.
          6    2    1    2  501    0 -0.11108749287E+03  0.21290305064E+02 -0.85396846295E+03  0.87789720537E+03  0.16925619435E+03 0.  0.
         24    2    3    3    0    0 -0.62202787416E+02  0.62445213682E+02 -0.34347374050E+03  0.36339706681E+03  0.79464622814E+02 0.  0.
         -6    2    1    2    0  502  0.11108749287E+03 -0.21290305064E+02 -0.28001337223E+03  0.34814042815E+03  0.17320669999E+03 0.  0.
        -24    2    5    5    0    0  0.13840002723E+03 -0.37427828023E+02 -0.26727108171E+03  0.31363173145E+03  0.79847492158E+02 0.  0.
          5    1    3    3  501    0 -0.48884705452E+02 -0.41154908618E+02 -0.51049472244E+03  0.51450013855E+03  0.47000000000E+01 0. -1.
        -11    1    4    4    0    0  0.76720100837E+01  0.45892294663E+02 -0.14858465623E+03  0.15569959060E+03  0.00000000000E+00 0.  1.
         12    1    4    4    0    0 -0.69874797499E+02  0.16552919019E+02 -0.19488908428E+03  0.20769747621E+03  0.00000000000E+00 0. -1.
         -5    1    5    5    0  502 -0.27312534360E+02  0.16137522959E+02 -0.12742290521E+02  0.34508696703E+02  0.47000000000E+01 0.  1.
         11    1    6    6    0    0  0.78188978506E+02 -0.21278992273E+02 -0.22273783963E+03  0.23701995080E+03  0.00000000000E+00 0. -1.
        -12    1    6    6    0    0  0.60211048721E+02 -0.16148835750E+02 -0.44533242081E+02  0.76611780650E+02  0.00000000000E+00 0.  1.
</event>
<event>
12    1  0.8331241E-002  0.1818243E+03  0.7818608E-02  0.1166155E+00
         21   -1    0    0  501  502  0.00000000000E+00  0.00000000000E+00  0.29613032956E+03  0.29613032956E+03  0.00000000000E+00 0. -1.
         21   -1    0    0  502  503 -0.00000000000E+00 -0.00000000000E+00 -0.12848714023E+03  0.12848714023E+03  0.00000000000E+00 0. -1.
         -6    2    1    2    0  503  0.16269062164E+02  0.55044198754E+02  0.62364997843E+01  0.18148750021E+03  0.17205892189E+03 0.  0.
        -24    2    3    3    0    0  0.76999779457E+01  0.10382367174E+03  0.15973604846E+02  0.13079462690E+03  0.77546333901E+02 0.  0.
          6    2    1    2  501    0 -0.16269062164E+02 -0.55044198754E+02  0.16140668955E+03  0.24312996959E+03  0.17252685728E+03 0.  0.
         24    2    5    5    0    0 -0.34396483618E+02  0.49415441609E+01  0.15772857287E+03  0.18018148824E+03  0.79871954166E+02 0.  0.
          5    1    5    5  501    0  0.18127421454E+02 -0.59985742915E+02  0.36781166776E+01  0.62948481347E+02  0.47000000000E+01 0. -1.
        -13    1    6    6    0    0 -0.74136311986E+01  0.12375604563E+02 -0.48436115690E+01  0.15217689998E+02  0.00000000000E+00 0.  1.
         14    1    6    6    0    0 -0.26982852420E+02 -0.74340604017E+01  0.16257218444E+03  0.16496379824E+03  0.00000000000E+00 0. -1.
         -5    1    3    3    0  503  0.85690842186E+01 -0.48779472984E+02 -0.97371050614E+01  0.50692873305E+02  0.47000000000E+01 0.  1.
         13    1    4    4    0    0  0.84596360096E+01  0.26682193154E+02  0.41042115438E+02  0.49678567940E+02  0.00000000000E+00 0. -1.
        -14    1    4    4    0    0 -0.75965806386E+00  0.77141478583E+02 -0.25068510592E+02  0.81116058963E+02  0.00000000000E+00 0.  1.
</event>
<event>
12    1  0.8331241E-002  0.2596062E+03  0.7818608E-02  0.1107458E+00
         21   -1    0    0  503  502  0.00000000000E+00  0.00000000000E+00  0.47014706239E+03  0.47014706239E+03  0.00000000000E+00 0.  1.
         21   -1    0    0  501  503 -0.00000000000E+00 -0.00000000000E+00 -0.20894851041E+03  0.20894851041E+03  0.00000000000E+00 0.  1.
          6    2    1    2  501    0  0.19421944635E+03  0.16317083734E+02 -0.60158007843E+02  0.26597887144E+03  0.17069954184E+03 0.  0.
         24    2    3    3    0    0  0.15233842531E+03  0.25762070915E+02  0.19123538672E+02  0.17569663994E+03  0.81442737138E+02 0.  0.
         -6    2    1    2    0  502 -0.19421944635E+03 -0.16317083734E+02  0.32135655982E+03  0.41311670136E+03  0.17148740433E+03 0.  0.
        -24    2    5    5    0    0 -0.43341505288E+02 -0.56463768081E+01  0.52649399888E+02  0.10472791284E+03  0.79281831262E+02 0.  0.
          5    1    3    3  501    0  0.41881021039E+02 -0.94449871811E+01 -0.79281546515E+02  0.90282231496E+02  0.47000000000E+01 0. -1.
        -13    1    4    4    0    0  0.81238218381E+01 -0.47244738117E+01 -0.20935858326E+02  0.22948361552E+02  0.00000000000E+00 0.  1.
         14    1    4    4    0    0  0.14421460347E+03  0.30486544727E+02  0.40059396998E+02  0.15274827839E+03  0.00000000000E+00 0. -1.
         -5    1    5    5    0  502 -0.15087794106E+03 -0.10670706926E+02  0.26870715994E+03  0.30838878852E+03  0.47000000000E+01 0.  1.
         13    1    6    6    0    0 -0.21603389719E+02  0.20247605426E+02  0.62798461850E+02  0.69428515637E+02  0.00000000000E+00 0. -1.
        -14    1    6    6    0    0 -0.21738115569E+02 -0.25893982234E+02 -0.10149061963E+02  0.35299397206E+02  0.00000000000E+00 0.  1.
</event>
<event>
12    1  0.8331241E-002  0.2137978E+03  0.7818608E-02  0.1138964E+00
         21   -1    0    0  501  502  0.00000000000E+00  0.00000000000E+00  0.17925214947E+03  0.17925214947E+03  0.00000000000E+00 0. -1.
         21   -1    0    0  502  503 -0.00000000000E+00 -0.00000000000E+00 -0.25891980875E+03  0.25891980875E+03  0.00000000000E+00 0. -1.
         -6    2    1    2    0  503  0.61935387231E+02 -0.10937648078E+03 -0.57909237915E+01  0.21197008006E+03  0.17058303932E+03 0.  0.
        -24    2    3    3    0    0  0.88199514659E+02 -0.77334386337E+02  0.44099119984E+02  0.14695003182E+03  0.76745148195E+02 0.  0.
          6    2    1    2  501    0 -0.61935387231E+02  0.10937648078E+03 -0.73876735491E+02  0.22620187815E+03  0.17294597681E+03 0.  0.
         24    2    5    5    0    0 -0.80513976221E+02  0.50430389368E+02 -0.99324669098E+02  0.15919819925E+03  0.80330269596E+02 0.  0.
          5    1    5    5  501    0  0.18578588991E+02  0.58946091414E+02  0.25447933608E+02  0.67003678905E+02  0.47000000000E+01 0. -1.
        -11    1    6    6    0    0 -0.53991501926E+02 -0.85739890763E+01 -0.23439839196E+02  0.59481271258E+02  0.00000000000E+00 0.  1.
         12    1    6    6    0    0 -0.26522474295E+02  0.59004378444E+02 -0.75884829902E+02  0.99716927989E+02  0.00000000000E+00 0. -1.
         -5    1    3    3    0  503 -0.26264127428E+02 -0.32042094445E+02 -0.49890043775E+02  0.65020048245E+02  0.47000000000E+01 0.  1.
         11    1    4    4    0    0  0.83209109908E+00 -0.87326045002E+00 -0.16117362549E+02  0.16162435922E+02  0.00000000000E+00 0. -1.
        -12    1    4    4    0    0  0.87367423560E+02 -0.76461125887E+02  0.60216482532E+02  0.13078759589E+03  0.00000000000E+00 0.  1.
</event>
<event>
12    1  0.8331241E-002  0.2601416E+03  0.7818608E-02  0.1107615E+00
         21   -1    0    0  501  502  0.00000000000E+00  0.00000000000E+00  0.89483220942E+03  0.89483220942E+03  0.00000000000E+00 0.  1.
         21   -1    0    0  502  503 -0.00000000000E+00 -0.00000000000E+00 -0.12685387399E+03  0.12685387399E+03  0.00000000000E+00 0.  1.
         -6    2    1    2    0  503  0.17598223630E+03  0.72667555408E+02  0.54397384136E+02  0.26216555133E+03  0.17181786810E+03 0.  0.
        -24    2    3    3    0    0  0.93492123848E+02 -0.16946404326E+02  0.63086782924E+02  0.13996540369E+03  0.81132078791E+02 0.  0.
          6    2    1    2  501    0 -0.17598223630E+03 -0.72667555408E+02  0.71358095129E+03  0.75952053208E+03  0.17726630673E+03 0.  0.
         24    2    5    5    0    0 -0.18943683974E+03 -0.21991165987E+02  0.54863174790E+03  0.58637477701E+03  0.80427959556E+02 0.  0.
          5    1    5    5  501    0  0.13454603442E+02 -0.50676389421E+02  0.16494920339E+03  0.17314575507E+03  0.47000000000E+01 0. -1.
        -13    1    6    6    0    0 -0.18807729414E+03 -0.18673217845E+02  0.55070342215E+03  0.58223364452E+03  0.00000000000E+00 0.  1.
         14    1    6    6    0    0 -0.13595456027E+01 -0.33179481419E+01 -0.20716742542E+01  0.41411324941E+01  0.00000000000E+00 0. -1.
         -5    1    3    3    0  503  0.82490112453E+02  0.89613959735E+02 -0.86893987876E+01  0.12220014764E+03  0.47000000000E+01 0.  1.
         13    1    4    4    0    0  0.34885045579E+02 -0.40987936244E+02  0.50630879372E+01  0.54061189240E+02  0.00000000000E+00 0. -1.
        -14    1    4    4    0    0  0.58607078269E+02  0.24041531918E+02  0.58023694987E+02  0.85904214449E+02  0.00000000000E+00 0.  1.
</event>
<event>
12    1  0.8331241E-002  0.2014013E+03  0.7818608E-02  0.1148877E+00
         21   -1    0    0  503  502  0.00000000000E+00  0.00000000000E+00  0.27121548788E+02  0.27121548788E+02  0.00000000000E+00 0. -1.
         21   -1    0    0  501  503 -0.00000000000E+00 -0.00000000000E+00 -0.18092821876E+04  0.18092821876E+04  0.00000000000E+00 0. -1.
          6    2    1    2  501    0  0.18251643701E+02  0.98804924278E+02 -0.12828705851E+04  0.12985836244E+04  0.17454786144E+03 0.  0.
         24    2    3    3    0    0  0.57091468084E+02  0.19069415037E+01 -0.71905333421E+03  0.72516428971E+03  0.74582018399E+02 0.  0.
         -6    2    1    2    0  502 -0.18251643701E+02 -0.98804924278E+02 -0.49929005375E+03  0.53782011201E+03  0.17281313477E+03 0.  0.
        -24    2    5    5    0    0  0.48139404467E+02 -0.71316092084E+02 -0.38559331431E+03  0.40323762529E+03  0.80715495143E+02 0.  0.
          5    1    3    3  501    0 -0.38839824384E+02  0.96897982774E+02 -0.56381725085E+03  0.57341933468E+03  0.47000000000E+01 0. -1.
        -13    1    4    4    0    0 -0.10578872361E+02 -0.89150418310E+00 -0.33612186264E+03  0.33628947927E+03  0.00000000000E+00 0.  1.
         14    1    4    4    0    0  0.67670340445E+02  0.27984456868E+01 -0.38293147157E+03  0.38887481044E+03  0.00000000000E+00 0. -1.
         -5    1    5    5    0  502 -0.66391048167E+02 -0.27488832194E+02 -0.11369673945E+03  0.13458248672E+03  0.47000000000E+01 0.  1.
         11    1    6    6    0    0 -0.14755066870E+02 -0.39667750776E+02 -0.91202015693E+02  0.10054377214E+03  0.00000000000E+00 0. -1.
        -12    1    6    6    0    0  0.62894471336E+02 -0.31648341308E+02 -0.29439129862E+03  0.30269385315E+03  0.00000000000E+00 0.  1.
</event>
<event>
12    1  0.8331241E-002  0.1894375E+03  0.7818608E-02  0.1160090E+00
         21   -1    0    0  501  502  0.00000000000E+00  0.00000000000E+00  0.12694527876E+03  0.12694527876E+03  0.00000000000E+00 0. -1.
         21   -1    0    0  502  503 -0.00000000000E+00 -0.00000000000E+00 -0.33225523598E+03  0.33225523598E+03  0.00000000000E+00 0. -1.
         -6    2    1    2    0  503 -0.10472365057E+01  0.68988225614E+02 -0.19868752522E+03  0.27452379307E+03  0.17642592866E+03 0.  0.
        -24    2    3    3    0    0 -0.53866428947E+02  0.11899376502E+02 -0.14722671693E+03  0.18114655509E+03  0.89973223306E+02 0.  0.
          6    2    1    2  501    0  0.10472365057E+01 -0.68988225614E+02 -0.66224319980E+01  0.18467672167E+03  0.17117582465E+03 0.  0.
         24    2    5    5    0    0  0.26508381111E+02 -0.10901327887E+02  0.51027435925E+02  0.98839929774E+02  0.79649226499E+02 0.  0.
          5    1    5    5  501    0 -0.25461144605E+02 -0.58086897727E+02 -0.57649867922E+02  0.85836791900E+02  0.47000000000E+01 0. -1.
        -13    1    6    6    0    0 -0.93865645602E+01  0.10806012761E+02 -0.14923797341E+02  0.20678424338E+02  0.00000000000E+00 0.  1.
         14    1    6    6    0    0  0.35894945671E+02 -0.21707340648E+02  0.65951233265E+02  0.78161505436E+02  0.00000000000E+00 0. -1.
         -5    1    3    3    0  503  0.52819192441E+02  0.57088849113E+02 -0.51460808287E+02  0.93377237980E+02  0.47000000000E+01 0.  1.
         13    1    4    4    0    0 -0.27303478360E+02  0.50686962916E+02 -0.93004048691E+02  0.10938190533E+03  0.00000000000E+00 0. -1.
        -14    1    4    4    0    0 -0.26562950587E+02 -0.38787586414E+02 -0.54222668241E+02  0.71764649758E+02  0.00000000000E+00 0.  1.
</event>
<event>
12    1  0.8331241E-002  0.1833772E+03  0.7818608E-02  0.1164584E+00
         21   -1    0    0  503  502  0.00000000000E+00  0.00000000000E+00  0.36071636656E+02  0.36071636656E+02  0.00000000000E+00 0. -1.
         21   -1    0    0  501  503 -0.00000000000E+00 -0.00000000000E+00 -0.10547159203E+04  0.10547159203E+04  0.00000000000E+00 0. -1.
          6    2    1    2  501    0 -0.43315579598E+02 -0.45694825554E+02 -0.69539475003E+03  0.71916692409E+03  0.17222935237E+03 0.  0.
         24    2    3    3    0    0  0.42354016504E+02 -0.16693463124E+02 -0.37888159976E+03  0.38995115440E+03  0.80237782592E+02 0.  0.
         -6    2    1    2    0  502  0.43315579598E+02  0.45694825554E+02 -0.32324953366E+03  0.37162063291E+03  0.17218413770E+03 0.  0.
        -24    2    5    5    0    0  0.86668045060E+02  0.60759348383E+02 -0.20171293842E+03  0.24162213256E+03  0.80561138080E+02 0.  0.
          5    1    3    3  501    0 -0.85669596103E+02 -0.29001362430E+02 -0.31651315027E+03  0.32921576969E+03  0.47000000000E+01 0. -1.
        -13    1    4    4    0    0  0.33068274130E+02  0.13120766901E+02 -0.61589718408E+02  0.71126357221E+02  0.00000000000E+00 0.  1.
         14    1    4    4    0    0  0.92857423740E+01 -0.29814230024E+02 -0.31729188135E+03  0.31882479718E+03  0.00000000000E+00 0. -1.
         -5    1    5    5    0  502 -0.43352465462E+02 -0.15064522829E+02 -0.12153659524E+03  0.12999850035E+03  0.47000000000E+01 0.  1.
         11    1    6    6    0    0  0.86284931434E+02  0.74287806989E+02 -0.15088928141E+03  0.18902736020E+03  0.00000000000E+00 0. -1.
        -12    1    6    6    0    0  0.38311362631E+00 -0.13528458607E+02 -0.50823657005E+02  0.52594772360E+02  0.00000000000E+00 0.  1.
</event>
<event>
12    1  0.8331241E-002  0.2271864E+03  0.7818608E-02  0.1129382E+00
         21   -1    0    0  503  502  0.00000000000E+00  0.00000000000E+00  0.14457837102E+04  0.14457837102E+04  0.00000000000E+00 0.  1.
         21   -1    0    0  501  503 -0.00000000000E+00 -0.00000000000E+00 -0.37979106085E+02  0.37979106085E+02  0.00000000000E+00 0. -1.
          6    2    1    2  501    0 -0.14431438365E+03  0.36879151173E+02  0.91579255692E+03  0.94355162368E+03  0.17154284048E+03 0.  0.
         24    2    3    3    0    0 -0.94150099701E+02 -0.44704194902E+02  0.51516270184E+03  0.53160664128E+03  0.79688803311E+02 0.  0.
         -6    2    1    2    0  502  0.14431438365E+03 -0.36879151173E+02  0.49201204717E+03  0.54021119259E+03  0.16602880747E+03 0.  0.
        -24    2    5    5    0    0  0.73035086880E+02 -0.50203332186E+02  0.15885187653E+03  0.19921843423E+03  0.81237721418E+02 0.  0.
          5    1    3    3  501    0 -0.50164283950E+02  0.81583346075E+02  0.40062985509E+03  0.41194498241E+03  0.47000000000E+01 0. -1.
        -11    1    4    4    0    0 -0.15142731542E+02 -0.17944887812E+02  0.29879468481E+03  0.29971584041E+03  0.00000000000E+00 0.  1.
         12    1    4    4    0    0 -0.79007368159E+02 -0.26759307090E+02  0.21636801702E+03  0.23189080087E+03  0.00000000000E+00 0. -1.
         -5    1    5    5    0  502  0.71279296771E+02  0.13324181013E+02  0.33316017064E+03  0.34099275836E+03  0.47000000000E+01 0.  1.
         11    1    6    6    0    0  0.71929008271E+02 -0.20806439247E+01  0.99696898696E+02  0.12295358034E+03  0.00000000000E+00 0. -1.
        -12    1    6    6    0    0  0.11060786091E+01 -0.48122688261E+02  0.59154977835E+02  0.76264853884E+02  0.00000000000E+00 0.  1.
</event>
<event>
12    1  0.8331241E-002  0.3111493E+03  0.7818608E-02  0.1079810E+00
         21   -1    0    0  501  502  0.00000000000E+00  0.00000000000E+00  0.49357024663E+03  0.49357024663E+03  0.00000000000E+00 0.  1.
         21   -1    0    0  502  503 -0.00000000000E+00 -0.00000000000E+00 -0.28521976213E+03  0.28521976213E+03  0.00000000000E+00 0.  1.
         -6    2    1    2    0  503  0.15489599512E+03 -0.20809220399E+03 -0.11353327832E+03  0.33110367312E+03  0.17159458734E+03 0.  0.
        -24    2    3    3    0    0  0.27351430660E+02 -0.80943648480E+02 -0.94729816519E+02  0.14996827827E+03  0.78846505073E+02 0.  0.
          6    2    1    2  501    0 -0.15489599512E+03  0.20809220399E+03  0.32188376281E+03  0.44768633564E+03  0.17181025492E+03 0.  0.
         24    2    5    5    0    0 -0.23524481724E+02  0.50215095471E+02  0.15371683316E+03  0.18219459914E+03  0.80567053461E+02 0.  0.
          5    1    5    5  501    0 -0.13137151340E+03  0.15787710852E+03  0.16816692965E+03  0.26549173651E+03  0.47000000000E+01 0. -1.
        -13    1    6    6    0    0 -0.33471915146E+02  0.86374746830E+01  0.12736863166E+03  0.13197629864E+03  0.00000000000E+00 0.  1.
         14    1    6    6    0    0  0.99474334215E+01  0.41577620788E+02  0.26348201503E+02  0.50218300493E+02  0.00000000000E+00 0. -1.
         -5    1    3    3    0  503  0.12754456446E+03 -0.12714855551E+03 -0.18803461798E+02  0.18113539485E+03  0.47000000000E+01 0.  1.
         11    1    4    4    0    0 -0.90536684402E+01 -0.76775928356E+02 -0.49666571388E+02  0.91887324482E+02  0.00000000000E+00 0. -1.
        -12    1    4    4    0    0  0.36405099100E+02 -0.41677201246E+01 -0.45063245132E+02  0.58080953792E+02  0.00000000000E+00 0.  1.
</event>
<event>
12    1  0.8331241E-002  0.1849542E+03  0.7818608E-02  0.1163207E+00
         21   -1    0    0  503  502  0.00000000000E+00  0.00000000000E+00  0.19238231594E+03  0.19238231594E+03  0.00000000000E+00 0. -1.
         21   -1    0    0  501  503 -0.00000000000E+00 -0.00000000000E+00 -0.31205343021E+03  0.31205343021E+03  0.00000000000E+00 0. -1.
          6    2    1    2  501    0  0.63856912354E+02 -0.14869729478E+02 -0.22559476170E+03  0.29172087234E+03  0.17294292914E+03 0.  0.
         24    2    3    3    0    0  0.10729757987E+03  0.10142087835E+02 -0.12679328364E+03  0.18083126657E+03  0.70765652695E+02 0.  0.
         -6    2    1    2    0  502 -0.63856912354E+02  0.14869729478E+02  0.10592364744E+03  0.21271487382E+03  0.17242095100E+03 0.  0.
        -24    2    5    5    0    0 -0.50030077671E+02  0.76416536406E+02  0.75336212409E+02  0.14245199612E+03  0.79211934646E+02 0.  0.
          5    1    3    3  501    0 -0.43440667518E+02 -0.25011817313E+02 -0.98801478062E+02  0.11088960577E+03  0.47000000000E+01 0. -1.
        -11    1    4    4    0    0  0.11187198974E+03 -0.37591492797E+01 -0.99060096692E+02  0.14947366339E+03  0.00000000000E+00 0.  1.
         12    1    4    4    0    0 -0.45744098637E+01  0.13901237115E+02 -0.27733186947E+02  0.31357603180E+02  0.00000000000E+00 0. -1.
         -5    1    5    5    0  502 -0.13826834683E+02 -0.61546806928E+02  0.30587435030E+02  0.70262877696E+02  0.47000000000E+01 0.  1.
         11    1    6    6    0    0 -0.33801267185E+02 -0.54693646328E+01  0.37556098449E+02  0.50822240639E+02  0.00000000000E+00 0. -1.
        -12    1    6    6    0    0 -0.16228810486E+02  0.81885901038E+02  0.37780113960E+02  0.91629755481E+02  0.00000000000E+00 0.  1.
</event>
<event>
12    1  0.8331241E-002  0.1910930E+03  0.7818608E-02  0.1157947E+00
         21   -1    0    0  501  502  0.00000000000E+00  0.00000000000E+00  0.22046014109E+03  0.22046014109E+03  0.00000000000E+00 0.  1.
         21   -1    0    0  502  503 -0.00000000000E+00 -0.00000000000E+00 -0.16614035030E+03  0.16614035030E+03  0.00000000000E+00 0. -1.
         -6    2    1    2    0  503  0.64061457001E+02 -0.50101620601E+02  0.42817983020E+01  0.18906484602E+03  0.17062572943E+03 0.  0.
        -24    2    3    3    0    0  0.70613886063E+02 -0.87559991677E+02  0.33816176651E+02  0.14068682007E+03  0.77434969433E+02 0.  0.
          6    2    1    2  501    0 -0.64061457001E+02  0.50101620601E+02  0.50037992487E+02  0.19753564537E+03  0.17292335828E+03 0.  0.
         24    2    5    5    0    0 -0.53493600391E+02  0.10040474156E+03  0.29001207649E+02  0.14179768803E+03  0.79516268000E+02 0.  0.
          5    1    5    5  501    0 -0.10567856610E+02 -0.50303120957E+02  0.21036784838E+02  0.55737957333E+02  0.47000000000E+01 0. -1.
        -13    1    6    6    0    0 -0.52410660479E+02  0.56225835634E+02  0.51187187292E+02  0.92349066414E+02  0.00000000000E+00 0.  1.
         14    1    6    6    0    0 -0.10829399120E+01  0.44178905923E+02 -0.22185979643E+02  0.49448621620E+02  0.00000000000E+00 0. -1.
         -5    1    3    3    0  503 -0.65524290617E+01  0.37458371076E+02 -0.29534378349E+02  0.48378025949E+02  0.47000000000E+01 0.  1.
         11    1    4    4    0    0  0.84524792985E+02 -0.67815322466E+02  0.13652248626E+02  0.10922336052E+03  0.00000000000E+00 0. -1.
        -12    1    4    4    0    0 -0.13910906922E+02 -0.19744669211E+02  0.20163928026E+02  0.31463459553E+02  0.00000000000E+00 0.  1.
</event>
<event>
12    1  0.8331241E-002  0.3977716E+03  0.7818608E-02  0.1044592E+00
         21   -1    0    0  503  502  0.00000000000E+00  0.00000000000E+00  0.19386775358E+04  0.19386775358E+04  0.00000000000E+00 0.  1.
         21   -1    0    0  501  503 -0.00000000000E+00 -0.00000000000E+00 -0.98846073398E+02  0.98846073398E+02  0.00000000000E+00 0.  1.
          6    2    1    2  501    0 -0.29720210512E+03 -0.19918256036E+03  0.49385835772E+03  0.63412801989E+03  0.17383752321E+03 0.  0.
         24    2    3    3    0    0 -0.27896591168E+03 -0.22405546811E+03  0.45731054538E+03  0.58607541457E+03  0.79552649050E+02 0.  0.
         -6    2    1    2    0  502  0.29720210512E+03  0.19918256036E+03  0.13459731047E+04  0.14033955893E+04  0.17283748997E+03 0.  0.
        -24    2    5    5    0    0  0.22296337835E+03  0.14292862039E+03  0.11896626985E+04  0.12213765590E+04  0.79511659943E+02 0.  0.
          5    1    3    3  501    0 -0.18236193437E+02  0.24872907755E+02  0.36547812341E+02  0.48052605321E+02  0.47000000000E+01 0. -1.
        -13    1    4    4    0    0 -0.27380966929E+02 -0.57634123668E+02  0.63581642717E+02  0.90077937652E+02  0.00000000000E+00 0.  1.
         14    1    4    4    0    0 -0.25158494475E+03 -0.16642134445E+03  0.39372890267E+03  0.49599747692E+03  0.00000000000E+00 0. -1.
         -5    1    5    5    0  502  0.74238726770E+02  0.56253939969E+02  0.15631040618E+03  0.18201903031E+03  0.47000000000E+01 0.  1.
         11    1    6    6    0    0  0.82545354814E+01  0.34418503309E+02  0.12843510517E+03  0.13322292208E+03  0.00000000000E+00 0. -1.
        -12    1    6    6    0    0  0.21470884287E+03  0.10851011708E+03  0.10612275933E+04  0.10881536369E+04  0.00000000000E+00 0.  1.
</event>
<event>
12    1  0.8331241E-002  0.1930545E+03  0.7818608E-02  0.1155944E+00
         21   -1    0    0  503  502  0.00000000000E+00  0.00000000000E+00  0.57445616294E+02  0.57445616294E+02  0.00000000000E+00 0.  1.
         21   -1    0    0  501  503 -0.00000000000E+00 -0.00000000000E+00 -0.10231818354E+04  0.10231818354E+04  0.00000000000E+00 0.  1.
          6    2    1    2  501    0  0.86347477208E+02  0.11854976522E+02 -0.81183558012E+03  0.83447411300E+03  0.17226029383E+03 0.  0.
         24    2    3    3    0    0  0.11287632376E+03  0.27256184971E+02 -0.76869938657E+03  0.78133469152E+03  0.78110109317E+02 0.  0.
         -6    2    1    2    0  502 -0.86347477208E+02 -0.11854976522E+02 -0.15390063901E+03  0.24615333872E+03  0.17120056129E+03 0.  0.
        -24    2    5    5    0    0 -0.95632308255E+02  0.44266004330E+02 -0.82973367008E+02  0.15511191687E+03  0.77910908090E+02 0.  0.
          5    1    3    3  501    0 -0.26528846550E+02 -0.15401208449E+02 -0.43136193543E+02  0.53139421472E+02  0.47000000000E+01 0. -1.
        -11    1    4    4    0    0  0.92000662012E+02  0.18303790912E+02 -0.36051318147E+03  0.37251698563E+03  0.00000000000E+00 0.  1.
         12    1    4    4    0    0  0.20875661745E+02  0.89523940594E+01 -0.40818620511E+03  0.40881770589E+03  0.00000000000E+00 0. -1.
         -5    1    5    5    0  502  0.92848310474E+01 -0.56120980852E+02 -0.70927271999E+02  0.91041421851E+02  0.47000000000E+01 0.  1.
         13    1    6    6    0    0 -0.93003182307E+02  0.66448762652E+01 -0.56296735433E+02  0.10891771536E+03  0.00000000000E+00 0. -1.
        -14    1    6    6    0    0 -0.26291259486E+01  0.37621128065E+02 -0.26676631575E+02  0.46194201501E+02  0.00000000000E+00 0.  1.
</event>
<event>
12    1  0.8331241E-002  0.1905277E+03  0.7818608E-02  0.1158048E+00
         21   -1    0    0  501  502  0.00000000000E+00  0.00000000000E+00  0.62387207316E+02  0.62387207316E+02  0.00000000000E+00 0.  1.
         21   -1    0    0  502  503 -0.00000000000E+00 -0.00000000000E+00 -0.60853346347E+03  0.60853346347E+03  0.00000000000E+00 0.  1.
         -6    2    1    2    0  503 -0.40278694917E+02  0.71084393781E+02 -0.34420207377E+03  0.39328377459E+03  0.17181878670E+03 0.  0.
        -24    2    3    3    0    0  0.11541638089E+02  0.75080261995E+02 -0.12425244543E+03  0.16722793440E+03  0.82196451851E+02 0.  0.
          6    2    1    2  501    0  0.40278694917E+02 -0.71084393781E+02 -0.20194418238E+03  0.27763689619E+03  0.17212039109E+03 0.  0.
         24    2    5    5    0    0 -0.19414054091E+02 -0.88496557423E+02 -0.91992121550E+02  0.15123296664E+03  0.78742070070E+02 0.  0.
          5    1    5    5  501    0  0.59692749009E+02  0.17412163642E+02 -0.10995206083E+03  0.12640392956E+03  0.47000000000E+01 0. -1.
        -11    1    6    6    0    0  0.22184219861E+02 -0.68591340618E+02 -0.42948778689E+02  0.83913700964E+02  0.00000000000E+00 0.  1.
         12    1    6    6    0    0 -0.41598273953E+02 -0.19905216805E+02 -0.49043342861E+02  0.67319265674E+02  0.00000000000E+00 0. -1.
         -5    1    3    3    0  503 -0.51820333006E+02 -0.39958682135E+01 -0.21994962835E+03  0.22605584019E+03  0.47000000000E+01 0.  1.
         13    1    4    4    0    0 -0.25989861921E+01  0.51641242679E+01 -0.86176164888E+02  0.86369869187E+02  0.00000000000E+00 0. -1.
        -14    1    4    4    0    0  0.14140624281E+02  0.69916137727E+02 -0.38076280540E+02  0.80858065210E+02  0.00000000000E+00 0.  1.
</event>
<event>
12    1  0.8331241E-002  0.1880639E+03  0.7818608E-02  0.1160361E+00
         21   -1    0    0  503  502  0.00000000000E+00  0.00000000000E+00  0.15469065491E+03  0.15469065491E+03  0.00000000000E+00 0. -1.
         21   -1    0    0  501  503 -0.00000000000E+00 -0.00000000000E+00 -0.38707085220E+03  0.38707085220E+03  0.00000000000E+00 0. -1.
          6    2    1    2  501    0  0.74368458666E+02  0.21043809623E+02 -0.28979099217E+03  0.34512983301E+03  0.17076964871E+03 0.  0.
         24    2    3    3    0    0  0.10112391201E+03  0.20323137784E+02 -0.13433538567E+03  0.18731693986E+03  0.80016027181E+02 0.  0.
         -6    2    1    2    0  502 -0.74368458666E+02 -0.21043809623E+02  0.57410794878E+02  0.19663167410E+03  0.17144826136E+03 0.  0.
        -24    2    5    5    0    0 -0.57800285053E+02 -0.78186459615E+02  0.52077570863E+02  0.13671239420E+03  0.80772581498E+02 0.  0.
          5    1    3    3  501    0 -0.26755453345E+02  0.72067183933E+00 -0.15545560650E+03  0.15781289315E+03  0.47000000000E+01 0. -1.
        -13    1    4    4    0    0  0.33335985854E+02 -0.16115780102E+02 -0.92687128365E+02  0.99809368727E+02  0.00000000000E+00 0.  1.
         14    1    4    4    0    0  0.67787926156E+02  0.36438917886E+02 -0.41648257310E+02  0.87507571137E+02  0.00000000000E+00 0. -1.
         -5    1    5    5    0  502 -0.16568173612E+02  0.57142649992E+02  0.53332240146E+01  0.59919279897E+02  0.47000000000E+01 0.  1.
         13    1    6    6    0    0 -0.60522065580E+02 -0.26829297504E+02  0.53721557298E+02  0.85256890309E+02  0.00000000000E+00 0. -1.
        -14    1    6    6    0    0  0.27217805269E+01 -0.51357162112E+02 -0.16439864352E+01  0.51455503892E+02  0.00000000000E+00 0.  1.
</event>
<event>
12    1  0.8331241E-002  0.2003224E+03  0.7818608E-02  0.1150954E+00
         21   -1    0    0  503  502  0.00000000000E+00  0.00000000000E+00  0.40058682278E+03  0.40058682278E+03  0.00000000000E+00 0. -1.
         21   -1    0    0  501  503 -0.00000000000E+00 -0.00000000000E+00 -0.10884675387E+03  0.10884675387E+03  0.00000000000E+00 0. -1.
          6    2    1    2  501    0  0.48162189017E+00 -0.10259978019E+03  0.63215638088E+02  0.21006016630E+03  0.17205263646E+03 0.  0.
         24    2    3    3    0    0 -0.25322757273E+02 -0.83516007227E+02 -0.20853259698E+02  0.11995064433E+03  0.79606112428E+02 0.  0.
         -6    2    1    2    0  502 -0.48162189017E+00  0.10259978019E+03  0.22852443082E+03  0.29937341035E+03  0.16393314641E+03 0.  0.
        -24    2    5    5    0    0 -0.27961697218E+02  0.12644896136E+03  0.20251250473E+03  0.25439954815E+03  0.83286368566E+02 0.  0.
          5    1    3    3  501    0  0.25804379163E+02 -0.19083772961E+02  0.84068897786E+02  0.90109521968E+02  0.47000000000E+01 0. -1.
        -11    1    4    4    0    0 -0.24168667965E+02  0.72240114406E+01  0.47326505316E+01  0.25665323562E+02  0.00000000000E+00 0.  1.
         12    1    4    4    0    0 -0.11540893086E+01 -0.90740018667E+02 -0.25585910229E+02  0.94285320767E+02  0.00000000000E+00 0. -1.
         -5    1    5    5    0  502  0.27480075328E+02 -0.23849181167E+02  0.26011926086E+02  0.44973862199E+02  0.47000000000E+01 0.  1.
         13    1    6    6    0    0 -0.50098754274E+02  0.56784304906E+02  0.13554687239E+03  0.15526524749E+03  0.00000000000E+00 0. -1.
        -14    1    6    6    0    0  0.22137057055E+02  0.69664656449E+02  0.66965632345E+02  0.99134300667E+02  0.00000000000E+00 0.  1.
</event>
<event>
12    1  0.8331241E-002  0.2019499E+03  0.7818608E-02  0.1148493E+00
         21   -1    0    0  503  502  0.00000000000E+00  0.00000000000E+00  0.10786941191E+04  0.10786941191E+04  0.00000000000E+00 0.  1.
         21   -1    0    0  501  503 -0.00000000000E+00 -0.00000000000E+00 -0.20473420175E+03  0.20473420175E+03  0.00000000000E+00 0.  1.
          6    2    1    2  501    0 -0.90535885654E+02 -0.48830684993E+02 -0.14342859940E+03  0.24619009018E+03  0.17162929525E+03 0.  0.
         24    2    3    3    0    0 -0.97636400532E+02 -0.22515008600E+02 -0.16631769061E+03  0.21028838225E+03  0.80745508724E+02 0.  0.
         -6    2    1    2    0  502  0.90535885654E+02  0.48830684993E+02  0.10173885168E+04  0.10372382307E+04  0.17378886837E+03 0.  0.
        -24    2    5    5    0    0  0.70463660198E+02 -0.13395366716E+02  0.33610492208E+03  0.35280824732E+03  0.79765766299E+02 0.  0.
          5    1    3    3  501    0  0.71005148780E+01 -0.26315676392E+02  0.22889091214E+02  0.35901707928E+02  0.47000000000E+01 0. -1.
        -11    1    4    4    0    0 -0.92403901059E+02 -0.24895613313E+02 -0.82723709964E+02  0.12649697500E+03  0.00000000000E+00 0.  1.
         12    1    4    4    0    0 -0.52324994730E+01  0.23806047124E+01 -0.83593980645E+02  0.83791407254E+02  0.00000000000E+00 0. -1.
         -5    1    5    5    0  502  0.20072225456E+02  0.62226051709E+02  0.68128359468E+03  0.68442998337E+03  0.47000000000E+01 0.  1.
         11    1    6    6    0    0  0.41879630621E+02  0.23729072583E+02  0.25178863860E+03  0.25634837795E+03  0.00000000000E+00 0. -1.
        -12    1    6    6    0    0  0.28584029577E+02 -0.37124439300E+02  0.84316283474E+02  0.96459869371E+02  0.00000000000E+00 0.  1.
</event>
<event>
12    1  0.8331241E-002  0.2132050E+03  0.7818608E-02  0.1139996E+00
         21   -1    0    0  501  502  0.00000000000E+00  0.00000000000E+00  0.48176438384E+03  0.48176438384E+03  0.00000000000E+00 0. -1.
         21   -1    0    0  502  503 -0.00000000000E+00 -0.00000000000E+00 -0.92386337434E+02  0.92386337434E+02  0.00000000000E+00 0.  1.
         -6    2    1    2    0  503  0.56481539025E+01  0.11918597127E+03  0.18555646896E+03  0.28264386767E+03  0.17668943197E+03 0.  0.
        -24    2    3    3    0    0  0.67735184515E+02  0.47365065391E+02  0.12662720061E+03  0.17080563378E+03  0.79426771027E+02 0.  0.
          6    2    1    2  501    0 -0.56481539025E+01 -0.11918597127E+03  0.20382157745E+03  0.29150685360E+03  0.17086782282E+03 0.  0.
         24    2    5    5    0    0  0.16348729035E+02 -0.13730210256E+03  0.11263915904E+03  0.19585968690E+03  0.80958560352E+02 0.  0.
          5    1    5    5  501    0 -0.21996882937E+02  0.18116131289E+02  0.91182418406E+02  0.95647166702E+02  0.47000000000E+01 0. -1.
        -11    1    6    6    0    0 -0.15977508177E+02 -0.97823746670E+02  0.39543872933E+02  0.10671684060E+03  0.00000000000E+00 0.  1.
         12    1    6    6    0    0  0.32326237211E+02 -0.39478355892E+02  0.73095286108E+02  0.89142846305E+02  0.00000000000E+00 0. -1.
         -5    1    3    3    0  503 -0.62087030613E+02  0.71820905882E+02  0.58929268353E+02  0.11183823389E+03  0.47000000000E+01 0.  1.
         11    1    4    4    0    0 -0.14059490067E+02  0.54987430739E+01  0.46501212960E+02  0.48890369636E+02  0.00000000000E+00 0. -1.
        -12    1    4    4    0    0  0.81794674583E+02  0.41866322317E+02  0.80125987647E+02  0.12191526414E+03  0.00000000000E+00 0.  1.
</event>
<event>
12    1  0.8331241E-002  0.4131757E+03  0.7818608E-02  0.1039408E+00
         21   -1    0    0  503  502  0.00000000000E+00  0.00000000000E+00  0.25180977713E+03  0.25180977713E+03  0.00000000000E+00 0. -1.
         21   -1    0    0  501  503 -0.00000000000E+00 -0.00000000000E+00 -0.68759414753E+03  0.68759414753E+03  0.00000000000E+00 0.  1.
          6    2    1    2  501    0  0.37437861600E+03 -0.15512249220E+02 -0.15729975376E+03  0.44210562171E+03  0.17410970743E+03 0.  0.
         24    2    3    3    0    0  0.22225500346E+03 -0.16380930487E+02 -0.16855229681E+03  0.28949154037E+03  0.75695797363E+02 0.  0.
         -6    2    1    2    0  502 -0.37437861600E+03  0.15512249220E+02 -0.27848461664E+03  0.49729830295E+03  0.17132408594E+03 0.  0.
        -24    2    5    5    0    0 -0.12264823654E+03  0.57029918372E+02 -0.10298099628E+03  0.18759600791E+03  0.79323231614E+02 0.  0.
          5    1    3    3  501    0  0.15212361254E+03  0.86868126657E+00  0.11252543048E+02  0.15261408134E+03  0.47000000000E+01 0. -1.
        -11    1    4    4    0    0  0.21575493111E+03 -0.30600665293E+02 -0.14698018339E+03  0.26284932056E+03  0.00000000000E+00 0.  1.
         12    1    4    4    0    0  0.65000723543E+01  0.14219734806E+02 -0.21572113421E+02  0.26642219802E+02  0.00000000000E+00 0. -1.
         -5    1    5    5    0  502 -0.25173037946E+03 -0.41517669152E+02 -0.17550362036E+03  0.30970229504E+03  0.47000000000E+01 0.  1.
         11    1    6    6    0    0 -0.55567288631E+02  0.19576480351E+02 -0.93043591719E+02  0.11012752657E+03  0.00000000000E+00 0. -1.
        -12    1    6    6    0    0 -0.67080947908E+02  0.37453438021E+02 -0.99374045630E+01  0.77468481341E+02  0.00000000000E+00 0.  1.
</event>
<event>
12    1  0.8331241E-002  0.2243552E+03  0.7818608E-02  0.1130689E+00
         21   -1    0    0  501  502  0.00000000000E+00  0.00000000000E+00  0.15757592127E+03  0.15757592127E+03  0.00000000000E+00 0.  1.
         21   -1    0    0  502  503 -0.00000000000E+00 -0.00000000000E+00 -0.53497901181E+03  0.53497901181E+03  0.00000000000E+00 0.  1.
         -6    2    1    2    0  503 -0.11013484697E+03 -0.92622434478E+02 -0.40856551250E+03  0.46611266038E+03  0.17212389223E+03 0.  0.
        -24    2    3    3    0    0 -0.98104852045E+02  0.34371710875E+01 -0.21580230355E+03  0.25035373629E+03  0.80436204020E+02 0.  0.
          6    2    1    2  501    0  0.11013484697E+03  0.92622434478E+02  0.31162421960E+02  0.22644227270E+03  0.17203606144E+03 0.  0.
         24    2    5    5    0    0  0.13166420478E+03  0.28503341429E+02  0.22836071867E+02  0.15813276057E+03  0.79602641241E+02 0.  0.
          5    1    5    5  501    0 -0.21529357812E+02  0.64119093049E+02  0.83263500930E+01  0.68309512128E+02  0.47000000000E+01 0. -1.
        -13    1    6    6    0    0  0.75967058801E+02  0.31371685175E+02 -0.23654168866E+02  0.85525998143E+02  0.00000000000E+00 0.  1.
         14    1    6    6    0    0  0.55697145983E+02 -0.28683437468E+01  0.46490240733E+02  0.72606762426E+02  0.00000000000E+00 0. -1.
         -5    1    3    3    0  503 -0.12029994926E+02 -0.96059605566E+02 -0.19276320896E+03  0.21575892410E+03  0.47000000000E+01 0.  1.
         11    1    4    4    0    0 -0.56485252132E+02  0.28773883809E+02 -0.17717739907E+03  0.18817638226E+03  0.00000000000E+00 0. -1.
        -12    1    4    4    0    0 -0.41619599914E+02 -0.25336712722E+02 -0.38624904477E+02  0.62177354032E+02  0.00000000000E+00 0.  1.
</event>
<event>
12    1  0.8331241E-002  0.2008059E+03  0.7818608E-02  0.1149312E+00
         21   -1    0    0  503  502  0.00000000000E+00  0.00000000000E+00  0.79464307653E+03  0.79464307653E+03  0.00000000000E+00 0. -1.
         21   -1    0    0  501  503 -0.00000000000E+00 -0.00000000000E+00 -0.50759049348E+02  0.50759049348E+02  0.00000000000E+00 0.  1.
          6    2    1    2  501    0  0.85597127563E+02 -0.54930614924E+02  0.33963533902E+03  0.39455695398E+03  0.17314382959E+03 0.  0.
         24    2    3    3    0    0  0.27790448421E+01  0.36326675558E+01  0.70098494523E+02  0.10652797381E+03  0.80084273773E+02 0.  0.
         -6    2    1    2    0  502 -0.85597127563E+02  0.54930614924E+02  0.40424868816E+03  0.45084517189E+03  0.17175600844E+03 0.  0.
        -24    2    5    5    0    0  0.17617790621E+02  0.34187091812E+02  0.23738437079E+03  0.25348913956E+03  0.80163960639E+02 0.  0.
          5    1    3    3  501    0  0.82818082721E+02 -0.58563282480E+02  0.26953684449E+03  0.28802898017E+03  0.47000000000E+01 0. -1.
        -13    1    4    4    0    0 -0.25279938490E+02  0.10943510470E+02  0.72377787201E+02  0.77442751705E+02  0.00000000000E+00 0.  1.
         14    1    4    4    0    0  0.28058983332E+02 -0.73108429145E+01 -0.22792926776E+01  0.29085222105E+02  0.00000000000E+00 0. -1.
         -5    1    5    5    0  502 -0.10321491818E+03  0.20743523112E+02  0.16686431737E+03  0.19735603234E+03  0.47000000000E+01 0.  1.
         11    1    6    6    0    0 -0.18470377878E+02 -0.17338250274E+02  0.83018145698E+02  0.86797363420E+02  0.00000000000E+00 0. -1.
        -12    1    6    6    0    0  0.36088168499E+02  0.51525342086E+02  0.15436622509E+03  0.16669177614E+03  0.00000000000E+00 0.  1.
</event>
<event>
12    1  0.8331241E-002  0.2392235E+03  0.7818608E-02  0.1120501E+00
         21   -1    0    0  503  502  0.00000000000E+00  0.00000000000E+00  0.19499479885E+04  0.19499479885E+04  0.00000000000E+00 0. -1.
         21   -1    0    0  501  503 -0.00000000000E+00 -0.00000000000E+00 -0.39646519168E+02  0.39646519168E+02  0.00000000000E+00 0. -1.
          6    2    1    2  501    0  0.14321602110E+03  0.87336425000E+02  0.44307098509E+03  0.50298992685E+03  0.16896298071E+03 0.  0.
         24    2    3    3    0    0  0.94197774629E+02  0.12581345929E+03  0.36401477444E+03  0.40221669083E+03  0.67596324541E+02 0.  0.
         -6    2    1    2    0  502 -0.14321602110E+03 -0.87336425000E+02  0.14672304842E+04  0.14866045808E+04  0.17055616668E+03 0.  0.
        -24    2    5    5    0    0 -0.20774023218E+01 -0.42954058970E+02  0.61616726156E+03  0.62276396871E+03  0.79520435898E+02 0.  0.
          5    1    3    3  501    0  0.49018246467E+02 -0.38477034291E+02  0.79056210656E+02  0.10077323602E+03  0.47000000000E+01 0. -1.
        -11    1    4    4    0    0  0.51994443109E+02  0.33647762278E+02  0.20033488994E+03  0.20968944215E+03  0.00000000000E+00 0.  1.
         12    1    4    4    0    0  0.42203331520E+02  0.92165697013E+02  0.16367988450E+03  0.19252724868E+03  0.00000000000E+00 0. -1.
         -5    1    5    5    0  502 -0.14113861877E+03 -0.44382366031E+02  0.85106322267E+03  0.86384061210E+03  0.47000000000E+01 0.  1.
         11    1    6    6    0    0 -0.31130839112E+01 -0.40367873355E+02  0.61806721133E+03  0.61939190680E+03  0.00000000000E+00 0. -1.
        -12    1    6    6    0    0  0.10356815894E+01 -0.25861856145E+01 -0.18999497709E+01  0.33720619092E+01  0.00000000000E+00 0.  1.
</event>
<event>
12    1  0.8331241E-002  0.1839638E+03  0.7818608E-02  0.1164093E+00
         21   -1    0    0  501  502  0.00000000000E+00  0.00000000000E+00  0.21801301951E+02  0.21801301951E+02  0.00000000000E+00 0. -1.
         21   -1    0    0  502  503 -0.00000000000E+00 -0.00000000000E+00 -0.23131902020E+04  0.23131902020E+04  0.00000000000E+00 0.  1.
         -6    2    1    2    0  503  0.51427864270E+02 -0.37759486399E+02 -0.18170479962E+04  0.18263367973E+04  0.17254585715E+03 0.  0.
        -24    2    3    3    0    0  0.97879044262E+02  0.15738483059E+02 -0.12293415071E+04  0.12343564327E+04  0.50271807104E+02 0.  0.
          6    2    1    2  501    0 -0.51427864270E+02  0.37759486399E+02 -0.47434090388E+03  0.50865470664E+03  0.17221995660E+03 0.  0.
         24    2    5    5    0    0 -0.17504145337E+02 -0.42625532991E+02 -0.28406739306E+03  0.29927784791E+03  0.82156042287E+02 0.  0.
          5    1    5    5  501    0 -0.33923718933E+02  0.80385019390E+02 -0.19027351082E+03  0.20937685872E+03  0.47000000000E+01 0. -1.
        -13    1    6    6    0    0 -0.43216820356E+02 -0.40071351631E+02 -0.12587351169E+03  0.13898758120E+03  0.00000000000E+00 0.  1.
         14    1    6    6    0    0  0.25712675019E+02 -0.25541813592E+01 -0.15819388137E+03  0.16029026671E+03  0.00000000000E+00 0. -1.
         -5    1    3    3    0  503 -0.46451179992E+02 -0.53497969458E+02 -0.58770648906E+03  0.59198036466E+03  0.47000000000E+01 0.  1.
         11    1    4    4    0    0  0.54089628507E+01  0.77606064932E+01 -0.30638230600E+02  0.32065324987E+02  0.00000000000E+00 0. -1.
        -12    1    4    4    0    0  0.92470081411E+02  0.79778765662E+01 -0.11987032765E+04  0.12022911077E+04  0.00000000000E+00 0.  1.
</event>
<event>
12    1  0.8331241E-002  0.2475648E+03  0.7818608E-02  0.1114966E+00
         21   -1    0    0  501  502  0.00000000000E+00  0.00000000000E+00  0.44301218340E+03  0.44301218340E+03  0.00000000000E+00 0.  1.
         21   -1    0    0  502  503 -0.00000000000E+00 -0.00000000000E+00 -0.13857817339E+03  0.13857817339E+03  0.00000000000E+00 0.  1.
         -6    2    1    2    0  503 -0.13795398643E+03 -0.11097587856E+03  0.13289012442E+03  0.28097708526E+03  0.17303580346E+03 0.  0.
        -24    2    3    3    0    0 -0.14050405849E+03 -0.74475855144E+02  0.15627989850E+03  0.23729727174E+03  0.81231428949E+02 0.  0.
          6    2    1    2  501    0  0.13795398643E+03  0.11097587856E+03  0.17154388560E+03  0.30061327153E+03  0.17202931826E+03 0.  0.
         24    2    5    5    0    0  0.14013637966E+03  0.42040646077E+02  0.10309215020E+03  0.20332730545E+03  0.96479950680E+02 0.  0.
          5    1    5    5  501    0 -0.21823932268E+01  0.68935232480E+02  0.68451735395E+02  0.97285966079E+02  0.47000000000E+01 0. -1.
        -13    1    6    6    0    0  0.10712647899E+03  0.70902162716E+02  0.59773354839E+02  0.14168998951E+03  0.00000000000E+00 0.  1.
         14    1    6    6    0    0  0.33009900664E+02 -0.28861516639E+02  0.43318795363E+02  0.61637315940E+02  0.00000000000E+00 0. -1.
         -5    1    3    3    0  503  0.25500720578E+01 -0.36500023413E+02 -0.23389774086E+02  0.43679813512E+02  0.47000000000E+01 0.  1.
         13    1    4    4    0    0 -0.58706735316E+02 -0.36620407619E+02  0.12317334515E+03  0.14127706105E+03  0.00000000000E+00 0. -1.
        -14    1    4    4    0    0 -0.81797323174E+02 -0.37855447525E+02  0.33106553359E+02  0.96020210690E+02  0.00000000000E+00 0.  1.
</event>
<event>
12    1  0.8331241E-002  0.2220121E+03  0.7818608E-02  0.1132405E+00
         21   -1    0    0  503  502  0.00000000000E+00  0.00000000000E+00  0.15795007289E+03  0.15795007289E+03  0.00000000000E+00 0. -1.
         21   -1    0    0  501  503 -0.00000000000E+00 -0.00000000000E+00 -0.35996810252E+03  0.35996810252E+03  0.00000000000E+00 0.  1.
          6    2    1    2  501    0 -0.13832499793E+03  0.11702012826E+02 -0.19559937740E+03  0.29588594856E+03  0.17325886978E+03 0.  0.
         24    2    3    3    0    0 -0.80348568703E+02  0.75725855840E+02 -0.11828989927E+03  0.17987231044E+03  0.78557304295E+02 0.  0.
         -6    2    1    2    0  502  0.13832499793E+03 -0.11702012826E+02 -0.64186522247E+01  0.22203222685E+03  0.17316572556E+03 0.  0.
        -24    2    5    5    0    0  0.16892165923E+03 -0.89806817106E+00  0.87999513408E+01  0.18588562538E+03  0.77075891794E+02 0.  0.
          5    1    3    3  501    0 -0.57976429225E+02 -0.64023843014E+02 -0.77309478136E+02  0.11601363812E+03  0.47000000000E+01 0. -1.
        -13    1    4    4    0    0 -0.17809234358E+01  0.36058308609E+02 -0.50541782383E+01  0.36454327942E+02  0.00000000000E+00 0.  1.
         14    1    4    4    0    0 -0.78567645268E+02  0.39667547231E+02 -0.11323572103E+03  0.14341798250E+03  0.00000000000E+00 0. -1.
         -5    1    5    5    0  502 -0.30596661305E+02 -0.10803944655E+02 -0.15218603565E+02  0.36146601467E+02  0.47000000000E+01 0.  1.
         13    1    6    6    0    0 -0.43019370876E+01  0.43506648626E+01  0.10979093550E+02  0.12568828212E+02  0.00000000000E+00 0. -1.
        -14    1    6    6    0    0  0.17322359632E+03 -0.52487330336E+01 -0.21791422089E+01  0.17331679717E+03  0.00000000000E+00 0.  1.
</event>
<event>
12    1  0.8331241E-002  0.1778239E+03  0.7818608E-02  0.1170377E+00
         21   -1    0    0  501  502  0.00000000000E+00  0.00000000000E+00  0.40813617499E+02  0.40813617499E+02  0.00000000000E+00 0.  1.
         21   -1    0    0  502  503 -0.00000000000E+00 -0.00000000000E+00 -0.82289995759E+03  0.82289995759E+03  0.00000000000E+00 0.  1.
         -6    2    1    2    0  503  0.29122456509E+02 -0.25181072493E+02 -0.50562726509E+03  0.53598534266E+03  0.17360631458E+03 0.  0.
        -24    2    3    3    0    0  0.34971999996E+02 -0.81443321951E+02 -0.38334167292E+03  0.40116874900E+03  0.78290941405E+02 0.  0.
          6    2    1    2  501    0 -0.29122456509E+02  0.25181072493E+02 -0.27645907500E+03  0.32772823243E+03  0.17173808633E+03 0.  0.
         24    2    5    5    0    0 -0.44043014583E+02  0.67291250634E+01 -0.58204883941E+02  0.10813752376E+03  0.79503756345E+02 0.  0.
          5    1    5    5  501    0  0.14920558074E+02  0.18451947429E+02 -0.21825419106E+03  0.21959070867E+03  0.47000000000E+01 0. -1.
        -13    1    6    6    0    0 -0.27473326341E+02 -0.35979870354E+02 -0.27024586370E+02  0.52722509418E+02  0.00000000000E+00 0.  1.
         14    1    6    6    0    0 -0.16569688242E+02  0.42708995417E+02 -0.31180297571E+02  0.55415014343E+02  0.00000000000E+00 0. -1.
         -5    1    3    3    0  503 -0.58495434871E+01  0.56262249458E+02 -0.12228559217E+03  0.13481659366E+03  0.47000000000E+01 0.  1.
         13    1    4    4    0    0 -0.78447972985E+01 -0.15964449138E+02 -0.11489900625E+02  0.21175983975E+02  0.00000000000E+00 0. -1.
        -14    1    4    4    0    0  0.42816797294E+02 -0.65478872813E+02 -0.37185177230E+03  0.37999276503E+03  0.00000000000E+00 0.  1.
</event>
<event>
12    1  0.8331241E-002  0.2192806E+03  0.7818608E-02  0.1134615E+00
         21   -1    0    0  501  502  0.00000000000E+00  0.00000000000E+00  0.73178909853E+03  0.73178909853E+03  0.00000000000E+00 0.  1.
         21   -1    0    0  502  503 -0.00000000000E+00 -0.00000000000E+00 -0.85789998364E+02  0.85789998364E+02  0.00000000000E+00 0. -1.
         -6    2    1    2    0  503  0.54896216577E+02  0.12383757503E+03  0.12311273040E+03  0.25057457597E+03  0.17111847987E+03 0.  0.
        -24    2    3    3    0    0  0.98563339030E+02  0.10551883489E+03  0.11779681247E+03  0.20269198198E+03  0.79743302003E+02 0.  0.
          6    2    1    2  501    0 -0.54896216577E+02 -0.12383757503E+03  0.52288636977E+03  0.56700452092E+03  0.17243732623E+03 0.  0.
         24    2    5    5    0    0 -0.29751020533E+01 -0.49116569610E+02  0.41594801274E+03  0.42651632573E+03  0.80511726922E+02 0.  0.
          5    1    5    5  501    0 -0.51921114523E+02 -0.74721005420E+02  0.10693835703E+03  0.14048819519E+03  0.47000000000E+01 0. -1.
        -13    1    6    6    0    0 -0.17710440961E+02 -0.67659894201E+02  0.28599969065E+03  0.29442714558E+03  0.00000000000E+00 0.  1.
         14    1    6    6    0    0  0.14735338908E+02  0.18543324591E+02  0.12994832209E+03  0.13208918015E+03  0.00000000000E+00 0. -1.
         -5    1    3    3    0  503 -0.43667122453E+02  0.18318740136E+02  0.53159179307E+01  0.47882593988E+02  0.47000000000E+01 0.  1.
         13    1    4    4    0    0  0.80582624440E+02  0.10331323522E+03  0.63788164656E+02  0.14572616060E+03  0.00000000000E+00 0. -1.
        -14    1    4    4    0    0  0.17980714590E+02  0.22055996714E+01  0.54008647812E+02  0.56965821380E+02  0.00000000000E+00 0.  1.
</event>
<event>
12    1  0.8331241E-002  0.2204567E+03  0.7818608E-02  0.1134530E+00
         21   -1    0    0  503  502  0.00000000000E+00  0.00000000000E+00  0.85410492263E+02  0.85410492263E+02  0.00000000000E+00 0. -1.
         21   -1    0    0  501  503 -0.00000000000E+00 -0.00000000000E+00 -0.56522476039E+03  0.56522476039E+03  0.00000000000E+00 0.  1.
          6    2    1    2  501    0 -0.85828235247E+02 -0.98399761378E+02 -0.27957043063E+03  0.35281188136E+03  0.17107775700E+03 0.  0.
         24    2    3    3    0    0 -0.37091858782E+02 -0.79811219439E+02 -0.27520850324E+03  0.30025824501E+03  0.81667966232E+02 0.  0.
         -6    2    1    2    0  502  0.85828235247E+02  0.98399761378E+02 -0.20024383750E+03  0.29782337130E+03  0.17762929665E+03 0.  0.
        -24    2    5    5    0    0  0.37173076056E+02  0.12534252419E+03 -0.99698022277E+02  0.18282429329E+03  0.79952739886E+02 0.  0.
          5    1    3    3  501    0 -0.48736376465E+02 -0.18588541939E+02 -0.43619273891E+01  0.52553636344E+02  0.47000000000E+01 0. -1.
        -11    1    4    4    0    0  0.21395733288E+02 -0.43880052300E+02 -0.84714520481E+02  0.97774160048E+02  0.00000000000E+00 0.  1.
         12    1    4    4    0    0 -0.58487592070E+02 -0.35931167140E+02 -0.19049398276E+03  0.20248408497E+03  0.00000000000E+00 0. -1.
         -5    1    5    5    0  502  0.48655159191E+02 -0.26942762814E+02 -0.10054581522E+03  0.11499907801E+03  0.47000000000E+01 0.  1.
         13    1    6    6    0    0  0.55021988937E+02  0.86687831719E+02 -0.95186112923E+02  0.14000926944E+03  0.00000000000E+00 0. -1.
        -14    1    6    6    0    0 -0.17848912881E+02  0.38654692473E+02 -0.45119093541E+01  0.42815023849E+02  0.00000000000E+00 0.  1.
</event>
<event>
12    1  0.8331241E-002  0.2108303E+03  0.7818608E-02  0.1141034E+00
         21   -1    0    0  503  502  0.00000000000E+00  0.00000000000E+00  0.20759189023E+03  0.20759189023E+03  0.00000000000E+00 0. -1.
         21   -1    0    0  501  503 -0.00000000000E+00 -0.00000000000E+00 -0.21507386385E+03  0.21507386385E+03  0.00000000000E+00 0. -1.
          6    2    1    2  501    0  0.66855210431E+02  0.10097821745E+03 -0.21914269597E+02  0.21196617345E+03  0.17257810961E+03 0.  0.
         24    2    3    3    0    0  0.89846348086E+02  0.11777927605E+03  0.10658080120E+02  0.16844702885E+03  0.79476302904E+02 0.  0.
         -6    2    1    2    0  502 -0.66855210431E+02 -0.10097821745E+03  0.14432295984E+02  0.21069958063E+03  0.17181327815E+03 0.  0.
        -24    2    5    5    0    0 -0.63178120791E+02 -0.11019557412E+03  0.61471291706E+02  0.16239598065E+03  0.80369119219E+02 0.  0.
          5    1    3    3  501    0 -0.22991137655E+02 -0.16801058609E+02 -0.32572349717E+02  0.43519144605E+02  0.47000000000E+01 0. -1.
        -13    1    4    4    0    0  0.39295015811E+02  0.71716562523E+02  0.43448804237E+02  0.92602171667E+02  0.00000000000E+00 0.  1.
         14    1    4    4    0    0  0.50551332276E+02  0.46062713530E+02 -0.32790724116E+02  0.75844857180E+02  0.00000000000E+00 0. -1.
         -5    1    5    5    0  502 -0.36770896402E+01  0.92173566794E+01 -0.47038995722E+02  0.48303599979E+02  0.47000000000E+01 0.  1.
         13    1    6    6    0    0 -0.30553345948E+02 -0.70382609133E+02 -0.66487299954E+01  0.77015740129E+02  0.00000000000E+00 0. -1.
        -14    1    6    6    0    0 -0.32624774843E+02 -0.39812964991E+02  0.68120021701E+02  0.85380240522E+02  0.00000000000E+00 0.  1.
</event>
<event>
12    1  0.8331241E-002  0.1736961E+03  0.7818608E-02  0.1174431E+00
         21   -1    0    0  503  502  0.00000000000E+00  0.00000000000E+00  0.51971143139E+03  0.51971143139E+03  0.00000000000E+00 0. -1.
         21   -1    0    0  501  503 -0.00000000000E+00 -0.00000000000E+00 -0.58223175249E+02  0.58223175249E+02  0.00000000000E+00 0. -1.
          6    2    1    2  501    0 -0.36484241508E+01 -0.19837474786E+02  0.19868607200E+03  0.26291820628E+03  0.17100582325E+03 0.  0.
         24    2    3    3    0    0 -0.35500745379E+02 -0.75073746610E+01  0.20277904706E+03  0.22819869906E+03  0.98176579350E+02 0.  0.
         -6    2    1    2    0  502  0.36484241508E+01  0.19837474786E+02  0.26280218414E+03  0.31501640035E+03  0.17252103668E+03 0.  0.
        -24    2    5    5    0    0 -0.44253738937E+02  0.53024247707E+02  0.21456624815E+03  0.23922210871E+03  0.80116029558E+02 0.  0.
          5    1    3    3  501    0  0.31852321228E+02 -0.12330100124E+02 -0.40929750607E+01  0.34719507220E+02  0.47000000000E+01 0. -1.
        -13    1    4    4    0    0  0.18898303055E+02 -0.19089821205E+02  0.14698022152E+03  0.14941470024E+03  0.00000000000E+00 0.  1.
         14    1    4    4    0    0 -0.54399048435E+02  0.11582446544E+02  0.55798825541E+02  0.78783998822E+02  0.00000000000E+00 0. -1.
         -5    1    5    5    0  502  0.47902163088E+02 -0.33186772922E+02  0.48235935990E+02  0.75794291647E+02  0.47000000000E+01 0.  1.
         13    1    6    6    0    0 -0.37046881643E+02  0.47360634756E+01  0.16675971794E+03  0.17089091627E+03  0.00000000000E+00 0. -1.
        -14    1    6    6    0    0 -0.72068572936E+01  0.48288184232E+02  0.47806530215E+02  0.68331192436E+02  0.00000000000E+00 0.  1.
</event>
<event>
12    1  0.8331241E-002  0.1895082E+03  0.7818608E-02  0.1159042E+00
         21   -1    0    0  503  502  0.00000000000E+00  0.00000000000E+00  0.15968057283E+03  0.15968057283E+03  0.00000000000E+00 0.  1.
         21   -1    0    0  501  503 -0.00000000000E+00 -0.00000000000E+00 -0.53189623233E+03  0.53189623233E+03  0.00000000000E+00 0.  1.
          6    2    1    2  501    0  0.74052464696E+02  0.27580141172E+02 -0.44923621710E+03  0.48757209039E+03  0.17224672091E+03 0.  0.
         24    2    3    3    0    0 -0.91186186148E+01 -0.15483917466E+02 -0.12334516359E+03  0.14845704944E+03  0.80638484868E+02 0.  0.
         -6    2    1    2    0  502 -0.74052464696E+02 -0.27580141172E+02  0.77020557599E+02  0.20400471476E+03  0.17158474768E+03 0.  0.
        -24    2    5    5    0    0 -0.55557612266E+02 -0.51758562441E+02  0.11258500711E+03  0.15695606238E+03  0.78703396534E+02 0.  0.
          5    1    3    3  501    0  0.83171083311E+02  0.43064058639E+02 -0.32589105351E+03  0.33911504095E+03  0.47000000000E+01 0. -1.
        -11    1    4    4    0    0  0.43678584790E+01 -0.43257705371E+02 -0.38158819628E+02  0.57848100894E+02  0.00000000000E+00 0.  1.
         12    1    4    4    0    0 -0.13486477094E+02  0.27773787904E+02 -0.85186343960E+02  0.90608948544E+02  0.00000000000E+00 0. -1.
         -5    1    5    5    0  502 -0.18494852430E+02  0.24178421269E+02 -0.35564449513E+02  0.47048652378E+02  0.47000000000E+01 0.  1.
         11    1    6    6    0    0 -0.42688215096E+02  0.88771790432E+01  0.27010091844E+02  0.51289697575E+02  0.00000000000E+00 0. -1.
        -12    1    6    6    0    0 -0.12869397169E+02 -0.60635741485E+02  0.85574915267E+02  0.10566636481E+03  0.00000000000E+00 0.  1.
</event>
<event>
12    1  0.8331241E-002  0.1831675E+03  0.7818608E-02  0.1164807E+00
         21   -1    0    0  501  502  0.00000000000E+00  0.00000000000E+00  0.70027939026E+02  0.70027939026E+02  0.00000000000E+00 0. -1.
         21   -1    0    0  502  503 -0.00000000000E+00 -0.00000000000E+00 -0.61469175469E+03  0.61469175469E+03  0.00000000000E+00 0. -1.
         -6    2    1    2    0  503 -0.41248339268E+02  0.48339178429E+02 -0.43343484407E+03  0.47054872616E+03  0.17179126282E+03 0.  0.
        -24    2    3    3    0    0  0.13277432504E+02  0.77398558514E+02 -0.34304536438E+03  0.36095924037E+03  0.80278416237E+02 0.  0.
          6    2    1    2  501    0  0.41248339268E+02 -0.48339178429E+02 -0.11122897160E+03  0.21417096756E+03  0.17163687703E+03 0.  0.
         24    2    5    5    0    0  0.91136131902E+02 -0.65315316959E+02 -0.94654123328E+02  0.15872913562E+03  0.60528094832E+02 0.  0.
          5    1    5    5  501    0 -0.49887792634E+02  0.16976138530E+02 -0.16574848274E+02  0.55441831937E+02  0.47000000000E+01 0. -1.
        -13    1    6    6    0    0 -0.81494246194E+01 -0.92264566186E+01 -0.16059134874E+02  0.20234535732E+02  0.00000000000E+00 0.  1.
         14    1    6    6    0    0  0.99285556522E+02 -0.56088860340E+02 -0.78594988454E+02  0.13849459989E+03  0.00000000000E+00 0. -1.
         -5    1    3    3    0  503 -0.54525771773E+02 -0.29059380085E+02 -0.90389479689E+02  0.10958948579E+03  0.47000000000E+01 0.  1.
         11    1    4    4    0    0 -0.22972586739E+02  0.52778229335E+02 -0.11342294312E+03  0.12719294500E+03  0.00000000000E+00 0. -1.
        -12    1    4    4    0    0  0.36250019244E+02  0.24620329179E+02 -0.22962242126E+03  0.23376629537E+03  0.00000000000E+00 0.  1.
</event>
<event>
12    1  0.8331241E-002  0.1829882E+03  0.7818608E-02  0.1165445E+00
         21   -1    0    0  501  502  0.00000000000E+00  0.00000000000E+00  0.23191556167E+03  0.23191556167E+03  0.00000000000E+00 0. -1.
         21   -1    0    0  502  503 -0.00000000000E+00 -0.00000000000E+00 -0.14897015388E+03  0.14897015388E+03  0.00000000000E+00 0. -1.
         -6    2    1    2    0  503 -0.16814727697E+02  0.62440614567E+02  0.26979427871E+01  0.18300805906E+03  0.17118149833E+03 0.  0.
        -24    2    3    3    0    0 -0.12059317159E+02 -0.27045220517E+02  0.28976546355E+02  0.89504136065E+02  0.79337752999E+02 0.  0.
          6    2    1    2  501    0  0.16814727697E+02 -0.62440614567E+02  0.80247465005E+02  0.19787765649E+03  0.16892112325E+03 0.  0.
         24    2    5    5    0    0 -0.43865800909E+02 -0.31263883290E+02  0.86540276164E+02  0.12920594035E+03  0.79393430050E+02 0.  0.
          5    1    5    5  501    0  0.60680528606E+02 -0.31176731277E+02 -0.62928111586E+01  0.68671716137E+02  0.47000000000E+01 0. -1.
        -11    1    6    6    0    0 -0.34774780294E+02 -0.55365054663E+02  0.41861180189E+02  0.77633324218E+02  0.00000000000E+00 0.  1.
         12    1    6    6    0    0 -0.90910206143E+01  0.24101171373E+02  0.44679095975E+02  0.51572616130E+02  0.00000000000E+00 0. -1.
         -5    1    3    3    0  503 -0.47554105379E+01  0.89485835083E+02 -0.26278603568E+02  0.93503922995E+02  0.47000000000E+01 0.  1.
         11    1    4    4    0    0 -0.30241484723E+02 -0.15613804809E+02 -0.17525776379E+02  0.38281733720E+02  0.00000000000E+00 0. -1.
        -12    1    4    4    0    0  0.18182167564E+02 -0.11431415708E+02  0.46502322734E+02  0.51222402346E+02  0.00000000000E+00 0.  1.
</event>
<event>
12    1  0.8331241E-002  0.1836240E+03  0.7818608E-02  0.1165920E+00
         21   -1    0    0  501  502  0.00000000000E+00  0.00000000000E+00  0.13132238331E+02  0.13132238331E+02  0.00000000000E+00 0. -1.
         21   -1    0    0  502  503 -0.00000000000E+00 -0.00000000000E+00 -0.25681611462E+04  0.25681611462E+04  0.00000000000E+00 0. -1.
         -6    2    1    2    0  503 -0.51246325600E+02 -0.21820030832E+02 -0.10562166443E+04  0.10720594088E+04  0.17497278810E+03 0.  0.
        -24    2    3    3    0    0 -0.27794507396E+02 -0.16281985694E+02 -0.22873161505E+03  0.24421025501E+03  0.79264489091E+02 0.  0.
          6    2    1    2  501    0  0.51246325600E+02  0.21820030832E+02 -0.14988122635E+04  0.15092339757E+04  0.16806752384E+03 0.  0.
         24    2    5    5    0    0  0.93601877253E+02 -0.10339296704E+02 -0.10733370709E+04  0.10804223101E+04  0.79948031580E+02 0.  0.
          5    1    5    5  501    0 -0.42355551653E+02  0.32159327536E+02 -0.42547519257E+03  0.42881166565E+03  0.47000000000E+01 0. -1.
        -13    1    6    6    0    0  0.79947906626E+02  0.18206316275E+02 -0.93133086426E+03  0.93493332192E+03  0.00000000000E+00 0.  1.
         14    1    6    6    0    0  0.13653970627E+02 -0.28545612978E+02 -0.14200620668E+03  0.14548898814E+03  0.00000000000E+00 0. -1.
         -5    1    3    3    0  503 -0.23451818204E+02 -0.55380451379E+01 -0.82748502929E+03  0.82784915379E+03  0.47000000000E+01 0.  1.
         11    1    4    4    0    0 -0.50334654150E+02 -0.18457021968E+02 -0.99640077554E+02  0.11314762094E+03  0.00000000000E+00 0. -1.
        -12    1    4    4    0    0  0.22540146754E+02  0.21750362737E+01 -0.12909153749E+03  0.13106263408E+03  0.00000000000E+00 0.  1.
</event>
<event>
12    1  0.8331241E-002  0.3604511E+03  0.7818608E-02  0.1058749E+00
         21   -1    0    0  501  502  0.00000000000E+00  0.00000000000E+00  0.42920805219E+03  0.42920805219E+03  0.00000000000E+00 0.  1.
         21   -1    0    0  502  503 -0.00000000000E+00 -0.00000000000E+00 -0.30190959948E+03  0.30190959948E+03  0.00000000000E+00 0.  1.
         -6    2    1    2    0  503 -0.24723952252E+03  0.19179764782E+03  0.32875914952E+02  0.35850439828E+03  0.17184544974E+03 0.  0.
        -24    2    3    3    0    0 -0.11978844951E+03  0.91271909981E+02  0.84627483305E+02  0.18806521615E+03  0.74342991640E+02 0.  0.
          6    2    1    2  501    0  0.24723952252E+03 -0.19179764782E+03  0.94422537763E+02  0.37261325339E+03  0.17891702477E+03 0.  0.
         24    2    5    5    0    0  0.16220579232E+03 -0.72601069381E+02  0.11200692166E+03  0.22506712453E+03  0.80796198580E+02 0.  0.
          5    1    5    5  501    0  0.85033730202E+02 -0.11919657844E+03 -0.17584383900E+02  0.14754612886E+03  0.47000000000E+01 0. -1.
        -13    1    6    6    0    0  0.16769912714E+03 -0.61410837430E+02  0.90506349479E+02  0.20021410413E+03  0.00000000000E+00 0.  1.
         14    1    6    6    0    0 -0.54933348188E+01 -0.11190231951E+02  0.21500572185E+02  0.24853020396E+02  0.00000000000E+00 0. -1.
         -5    1    3    3    0  503 -0.12745107301E+03  0.10052573784E+03 -0.51751568353E+02  0.17043918214E+03  0.47000000000E+01 0.  1.
         13    1    4    4    0    0 -0.11413355216E+02  0.34899761922E+02  0.48194249643E+02  0.60588313709E+02  0.00000000000E+00 0. -1.
        -14    1    4    4    0    0 -0.10837509429E+03  0.56372148060E+02  0.36433233662E+02  0.12747690244E+03  0.00000000000E+00 0.  1.
</event>
<event>
12    1  0.8331241E-002  0.2090041E+03  0.7818608E-02  0.1142448E+00
         21   -1    0    0  501  502  0.00000000000E+00  0.00000000000E+00  0.21321957743E+03  0.21321957743E+03  0.00000000000E+00 0.  1.
         21   -1    0    0  502  503 -0.00000000000E+00 -0.00000000000E+00 -0.23009635274E+03  0.23009635274E+03  0.00000000000E+00 0. -1.
         -6    2    1    2    0  503 -0.58772447571E+02  0.10243343960E+03  0.65609792564E+02  0.21862340767E+03  0.17188583233E+03 0.  0.
        -24    2    3    3    0    0  0.30771024963E+02  0.42719678867E+02  0.52985645411E+01  0.95159644073E+02  0.79091441598E+02 0.  0.
          6    2    1    2  501    0  0.58772447571E+02 -0.10243343960E+03 -0.82486567873E+02  0.22469252251E+03  0.17244096280E+03 0.  0.
         24    2    5    5    0    0  0.10209376125E+02  0.14214684967E+02 -0.21894532806E+02  0.84483244689E+02  0.79697926176E+02 0.  0.
          5    1    5    5  501    0  0.48563071445E+02 -0.11664812457E+03 -0.60592035067E+02  0.14020927782E+03  0.47000000000E+01 0. -1.
        -11    1    6    6    0    0  0.19622921476E+02  0.65315843277E+01  0.27051513510E+02  0.34051505462E+02  0.00000000000E+00 0.  1.
         12    1    6    6    0    0 -0.94135453508E+01  0.76831006396E+01 -0.48946046316E+02  0.50431739227E+02  0.00000000000E+00 0. -1.
         -5    1    3    3    0  503 -0.89543472533E+02  0.59713760738E+02  0.60311228023E+02  0.12346376359E+03  0.47000000000E+01 0.  1.
         13    1    4    4    0    0 -0.16204662329E+02  0.23940804594E+02 -0.23224489937E+02  0.37082747183E+02  0.00000000000E+00 0. -1.
        -14    1    4    4    0    0  0.46975687292E+02  0.18778874274E+02  0.28523054478E+02  0.58076896890E+02  0.00000000000E+00 0.  1.
</event>
<event>
12    1  0.8331241E-002  0.2314163E+03  0.7818608E-02  0.1125958E+00
         21   -1    0    0  501  502  0.00000000000E+00  0.00000000000E+00  0.25553755863E+02  0.25553755863E+02  0.00000000000E+00 0. -1.
         21   -1    0    0  502  503 -0.00000000000E+00 -0.00000000000E+00 -0.25367475808E+04  0.25367475808E+04  0.00000000000E+00 0.  1.
         -6    2    1    2    0  503 -0.11828652573E+03  0.95376144956E+02 -0.70781780660E+03  0.74413781886E+03  0.17218227239E+03 0.  0.
        -24    2    3    3    0    0 -0.35751052602E+02  0.91144192338E+02 -0.56569976454E+03  0.57967006632E+03  0.80098443344E+02 0.  0.
          6    2    1    2  501    0  0.11828652573E+03 -0.95376144956E+02 -0.18033760184E+04  0.18181635178E+04  0.17454283930E+03 0.  0.
         24    2    5    5    0    0  0.85520633740E+02 -0.13566977736E+03 -0.13934265031E+04  0.14049107193E+04  0.80103945972E+02 0.  0.
          5    1    5    5  501    0  0.32765891990E+02  0.40293632400E+02 -0.40994951524E+03  0.41325279858E+03  0.47000000000E+01 0. -1.
        -13    1    6    6    0    0  0.74744611899E+02 -0.86374833162E+02 -0.11837444731E+04  0.11892427618E+04  0.00000000000E+00 0.  1.
         14    1    6    6    0    0  0.10776021841E+02 -0.49294944194E+02 -0.20968203004E+03  0.21566795750E+03  0.00000000000E+00 0. -1.
         -5    1    3    3    0  503 -0.82535473128E+02  0.42319526182E+01 -0.14211804205E+03  0.16446775254E+03  0.47000000000E+01 0.  1.
         13    1    4    4    0    0 -0.26893879754E+02  0.25749461231E+02 -0.67236376564E+02  0.76857308406E+02  0.00000000000E+00 0. -1.
        -14    1    4    4    0    0 -0.88571728475E+01  0.65394731106E+02 -0.49846338798E+03  0.50281275792E+03  0.00000000000E+00 0.  1.
</event>
<event>
12    1  0.8331241E-002  0.2414605E+03  0.7818608E-02  0.1118942E+00
         21   -1    0    0  503  502  0.00000000000E+00  0.00000000000E+00  0.51314601275E+03  0.51314601275E+03  0.00000000000E+00 0.  1.
         21   -1    0    0  501  503 -0.00000000000E+00 -0.00000000000E+00 -0.13041340762E+03  0.13041340762E+03  0.00000000000E+00 0.  1.
          6    2    1    2  501    0  0.73479406759E-02 -0.16891995164E+03  0.74987353044E+02  0.25283645561E+03  0.17253759027E+03 0.  0.
         24    2    3    3    0    0 -0.41134619577E+02 -0.12144358565E+03  0.10394308752E+03  0.18350254344E+03  0.80177406928E+02 0.  0.
         -6    2    1    2    0  502 -0.73479406759E-02  0.16891995164E+03  0.30774525209E+03  0.39072296476E+03  0.17153234359E+03 0.  0.
        -24    2    5    5    0    0  0.51083256306E+02  0.63670947533E+02  0.20318583552E+03  0.23374409899E+03  0.81782219477E+02 0.  0.
          5    1    3    3  501    0  0.41141967518E+02 -0.47476365988E+02 -0.28955734476E+02  0.69333912177E+02  0.47000000000E+01 0. -1.
        -11    1    4    4    0    0  0.28648568684E+01 -0.91275250997E+02  0.90322125073E+02  0.12844245843E+03  0.00000000000E+00 0.  1.
         12    1    4    4    0    0 -0.43999476446E+02 -0.30168334652E+02  0.13620962447E+02  0.55060085009E+02  0.00000000000E+00 0. -1.
         -5    1    5    5    0  502 -0.51090604246E+02  0.10524900410E+03  0.10455941656E+03  0.15697886577E+03  0.47000000000E+01 0.  1.
         13    1    6    6    0    0  0.11475809045E+02 -0.19868407489E+02  0.45356416055E+02  0.50829639844E+02  0.00000000000E+00 0. -1.
        -14    1    6    6    0    0  0.39607447261E+02  0.83539355022E+02  0.15782941947E+03  0.18291445915E+03  0.00000000000E+00 0.  1.
</event>
<event>
12    1  0.8331241E-002  0.2507308E+03  0.7818608E-02  0.1113013E+00
         21   -1    0    0  503  502  0.00000000000E+00  0.00000000000E+00  0.74240563668E+03  0.74240563668E+03  0.00000000000E+00 0. -1.
         21   -1    0    0  501  503 -0.00000000000E+00 -0.00000000000E+00 -0.11795990738E+03  0.11795990738E+03  0.00000000000E+00 0. -1.
          6    2    1    2  501    0 -0.54421718042E+02 -0.17422457234E+03  0.82964209719E+02  0.26410030139E+03  0.17190108813E+03 0.  0.
         24    2    3    3    0    0 -0.12356303705E+02 -0.27731383241E+02 -0.13391808196E+02  0.83722016326E+02  0.76865646639E+02 0.  0.
         -6    2    1    2    0  502  0.54421718042E+02  0.17422457234E+03  0.54148151959E+03  0.59626524266E+03  0.17033519470E+03 0.  0.
        -24    2    5    5    0    0  0.62166836483E+02  0.13459627749E+03  0.52617701573E+03  0.55282900836E+03  0.82321243491E+02 0.  0.
          5    1    3    3  501    0 -0.42065414336E+02 -0.14649318910E+03  0.96356017915E+02  0.18037828507E+03  0.47000000000E+01 0. -1.
        -13    1    4    4    0    0  0.27666772184E+02  0.66439127069E+01 -0.12175868443E+02  0.30949048959E+02  0.00000000000E+00 0.  1.
         14    1    4    4    0    0 -0.40023075890E+02 -0.34375295948E+02 -0.12159397535E+01  0.52772967367E+02  0.00000000000E+00 0. -1.
         -5    1    5    5    0  502 -0.77451184417E+01  0.39628294847E+02  0.15304503860E+02  0.43436234305E+02  0.47000000000E+01 0.  1.
         13    1    6    6    0    0  0.69851808748E+02  0.11219644051E+03  0.33399631150E+03  0.35919472789E+03  0.00000000000E+00 0. -1.
        -14    1    6    6    0    0 -0.76849722650E+01  0.22399836988E+02  0.19218070423E+03  0.19363428047E+03  0.00000000000E+00 0.  1.
</event>
<event>
12    1  0.8331241E-002  0.1777594E+03  0.7818608E-02  0.1170324E+00
         21   -1    0    0  503  502  0.00000000000E+00  0.00000000000E+00  0.78620787363E+03  0.78620787363E+03  0.00000000000E+00 0. -1.
         21   -1    0    0  501  503 -0.00000000000E+00 -0.00000000000E+00 -0.48391703892E+02  0.48391703892E+02  0.00000000000E+00 0. -1.
          6    2    1    2  501    0  0.41329404765E+02  0.15486034330E+02  0.19510979731E+03  0.26394359859E+03  0.17219306975E+03 0.  0.
         24    2    3    3    0    0  0.60082364048E+02  0.21286077757E+02  0.21402489204E+03  0.23628162479E+03  0.77196918471E+02 0.  0.
         -6    2    1    2    0  502 -0.41329404765E+02 -0.15486034330E+02  0.54270637243E+03  0.57065597893E+03  0.17079257204E+03 0.  0.
        -24    2    5    5    0    0 -0.64986990909E+02 -0.53679465500E+02  0.29356393459E+03  0.31745158738E+03  0.86550174116E+02 0.  0.
          5    1    3    3  501    0 -0.18752959283E+02 -0.58000434269E+01 -0.18915094735E+02  0.27661973799E+02  0.47000000000E+01 0. -1.
        -11    1    4    4    0    0 -0.46003584778E+01  0.92315796961E+01  0.12580689315E+03  0.12622899717E+03  0.00000000000E+00 0.  1.
         12    1    4    4    0    0  0.64682722526E+02  0.12054498061E+02  0.88217998890E+02  0.11005262761E+03  0.00000000000E+00 0. -1.
         -5    1    5    5    0  502  0.23657586144E+02  0.38193431170E+02  0.24914243784E+03  0.25320439155E+03  0.47000000000E+01 0.  1.
         11    1    6    6    0    0 -0.22819319968E+02 -0.22388159679E+02  0.24114904868E+03  0.24325874031E+03  0.00000000000E+00 0. -1.
        -12    1    6    6    0    0 -0.42167670941E+02 -0.31291305822E+02  0.52414885906E+02  0.74192847076E+02  0.00000000000E+00 0.  1.
</event>
<event>
12    1  0.8331241E-002  0.1929603E+03  0.7818608E-02  0.1156082E+00
         21   -1    0    0  501  502  0.00000000000E+00  0.00000000000E+00  0.31464401216E+03  0.31464401216E+03  0.00000000000E+00 0.  1.
         21   -1    0    0  502  503 -0.00000000000E+00 -0.00000000000E+00 -0.12822767299E+03  0.12822767299E+03  0.00000000000E+00 0.  1.
         -6    2    1    2    0  503  0.76458927398E+02  0.39517578481E+02  0.15720101106E+03  0.24888918172E+03  0.17270223019E+03 0.  0.
        -24    2    3    3    0    0  0.17236656537E+02  0.75733643311E+02  0.51187787705E+02  0.12208313201E+03  0.79065886792E+02 0.  0.
          6    2    1    2  501    0 -0.76458927398E+02 -0.39517578481E+02  0.29215328110E+02  0.19398250343E+03  0.17137114591E+03 0.  0.
         24    2    5    5    0    0 -0.75966192600E+02  0.36467439293E+02 -0.95000199926E+01  0.10857211827E+03  0.67800574771E+02 0.  0.
          5    1    5    5  501    0 -0.49273479800E+00 -0.75985017775E+02  0.38715348102E+02  0.85410385156E+02  0.47000000000E+01 0. -1.
        -11    1    6    6    0    0 -0.54762849846E+02  0.23877034313E+02 -0.38062985021E+02  0.70836948830E+02  0.00000000000E+00 0.  1.
         12    1    6    6    0    0 -0.21203342754E+02  0.12590404980E+02  0.28562965029E+02  0.37735169441E+02  0.00000000000E+00 0. -1.
         -5    1    3    3    0  503  0.59222270861E+02 -0.36216064830E+02  0.10601322335E+03  0.12680604971E+03  0.47000000000E+01 0.  1.
         11    1    4    4    0    0 -0.29159779326E+02  0.28920131207E+02  0.45048583291E+01  0.41315378105E+02  0.00000000000E+00 0. -1.
        -12    1    4    4    0    0  0.46396435863E+02  0.46813512104E+02  0.46682929375E+02  0.80767753908E+02  0.00000000000E+00 0.  1.
</event>
<event>
12    1  0.8331241E-002  0.1831169E+03  0.7818608E-02  0.1164846E+00
         21   -1    0    0  501  502  0.00000000000E+00  0.00000000000E+00  0.37571498866E+03  0.37571498866E+03  0.00000000000E+00 0. -1.
         21   -1    0    0  502  503 -0.00000000000E+00 -0.00000000000E+00 -0.22354066462E+03  0.22354066462E+03  0.00000000000E+00 0. -1.
         -6    2    1    2    0  503 -0.76050454732E+01  0.61726349593E+02 -0.15620358395E+03  0.24060716742E+03  0.17211702538E+03 0.  0.
        -24    2    3    3    0    0  0.20042999144E+02 -0.32615234058E+01 -0.17675282418E+02  0.85043616634E+02  0.80669955821E+02 0.  0.
          6    2    1    2  501    0  0.76050454732E+01 -0.61726349593E+02  0.30837790799E+03  0.35864848585E+03  0.17223188821E+03 0.  0.
         24    2    5    5    0    0  0.28779392427E+02 -0.81354029162E+02  0.30794602146E+03  0.32939313933E+03  0.78881915632E+02 0.  0.
          5    1    5    5  501    0 -0.21174346954E+02  0.19627679569E+02  0.43188653075E+00  0.29255346523E+02  0.47000000000E+01 0. -1.
        -11    1    6    6    0    0  0.71751111151E+01  0.72789629880E+01  0.23728509149E+01  0.10492661395E+02  0.00000000000E+00 0.  1.
         12    1    6    6    0    0  0.21604281312E+02 -0.88632992150E+02  0.30557317055E+03  0.31890047793E+03  0.00000000000E+00 0. -1.
         -5    1    3    3    0  503 -0.27648044617E+02  0.64987872998E+02 -0.13852830153E+03  0.15556355079E+03  0.47000000000E+01 0.  1.
         13    1    4    4    0    0 -0.20647824949E+02  0.18621684131E+02  0.11837960391E+02  0.30219813058E+02  0.00000000000E+00 0. -1.
        -14    1    4    4    0    0  0.40690824093E+02 -0.21883207537E+02 -0.29513242809E+02  0.54823803577E+02  0.00000000000E+00 0.  1.
</event>
<event>
12    1  0.8331241E-002  0.1865636E+03  0.7818608E-02  0.1161855E+00
         21   -1    0    0  503  502  0.00000000000E+00  0.00000000000E+00  0.47834256319E+03  0.47834256319E+03  0.00000000000E+00 0. -1.
         21   -1    0    0  501  503 -0.00000000000E+00 -0.00000000000E+00 -0.72397967971E+02  0.72397967971E+02  0.00000000000E+00 0. -1.
          6    2    1    2  501    0 -0.21671808956E+02 -0.65610290326E+02  0.21076708003E+03  0.28074010546E+03  0.17209842327E+03 0.  0.
         24    2    3    3    0    0 -0.12956306544E+02  0.18287596437E+02  0.42411245233E+02  0.92377177858E+02  0.78946356497E+02 0.  0.
         -6    2    1    2    0  502  0.21671808956E+02  0.65610290326E+02  0.19517751520E+03  0.27000042570E+03  0.17329624907E+03 0.  0.
        -24    2    5    5    0    0 -0.66026690610E+00 -0.22237082920E+02  0.50114613132E+02  0.98882869172E+02  0.82288659954E+02 0.  0.
          5    1    3    3  501    0 -0.87155024125E+01 -0.83897886763E+02  0.16835583480E+03  0.18836292760E+03  0.47000000000E+01 0. -1.
        -13    1    4    4    0    0 -0.50516920950E+01 -0.19950271229E+02 -0.13183501661E+02  0.24440491631E+02  0.00000000000E+00 0.  1.
         14    1    4    4    0    0 -0.79046144489E+01  0.38237867666E+02  0.55594746894E+02  0.67936686227E+02  0.00000000000E+00 0. -1.
         -5    1    5    5    0  502  0.22332075863E+02  0.87847373246E+02  0.14506290206E+03  0.17111755653E+03  0.47000000000E+01 0.  1.
         11    1    6    6    0    0 -0.28894930480E+02  0.17447670948E+02  0.84663084881E+01  0.34799663912E+02  0.00000000000E+00 0. -1.
        -12    1    6    6    0    0  0.28234663574E+02 -0.39684753868E+02  0.41648304644E+02  0.64083205260E+02  0.00000000000E+00 0.  1.
</event>
<event>
12    1  0.8331241E-002  0.2364220E+03  0.7818608E-02  0.1123140E+00
         21   -1    0    0  503  502  0.00000000000E+00  0.00000000000E+00  0.34060745901E+03  0.34060745901E+03  0.00000000000E+00 0.  1.
         21   -1    0    0  501  503 -0.00000000000E+00 -0.00000000000E+00 -0.33390297483E+03  0.33390297483E+03  0.00000000000E+00 0. -1.
          6    2    1    2  501    0  0.15170027159E+03 -0.14484952468E+02  0.24652150901E+03  0.34156726339E+03  0.18075551103E+03 0.  0.
         24    2    3    3    0    0  0.88651018179E+02 -0.49764228094E+02  0.60507103228E+02  0.14195943588E+03  0.78459483000E+02 0.  0.
         -6    2    1    2    0  502 -0.15170027159E+03  0.14484952468E+02 -0.23981702483E+03  0.33294317045E+03  0.17354009077E+03 0.  0.
        -24    2    5    5    0    0 -0.13365481055E+03  0.49983657515E+02 -0.24404117447E+03  0.29262282616E+03  0.75564867154E+02 0.  0.
          5    1    3    3  501    0  0.63049253407E+02  0.35279275626E+02  0.18601440579E+03  0.19960782751E+03  0.47000000000E+01 0. -1.
        -11    1    4    4    0    0  0.28636042445E+02  0.13000825724E+02  0.43161425997E+02  0.53403680496E+02  0.00000000000E+00 0.  1.
         12    1    4    4    0    0  0.60014975734E+02 -0.62765053819E+02  0.17345677230E+02  0.88555755385E+02  0.00000000000E+00 0. -1.
         -5    1    5    5    0  502 -0.18045461038E+02 -0.35498705047E+02  0.42241496430E+01  0.40320344298E+02  0.47000000000E+01 0.  1.
         11    1    6    6    0    0 -0.58073733779E+02  0.42872149535E+02 -0.61156999810E+02  0.94608447755E+02  0.00000000000E+00 0. -1.
        -12    1    6    6    0    0 -0.75581076768E+02  0.71115079795E+01 -0.18288417466E+03  0.19801437840E+03  0.00000000000E+00 0.  1.
</event>
<event>
12    1  0.8331241E-002  0.2538814E+03  0.7818608E-02  0.1111187E+00
         21   -1    0    0  503  502  0.00000000000E+00  0.00000000000E+00  0.11356835034E+03  0.11356835034E+03  0.00000000000E+00 0. -1.
         21   -1    0    0  501  503 -0.00000000000E+00 -0.00000000000E+00 -0.58250065249E+03  0.58250065249E+03  0.00000000000E+00 0. -1.
          6    2    1    2  501    0  0.17530141469E+03  0.66313479918E+02 -0.17182795310E+03  0.30656258665E+03  0.17125335166E+03 0.  0.
         24    2    3    3    0    0  0.17176570885E+03  0.10302370508E+03 -0.15200611798E+03  0.26443021199E+03  0.81854349684E+02 0.  0.
         -6    2    1    2    0  502 -0.17530141469E+03 -0.66313479918E+02 -0.29710434904E+03  0.38950641618E+03  0.16827415254E+03 0.  0.
        -24    2    5    5    0    0 -0.97291641677E+02  0.29049006396E+02 -0.14631239241E+03  0.19472491637E+03  0.78746228929E+02 0.  0.
          5    1    3    3  501    0  0.35357058439E+01 -0.36710225164E+02 -0.19821835115E+02  0.42132374663E+02  0.47000000000E+01 0. -1.
        -13    1    4    4    0    0  0.46542168780E+01  0.36031186331E+02 -0.24974567702E+02  0.44086700433E+02  0.00000000000E+00 0.  1.
         14    1    4    4    0    0  0.16711149197E+03  0.66992518751E+02 -0.12703155028E+03  0.22034351155E+03  0.00000000000E+00 0. -1.
         -5    1    5    5    0  502 -0.78009773017E+02 -0.95362486314E+02 -0.15079195663E+03  0.19478149981E+03  0.47000000000E+01 0.  1.
         11    1    6    6    0    0 -0.41642320457E+02 -0.23445919830E+02 -0.33272520751E+02  0.58231045387E+02  0.00000000000E+00 0. -1.
        -12    1    6    6    0    0 -0.55649321220E+02  0.52494926226E+02 -0.11303987166E+03  0.13649387099E+03  0.00000000000E+00 0.  1.
</event>
<event>
12    1  0.8331241E-002  0.2332037E+03  0.7818608E-02  0.1124855E+00
         21   -1    0    0  503  502  0.00000000000E+00  0.00000000000E+00  0.43172159895E+03  0.43172159895E+03  0.00000000000E+00 0.  1.
         21   -1    0    0  501  503 -0.00000000000E+00 -0.00000000000E+00 -0.12631352808E+03  0.12631352808E+03  0.00000000000E+00 0.  1.
          6    2    1    2  501    0  0.15057923590E+03  0.26829758189E+02  0.12082481250E+03  0.26264535223E+03  0.17603977825E+03 0.  0.
         24    2    3    3    0    0  0.17288091675E+03  0.35218403413E+02  0.13472344949E+03  0.23466327854E+03  0.76080872345E+02 0.  0.
         -6    2    1    2    0  502 -0.15057923590E+03 -0.26829758189E+02  0.18458325836E+03  0.29538977479E+03  0.17259837073E+03 0.  0.
        -24    2    5    5    0    0 -0.15241171252E+03  0.10059118917E+02  0.91372441384E+02  0.19501799775E+03  0.79703076567E+02 0.  0.
          5    1    3    3  501    0 -0.22301680859E+02 -0.83886452241E+01 -0.13898636991E+02  0.27982073691E+02  0.47000000000E+01 0. -1.
        -11    1    4    4    0    0  0.13938225693E+03  0.49453993318E+02  0.77833908783E+02  0.16712638439E+03  0.00000000000E+00 0.  1.
         12    1    4    4    0    0  0.33498659820E+02 -0.14235589905E+02  0.56889540708E+02  0.67536894152E+02  0.00000000000E+00 0. -1.
         -5    1    5    5    0  502  0.18324766284E+01 -0.36888877106E+02  0.93210816980E+02  0.10037177704E+03  0.47000000000E+01 0.  1.
         13    1    6    6    0    0 -0.69750956633E+02  0.40004759074E+02  0.64510141759E+02  0.10308799683E+03  0.00000000000E+00 0. -1.
        -14    1    6    6    0    0 -0.82660755891E+02 -0.29945640157E+02  0.26862299625E+02  0.91930000925E+02  0.00000000000E+00 0.  1.
</event>
<event>
12    1  0.8331241E-002  0.1830688E+03  0.7818608E-02  0.1165132E+00
         21   -1    0    0  501  502  0.00000000000E+00  0.00000000000E+00  0.37302605996E+03  0.37302605996E+03  0.00000000000E+00 0. -1.
         21   -1    0    0  502  503 -0.00000000000E+00 -0.00000000000E+00 -0.22941048493E+03  0.22941048493E+03  0.00000000000E+00 0.  1.
         -6    2    1    2    0  503 -0.51503368746E+02  0.25917029656E+02 -0.16368467296E+03  0.24473884698E+03  0.17256923724E+03 0.  0.
        -24    2    3    3    0    0 -0.59082104016E+02  0.80064575329E+02 -0.10356632311E+03  0.16334044454E+03  0.77801582916E+02 0.  0.
          6    2    1    2  501    0  0.51503368746E+02 -0.25917029656E+02  0.30730024798E+03  0.35769769791E+03  0.17375244247E+03 0.  0.
         24    2    5    5    0    0  0.69989057995E+02 -0.11535562722E+02  0.91818306582E+02  0.14089570445E+03  0.79934102003E+02 0.  0.
          5    1    5    5  501    0 -0.18485689249E+02 -0.14381466934E+02  0.21548194140E+03  0.21680199346E+03  0.47000000000E+01 0. -1.
        -13    1    6    6    0    0  0.41787400164E+02 -0.19620928743E+02  0.10025142934E+03  0.11036990868E+03  0.00000000000E+00 0.  1.
         14    1    6    6    0    0  0.28201657831E+02  0.80853660210E+01 -0.84331227578E+01  0.30525795773E+02  0.00000000000E+00 0. -1.
         -5    1    3    3    0  503  0.75787352705E+01 -0.54147545673E+02 -0.60118349849E+02  0.81398402437E+02  0.47000000000E+01 0.  1.
         11    1    4    4    0    0  0.95947297103E+01 -0.91223000440E+01 -0.67152005797E+01  0.14844834628E+02  0.00000000000E+00 0. -1.
        -12    1    4    4    0    0 -0.68676833727E+02  0.89186875373E+02 -0.96851122527E+02  0.14849560992E+03  0.00000000000E+00 0.  1.
</event>
<event>
12    1  0.8331241E-002  0.2015538E+03  0.7818608E-02  0.1148550E+00
         21   -1    0    0  503  502  0.00000000000E+00  0.00000000000E+00  0.16300153380E+03  0.16300153380E+03  0.00000000000E+00 0.  1.
         21   -1    0    0  501  503 -0.00000000000E+00 -0.00000000000E+00 -0.46973743369E+03  0.46973743369E+03  0.00000000000E+00 0.  1.
          6    2    1    2  501    0  0.37903193099E+02 -0.97826006699E+02  0.63617975312E+02  0.21135562451E+03  0.17209698892E+03 0.  0.
         24    2    3    3    0    0  0.84732879470E+02 -0.37308439688E+02  0.23435714244E+02  0.12479870944E+03  0.80336197573E+02 0.  0.
         -6    2    1    2    0  502 -0.37903193099E+02  0.97826006699E+02 -0.37035387520E+03  0.42138334297E+03  0.17145071953E+03 0.  0.
        -24    2    5    5    0    0 -0.66872543877E+02  0.24732441339E+02 -0.28936962658E+03  0.30841241261E+03  0.79371308982E+02 0.  0.
          5    1    3    3  501    0 -0.46829686372E+02 -0.60517567010E+02  0.40182261068E+02  0.86556915073E+02  0.47000000000E+01 0. -1.
        -13    1    4    4    0    0  0.32476602280E+02 -0.25859687856E+02  0.50067866944E+02  0.65040329428E+02  0.00000000000E+00 0.  1.
         14    1    4    4    0    0  0.52256277190E+02 -0.11448751832E+02 -0.26632152700E+02  0.59758380013E+02  0.00000000000E+00 0. -1.
         -5    1    5    5    0  502  0.28969350778E+02  0.73093565360E+02 -0.80984248621E+02  0.11297093036E+03  0.47000000000E+01 0.  1.
         13    1    6    6    0    0 -0.18151302063E+02 -0.28629939660E+02 -0.78527259352E+02  0.85531711505E+02  0.00000000000E+00 0. -1.
        -14    1    6    6    0    0 -0.48721241814E+02  0.53362380999E+02 -0.21084236723E+03  0.22288070111E+03  0.00000000000E+00 0.  1.
</event>
<event>
12    1  0.8331241E-002  0.2264380E+03  0.7818608E-02  0.1130006E+00
         21   -1    0    0  503  502  0.00000000000E+00  0.00000000000E+00  0.10720168763E+04  0.10720168763E+04  0.00000000000E+00 0.  1.
         21   -1    0    0  501  503 -0.00000000000E+00 -0.00000000000E+00 -0.66711170980E+02  0.66711170980E+02  0.00000000000E+00 0.  1.
          6    2    1    2  501    0  0.12580134982E+03  0.65870527518E+02  0.81680944582E+03  0.84761538326E+03  0.17637817650E+03 0.  0.
         24    2    3    3    0    0  0.76588153353E+01  0.19810136924E+02  0.18648163008E+03  0.20464223971E+03  0.81559480979E+02 0.  0.
         -6    2    1    2    0  502 -0.12580134982E+03 -0.65870527518E+02  0.18849625946E+03  0.29111266398E+03  0.17044306171E+03 0.  0.
        -24    2    5    5    0    0 -0.99963721620E+02  0.22281756841E+02  0.10415981887E+03  0.16632030251E+03  0.79523284848E+02 0.  0.
          5    1    3    3  501    0  0.11814253448E+03  0.46060390594E+02  0.63032781573E+03  0.64297314355E+03  0.47000000000E+01 0. -1.
        -13    1    4    4    0    0  0.12643380704E+02  0.60491859364E-01  0.18364149871E+03  0.18407623090E+03  0.00000000000E+00 0.  1.
         14    1    4    4    0    0 -0.49845653684E+01  0.19749645065E+02  0.28401313749E+01  0.20566008809E+02  0.00000000000E+00 0. -1.
         -5    1    5    5    0  502 -0.25837628199E+02 -0.88152284359E+02  0.84336440591E+02  0.12479236147E+03  0.47000000000E+01 0.  1.
         11    1    6    6    0    0  0.10946826204E+02  0.35348409958E+01 -0.19711899524E+01  0.11671062276E+02  0.00000000000E+00 0. -1.
        -12    1    6    6    0    0 -0.11091054782E+03  0.18746915846E+02  0.10613100882E+03  0.15464924023E+03  0.00000000000E+00 0.  1.
</event>
<event>
12    1  0.8331241E-002  0.1901912E+03  0.7818608E-02  0.1159562E+00
         21   -1    0    0  501  502  0.00000000000E+00  0.00000000000E+00  0.75086170374E+02  0.75086170374E+02  0.00000000000E+00 0. -1.
         21   -1    0    0  502  503 -0.00000000000E+00 -0.00000000000E+00 -0.64614237260E+03  0.64614237260E+03  0.00000000000E+00 0. -1.
         -6    2    1    2    0  503  0.13425659243E+02  0.66185256764E+02 -0.47192060019E+03  0.50675114872E+03  0.17183404000E+03 0.  0.
        -24    2    3    3    0    0  0.16640470858E+00 -0.21086286830E+02 -0.12471210419E+03  0.14846640183E+03  0.77746410590E+02 0.  0.
          6    2    1    2  501    0 -0.13425659243E+02 -0.66185256764E+02 -0.99135602032E+02  0.21447739425E+03  0.17779749300E+03 0.  0.
         24    2    5    5    0    0  0.47514438182E+02 -0.32791123893E+02 -0.10185048544E+03  0.14477571439E+03  0.85168107003E+02 0.  0.
          5    1    5    5  501    0 -0.60940097425E+02 -0.33394132871E+02  0.27148834072E+01  0.69701679867E+02  0.47000000000E+01 0. -1.
        -11    1    6    6    0    0  0.36426336306E+02  0.18073262975E+02 -0.14658569590E+02  0.43224928846E+02  0.00000000000E+00 0.  1.
         12    1    6    6    0    0  0.11088101875E+02 -0.50864386869E+02 -0.87191915850E+02  0.10155078554E+03  0.00000000000E+00 0. -1.
         -5    1    3    3    0  503  0.13259254534E+02  0.87271543594E+02 -0.34720849601E+03  0.35828474688E+03  0.47000000000E+01 0.  1.
         11    1    4    4    0    0 -0.31070116420E-02 -0.73673640177E+00 -0.12787040212E+03  0.12787252452E+03  0.00000000000E+00 0. -1.
        -12    1    4    4    0    0  0.16951172022E+00 -0.20349550428E+02  0.31582979300E+01  0.20593877310E+02  0.00000000000E+00 0.  1.
</event>
<event>
12    1  0.8331241E-002  0.1780293E+03  0.7818608E-02  0.1170103E+00
         21   -1    0    0  503  502  0.00000000000E+00  0.00000000000E+00  0.13064935830E+04  0.13064935830E+04  0.00000000000E+00 0.  1.
         21   -1    0    0  501  503 -0.00000000000E+00 -0.00000000000E+00 -0.24383092957E+02  0.24383092957E+02  0.00000000000E+00 0.  1.
          6    2    1    2  501    0  0.25606441209E+02 -0.16230839842E+02  0.56057298802E+03  0.58770053029E+03  0.17386980305E+03 0.  0.
         24    2    3    3    0    0  0.23874752814E+02  0.53886121854E+02  0.25229466312E+03  0.27150912834E+03  0.81184307504E+02 0.  0.
         -6    2    1    2    0  502 -0.25606441209E+02  0.16230839842E+02  0.72153750204E+03  0.74317614568E+03  0.17542886498E+03 0.  0.
        -24    2    5    5    0    0 -0.37837121545E+02 -0.37030126969E+02  0.62351102777E+03  0.63084805577E+03  0.80002435208E+02 0.  0.
          5    1    3    3  501    0  0.17316883952E+01 -0.70116961696E+02  0.30827832490E+03  0.31619140195E+03  0.47000000000E+01 0. -1.
        -11    1    4    4    0    0  0.54104970401E+02  0.35840540126E+02  0.15488258800E+03  0.16793006939E+03  0.00000000000E+00 0.  1.
         12    1    4    4    0    0 -0.30230217587E+02  0.18045581727E+02  0.97412075120E+02  0.10357905896E+03  0.00000000000E+00 0. -1.
         -5    1    5    5    0  502  0.12230680336E+02  0.53260966811E+02  0.98026474269E+02  0.11232808992E+03  0.47000000000E+01 0.  1.
         11    1    6    6    0    0 -0.69353742831E+01  0.25035904798E+02  0.13980046997E+03  0.14219376692E+03  0.00000000000E+00 0. -1.
        -12    1    6    6    0    0 -0.30901747262E+02 -0.62066031767E+02  0.48371055780E+03  0.48865428885E+03  0.00000000000E+00 0.  1.
</event>
<event>
12    1  0.8331241E-002  0.1935035E+03  0.7818608E-02  0.1157482E+00
         21   -1    0    0  503  502  0.00000000000E+00  0.00000000000E+00  0.40502524170E+03  0.40502524170E+03  0.00000000000E+00 0. -1.
         21   -1    0    0  501  503 -0.00000000000E+00 -0.00000000000E+00 -0.15186337926E+03  0.15186337926E+03  0.00000000000E+00 0. -1.
          6    2    1    2  501    0  0.65507387724E+02  0.60890494147E+02 -0.55826021698E+02  0.19231062068E+03  0.16083519516E+03 0.  0.
         24    2    3    3    0    0  0.11281075066E+02  0.16196479710E+02 -0.81231375437E+02  0.11744026667E+03  0.82486915753E+02 0.  0.
         -6    2    1    2    0  502 -0.65507387724E+02 -0.60890494147E+02  0.30898788414E+03  0.36457800028E+03  0.17159468413E+03 0.  0.
        -24    2    5    5    0    0 -0.71223141590E+02 -0.10239100693E+03  0.26297193023E+03  0.30217190749E+03  0.81221742095E+02 0.  0.
          5    1    3    3  501    0  0.54226312657E+02  0.44694014437E+02  0.25405353739E+02  0.74870354010E+02  0.47000000000E+01 0. -1.
        -13    1    4    4    0    0 -0.21858654494E+02 -0.22918047821E+02 -0.43398934659E+02  0.53726206098E+02  0.00000000000E+00 0.  1.
         14    1    4    4    0    0  0.33139729560E+02  0.39114527531E+02 -0.37832440777E+02  0.63714060571E+02  0.00000000000E+00 0. -1.
         -5    1    5    5    0  502  0.57157538663E+01  0.41500512785E+02  0.46015953904E+02  0.62406092791E+02  0.47000000000E+01 0.  1.
         11    1    6    6    0    0 -0.84977671858E+02 -0.95975948820E+02  0.20122939441E+03  0.23859140102E+03  0.00000000000E+00 0. -1.
        -12    1    6    6    0    0  0.13754530268E+02 -0.64150581126E+01  0.61742535820E+02  0.63580506470E+02  0.00000000000E+00 0.  1.
</event>
<event>
12    1  0.8331241E-002  0.1849768E+03  0.7818608E-02  0.1163323E+00
         21   -1    0    0  501  502  0.00000000000E+00  0.00000000000E+00  0.72817804211E+03  0.72817804211E+03  0.00000000000E+00 0.  1.
         21   -1    0    0  502  503 -0.00000000000E+00 -0.00000000000E+00 -0.71910915718E+02  0.71910915718E+02  0.00000000000E+00 0.  1.
         -6    2    1    2    0  503  0.65117385326E+02  0.20478139744E+01  0.90722132191E+02  0.20506159675E+03  0.17197466609E+03 0.  0.
        -24    2    3    3    0    0  0.75981457959E+02 -0.37885812956E+02  0.11388853129E+02  0.11545924298E+03  0.77411976058E+02 0.  0.
          6    2    1    2  501    0 -0.65117385326E+02 -0.20478139744E+01  0.56554499420E+03  0.59502736108E+03  0.17312409582E+03 0.  0.
         24    2    5    5    0    0 -0.30174058449E+02  0.42478816114E+02  0.15936747462E+03  0.18489820546E+03  0.77938634786E+02 0.  0.
          5    1    5    5  501    0 -0.34943326877E+02 -0.44526630088E+02  0.40617751958E+03  0.41012915562E+03  0.47000000000E+01 0. -1.
        -11    1    6    6    0    0 -0.44632853947E+02  0.16358447551E+02  0.14333211202E+03  0.15100922089E+03  0.00000000000E+00 0.  1.
         12    1    6    6    0    0  0.14458795498E+02  0.26120368563E+02  0.16035362598E+02  0.33888984564E+02  0.00000000000E+00 0. -1.
         -5    1    3    3    0  503 -0.10864072633E+02  0.39933626930E+02  0.79333279062E+02  0.89602353767E+02  0.47000000000E+01 0.  1.
         13    1    4    4    0    0  0.75771899111E+01  0.15607093121E+02 -0.16811358569E+02  0.24158165070E+02  0.00000000000E+00 0. -1.
        -14    1    4    4    0    0  0.68404268048E+02 -0.53492906077E+02  0.28200211698E+02  0.91301077910E+02  0.00000000000E+00 0.  1.
</event>
<event>
12    1  0.8331241E-002  0.2067856E+03  0.7818608E-02  0.1144290E+00
         21   -1    0    0  503  502  0.00000000000E+00  0.00000000000E+00  0.92167793931E+02  0.92167793931E+02  0.00000000000E+00 0. -1.
         21   -1    0    0  501  503 -0.00000000000E+00 -0.00000000000E+00 -0.47921859857E+03  0.47921859857E+03  0.00000000000E+00 0.  1.
          6    2    1    2  501    0 -0.36093820580E+02 -0.10631422839E+03 -0.24764291802E+03  0.32262564847E+03  0.17365141854E+03 0.  0.
         24    2    3    3    0    0 -0.40796196737E+02 -0.49947649415E+02 -0.44339108798E+02  0.11154786088E+03  0.79485038520E+02 0.  0.
         -6    2    1    2    0  502  0.36093820580E+02  0.10631422839E+03 -0.13940788662E+03  0.24876074403E+03  0.17274799530E+03 0.  0.
        -24    2    5    5    0    0  0.20156688033E+02  0.13743634161E+03 -0.77908332833E+02  0.17786036857E+03  0.79180567797E+02 0.  0.
          5    1    3    3  501    0  0.47023761567E+01 -0.56366578974E+02 -0.20330380922E+03  0.21107778758E+03  0.47000000000E+01 0. -1.
        -11    1    4    4    0    0 -0.29259403492E+02 -0.57797029901E+02 -0.61571923789E+02  0.89373995978E+02  0.00000000000E+00 0.  1.
         12    1    4    4    0    0 -0.11536793245E+02  0.78493804859E+01  0.17232814990E+02  0.22173864906E+02  0.00000000000E+00 0. -1.
         -5    1    5    5    0  502  0.15937132548E+02 -0.31122113217E+02 -0.61499553787E+02  0.70900375464E+02  0.47000000000E+01 0.  1.
         11    1    6    6    0    0 -0.29658938492E+02  0.69006196793E+02 -0.32955807940E+02  0.82021906252E+02  0.00000000000E+00 0. -1.
        -12    1    6    6    0    0  0.49815626525E+02  0.68430144813E+02 -0.44952524893E+02  0.95838462318E+02  0.00000000000E+00 0.  1.
</event>
<event>
12    1  0.8331241E-002  0.2313142E+03  0.7818608E-02  0.1126399E+00
         21   -1    0    0  501  502  0.00000000000E+00  0.00000000000E+00  0.24781353692E+03  0.24781353692E+03  0.00000000000E+00 0. -1.
         21   -1    0    0  502  503 -0.00000000000E+00 -0.00000000000E+00 -0.25331693532E+03  0.25331693532E+03  0.00000000000E+00 0. -1.
         -6    2    1    2    0  503  0.78608645027E+02  0.13007149217E+03  0.98064458023E+02  0.24768904156E+03  0.16921971291E+03 0.  0.
        -24    2    3    3    0    0  0.40462237245E+02  0.97364603698E+02  0.12568638990E+03  0.19015687577E+03  0.96153575600E+02 0.  0.
          6    2    1    2  501    0 -0.78608645027E+02 -0.13007149217E+03 -0.10356785643E+03  0.25344143068E+03  0.17437988918E+03 0.  0.
         24    2    5    5    0    0 -0.12170384855E+03 -0.84146712441E+02 -0.78014159954E+02  0.18531387852E+03  0.79765459000E+02 0.  0.
          5    1    5    5  501    0  0.43095203527E+02 -0.45924779728E+02 -0.25553696472E+02  0.68127552162E+02  0.47000000000E+01 0. -1.
        -13    1    6    6    0    0 -0.39586115503E+02  0.12191832379E+02 -0.21772730927E+02  0.46794798102E+02  0.00000000000E+00 0.  1.
         14    1    6    6    0    0 -0.82117733051E+02 -0.96338544820E+02 -0.56241429028E+02  0.13851908041E+03  0.00000000000E+00 0. -1.
         -5    1    3    3    0  503  0.38146407782E+02  0.32706888471E+02 -0.27621931879E+02  0.57532165793E+02  0.47000000000E+01 0.  1.
         11    1    4    4    0    0  0.28669391181E+02  0.12692950387E+02 -0.71786476835E+01  0.32164856020E+02  0.00000000000E+00 0. -1.
        -12    1    4    4    0    0  0.11792846064E+02  0.84671653312E+02  0.13286503758E+03  0.15799201975E+03  0.00000000000E+00 0.  1.
</event>
<event>
12    1  0.8331241E-002  0.1845618E+03  0.7818608E-02  0.1163796E+00
         21   -1    0    0  501  502  0.00000000000E+00  0.00000000000E+00  0.60936625295E+02  0.60936625295E+02  0.00000000000E+00 0. -1.
         21   -1    0    0  502  503 -0.00000000000E+00 -0.00000000000E+00 -0.57172580753E+03  0.57172580753E+03  0.00000000000E+00 0.  1.
         -6    2    1    2    0  503 -0.28616764001E+02 -0.59653937042E+02 -0.30907188066E+03  0.35925263500E+03  0.17076157928E+03 0.  0.
        -24    2    3    3    0    0 -0.60532009234E+01  0.33425544725E+02 -0.12939353144E+03  0.15558795107E+03  0.79441904923E+02 0.  0.
          6    2    1    2  501    0  0.28616764001E+02  0.59653937042E+02 -0.20171730158E+03  0.27340979782E+03  0.17229491113E+03 0.  0.
         24    2    5    5    0    0  0.68312766199E+02  0.22835000747E+02 -0.18740549051E+03  0.21721082455E+03  0.82895435009E+02 0.  0.
          5    1    5    5  501    0 -0.39696002198E+02  0.36818936295E+02 -0.14311811071E+02  0.56198973269E+02  0.47000000000E+01 0. -1.
        -11    1    6    6    0    0  0.14048950952E+01 -0.26499480351E+02 -0.40611561980E+02  0.48512834957E+02  0.00000000000E+00 0.  1.
         12    1    6    6    0    0  0.66907871104E+02  0.49334481098E+02 -0.14679392853E+03  0.16869798960E+03  0.00000000000E+00 0. -1.
         -5    1    3    3    0  503 -0.22563563077E+02 -0.93079481766E+02 -0.17967834922E+03  0.20366468393E+03  0.47000000000E+01 0.  1.
         11    1    4    4    0    0 -0.19147265840E+02  0.97020584146E+01  0.18797296350E+01  0.21547183346E+02  0.00000000000E+00 0. -1.
        -12    1    4    4    0    0  0.13094064917E+02  0.23723486310E+02 -0.13127326107E+03  0.13404076772E+03  0.00000000000E+00 0.  1.
</event>
<event>
12    1  0.8331241E-002  0.1733439E+03  0.7818608E-02  0.1175150E+00
         21   -1    0    0  501  502  0.00000000000E+00  0.00000000000E+00  0.12753823061E+04  0.12753823061E+04  0.00000000000E+00 0. -1.
         21   -1    0    0  502  503 -0.00000000000E+00 -0.00000000000E+00 -0.23363558490E+02  0.23363558490E+02  0.00000000000E+00 0. -1.
         -6    2    1    2    0  503 -0.38856687233E+01 -0.25416426581E+02  0.68037373122E+03  0.70139661934E+03  0.16848652864E+03 0.  0.
        -24    2    3    3    0    0  0.37638944596E+02 -0.67662128711E+02  0.41456119735E+03  0.42902300457E+03  0.78771176810E+02 0.  0.
          6    2    1    2  501    0  0.38856687233E+01  0.25416426581E+02  0.57164501635E+03  0.59734924520E+03  0.17142637739E+03 0.  0.
         24    2    5    5    0    0 -0.20778066841E+02  0.76244971588E+02  0.30570550590E+03  0.32543426942E+03  0.78781873667E+02 0.  0.
          5    1    5    5  501    0  0.24663735564E+02 -0.50828545007E+02  0.26593951044E+03  0.27191497578E+03  0.47000000000E+01 0. -1.
        -11    1    6    6    0    0  0.17335394697E+02 -0.38452306238E+01  0.22490892134E+02  0.28655574271E+02  0.00000000000E+00 0.  1.
         12    1    6    6    0    0 -0.38113461538E+02  0.80090202212E+02  0.28321461377E+03  0.29677869515E+03  0.00000000000E+00 0. -1.
         -5    1    3    3    0  503 -0.41524613320E+02  0.42245702131E+02  0.26581253387E+03  0.27237361477E+03  0.47000000000E+01 0.  1.
         13    1    4    4    0    0  0.28675910615E+02 -0.74289532926E+02  0.40878350196E+03  0.41646751857E+03  0.00000000000E+00 0. -1.
        -14    1    4    4    0    0  0.89630339809E+01  0.66274042145E+01  0.57776953895E+01  0.12555486003E+02  0.00000000000E+00 0.  1.
</event>
<event>
12    1  0.8331241E-002  0.2179172E+03  0.7818608E-02  0.1135556E+00
         21   -1    0    0  503  502  0.00000000000E+00  0.00000000000E+00  0.22879114365E+03  0.22879114365E+03  0.00000000000E+00 0.  1.
         21   -1    0    0  501  503 -0.00000000000E+00 -0.00000000000E+00 -0.20740346276E+03  0.20740346276E+03  0.00000000000E+00 0. -1.
          6    2    1    2  501    0 -0.53398436090E+02 -0.12180478670E+03  0.11120081202E+01  0.21733621148E+03  0.17188947966E+03 0.  0.
         24    2    3    3    0    0 -0.98873877083E+02 -0.71631871634E+02 -0.15040812568E+02  0.14756271539E+03  0.81494541709E+02 0.  0.
         -6    2    1    2    0  502  0.53398436090E+02  0.12180478670E+03  0.20275672768E+02  0.21885839493E+03  0.17262704042E+03 0.  0.
        -24    2    5    5    0    0  0.45531217973E+01  0.68861421651E+02 -0.51009798134E+02  0.11740607611E+03  0.80122162307E+02 0.  0.
          5    1    3    3  501    0  0.45475440994E+02 -0.50172915065E+02  0.16152820688E+02  0.69773496084E+02  0.47000000000E+01 0. -1.
        -11    1    4    4    0    0  0.12845996514E+01 -0.88190204628E+01  0.21946354157E+02  0.23686869337E+02  0.00000000000E+00 0.  1.
         12    1    4    4    0    0 -0.10015847673E+03 -0.62812851171E+02 -0.36987166725E+02  0.12387584606E+03  0.00000000000E+00 0. -1.
         -5    1    5    5    0  502  0.48845314292E+02  0.52943365048E+02  0.71285470902E+02  0.10145231881E+03  0.47000000000E+01 0.  1.
         13    1    6    6    0    0 -0.89052831503E+00  0.78725106941E+02 -0.63088332492E+02  0.10088891515E+03  0.00000000000E+00 0. -1.
        -14    1    6    6    0    0  0.54436501123E+01 -0.98636852901E+01  0.12078534358E+02  0.16517160963E+02  0.00000000000E+00 0.  1.
</event>
<event>
12    1  0.8331241E-002  0.2740710E+03  0.7818608E-02  0.1099389E+00
         21   -1    0    0  501  502  0.00000000000E+00  0.00000000000E+00  0.34869188787E+02  0.34869188787E+02  0.00000000000E+00 0.  1.
         21   -1    0    0  502  503 -0.00000000000E+00 -0.00000000000E+00 -0.22203047654E+04  0.22203047654E+04  0.00000000000E+00 0. -1.
         -6    2    1    2    0  503  0.14631254388E+02  0.21383904211E+03 -0.13244530554E+04  0.13525127802E+04  0.17080314656E+03 0.  0.
        -24    2    3    3    0    0  0.41917826029E+02  0.49730677360E+02 -0.39874204971E+03  0.41196024653E+03  0.80534328734E+02 0.  0.
          6    2    1    2  501    0 -0.14631254388E+02 -0.21383904211E+03 -0.86098252114E+03  0.90266117400E+03  0.16602735861E+03 0.  0.
         24    2    5    5    0    0 -0.38571196899E+02 -0.22454417211E+03 -0.71751645844E+03  0.75674228626E+03  0.76949315862E+02 0.  0.
          5    1    5    5  501    0  0.23939942511E+02  0.10705129995E+02 -0.14346606270E+03  0.14591888775E+03  0.47000000000E+01 0. -1.
        -13    1    6    6    0    0  0.65470939571E+01 -0.88415408990E+02 -0.18335586108E+03  0.20366521740E+03  0.00000000000E+00 0.  1.
         14    1    6    6    0    0 -0.45118290856E+02 -0.13612876312E+03 -0.53416059736E+03  0.55307706886E+03  0.00000000000E+00 0. -1.
         -5    1    3    3    0  503 -0.27286571641E+02  0.16410836475E+03 -0.92571100574E+03  0.94055253363E+03  0.47000000000E+01 0.  1.
         11    1    4    4    0    0  0.51755108568E+02  0.48593447251E+02 -0.39507113315E+03  0.40139894696E+03  0.00000000000E+00 0. -1.
        -12    1    4    4    0    0 -0.98372825396E+01  0.11372301091E+01 -0.36709165624E+01  0.10561299565E+02  0.00000000000E+00 0.  1.
</event>
<event>
12    1  0.8331241E-002  0.2511275E+03  0.7818608E-02  0.1112928E+00
         21   -1    0    0  503  502  0.00000000000E+00  0.00000000000E+00  0.74470315745E+03  0.74470315745E+03  0.00000000000E+00 0. -1.
         21   -1    0    0  501  503 -0.00000000000E+00 -0.00000000000E+00 -0.27593659096E+03  0.27593659096E+03  0.00000000000E+00 0.  1.
          6    2    1    2  501    0  0.17222753458E+03 -0.54472151071E+02 -0.19156204704E+03  0.31417042207E+03  0.17139865031E+03 0.  0.
         24    2    3    3    0    0  0.17909515443E+03 -0.89069755624E+02 -0.15797529869E+03  0.26523865215E+03  0.73395176198E+02 0.  0.
         -6    2    1    2    0  502 -0.17222753458E+03  0.54472151071E+02  0.66032861353E+03  0.70646932634E+03  0.17445770920E+03 0.  0.
        -24    2    5    5    0    0 -0.16356063083E+03  0.90325405062E+02  0.48557310899E+03  0.52780162526E+03  0.88783741143E+02 0.  0.
          5    1    3    3  501    0 -0.68676198513E+01  0.34597604553E+02 -0.33586748352E+02  0.48931769926E+02  0.47000000000E+01 0. -1.
        -11    1    4    4    0    0  0.50306152412E+02 -0.64502141783E+02 -0.65569039817E+02  0.10483574890E+03  0.00000000000E+00 0.  1.
         12    1    4    4    0    0  0.12878900202E+03 -0.24567613841E+02 -0.92406258872E+02  0.16040290325E+03  0.00000000000E+00 0. -1.
         -5    1    5    5    0  502 -0.86669037493E+01 -0.35853253992E+02  0.17475550454E+03  0.17866770108E+03  0.47000000000E+01 0.  1.
         11    1    6    6    0    0 -0.48174552284E+02  0.62730401441E+02  0.27453378440E+03  0.28570034919E+03  0.00000000000E+00 0. -1.
        -12    1    6    6    0    0 -0.11538607855E+03  0.27595003622E+02  0.21103932459E+03  0.24210127607E+03  0.00000000000E+00 0.  1.
</event>
<event>
12    1  0.8331241E-002  0.2268267E+03  0.7818608E-02  0.1129682E+00
         21   -1    0    0  503  502  0.00000000000E+00  0.00000000000E+00  0.40231855233E+03  0.40231855233E+03  0.00000000000E+00 0. -1.
         21   -1    0    0  501  503 -0.00000000000E+00 -0.00000000000E+00 -0.37948013519E+03  0.37948013519E+03  0.00000000000E+00 0. -1.
          6    2    1    2  501    0 -0.88642829009E+02 -0.11918625049E+03 -0.30844364296E+03  0.38030380732E+03  0.16562183292E+03 0.  0.
         24    2    3    3    0    0 -0.22299408185E+02 -0.13129535525E+03 -0.20640934582E+03  0.25790622688E+03  0.78581613021E+02 0.  0.
         -6    2    1    2    0  502  0.88642829009E+02  0.11918625049E+03  0.33128206010E+03  0.40149488019E+03  0.17142759998E+03 0.  0.
        -24    2    5    5    0    0  0.10616907839E+02  0.11630260161E+03  0.16016720865E+03  0.21334934559E+03  0.78901170225E+02 0.  0.
          5    1    3    3  501    0 -0.66343420824E+02  0.12109104765E+02 -0.10203429714E+03  0.12239758044E+03  0.47000000000E+01 0. -1.
        -13    1    4    4    0    0 -0.21459731339E+02  0.79618156097E+00 -0.19337124603E+02  0.28897722439E+02  0.00000000000E+00 0.  1.
         14    1    4    4    0    0 -0.83967684539E+00 -0.13209153681E+03 -0.18707222122E+03  0.22900850444E+03  0.00000000000E+00 0. -1.
         -5    1    5    5    0  502  0.78025921170E+02  0.28836488815E+01  0.17111485145E+03  0.18814553460E+03  0.47000000000E+01 0.  1.
         13    1    6    6    0    0  0.36181616575E+02  0.23845634210E+02  0.65801581222E+02  0.78788144668E+02  0.00000000000E+00 0. -1.
        -14    1    6    6    0    0 -0.25564708736E+02  0.92456967397E+02  0.94365627433E+02  0.13456120092E+03  0.00000000000E+00 0.  1.
</event>
<event>
12    1  0.8331241E-002  0.2067208E+03  0.7818608E-02  0.1144320E+00
         21   -1    0    0  503  502  0.00000000000E+00  0.00000000000E+00  0.45419280364E+03  0.45419280364E+03  0.00000000000E+00 0. -1.
         21   -1    0    0  501  503 -0.00000000000E+00 -0.00000000000E+00 -0.13700283316E+03  0.13700283316E+03  0.00000000000E+00 0. -1.
          6    2    1    2  501    0  0.11000393542E+03 -0.25937458699E+02  0.32477300876E+03  0.38498183853E+03  0.17308925790E+03 0.  0.
         24    2    3    3    0    0  0.45776677864E+02  0.18216425981E+02  0.66187224581E+02  0.11486444937E+03  0.79910891739E+02 0.  0.
         -6    2    1    2    0  502 -0.11000393542E+03  0.25937458699E+02 -0.75830382775E+01  0.20621379828E+03  0.17231659977E+03 0.  0.
        -24    2    5    5    0    0 -0.89524997733E+02  0.69638477951E+02 -0.45869603094E+02  0.14443097689E+03  0.76759649349E+02 0.  0.
          5    1    3    3  501    0  0.64227257557E+02 -0.44153884680E+02  0.25858578418E+03  0.27011738916E+03  0.47000000000E+01 0. -1.
        -13    1    4    4    0    0  0.19927946289E+02  0.47436436641E+02  0.52530214532E+02  0.73530687493E+02  0.00000000000E+00 0.  1.
         14    1    4    4    0    0  0.25848731575E+02 -0.29220010660E+02  0.13657010049E+02  0.41333761872E+02  0.00000000000E+00 0. -1.
         -5    1    5    5    0  502 -0.20478937688E+02 -0.43701019252E+02  0.38286564816E+02  0.61782821382E+02  0.47000000000E+01 0.  1.
         13    1    6    6    0    0 -0.14302645651E+02  0.58819118021E+02 -0.25995450190E+02  0.65878811070E+02  0.00000000000E+00 0. -1.
        -14    1    6    6    0    0 -0.75222352082E+02  0.10819359930E+02 -0.19874152904E+02  0.78552165825E+02  0.00000000000E+00 0.  1.
</event>
<event>
12    1  0.8331241E-002  0.2779774E+03  0.7818608E-02  0.1096932E+00
         21   -1    0    0  501  502  0.00000000000E+00  0.00000000000E+00  0.47253731315E+03  0.47253731315E+03  0.00000000000E+00 0. -1.
         21   -1    0    0  502  503 -0.00000000000E+00 -0.00000000000E+00 -0.23200820132E+03  0.23200820132E+03  0.00000000000E+00 0.  1.
         -6    2    1    2    0  503  0.19157807186E+03 -0.10248020427E+03 -0.72060284486E+02  0.28623517104E+03  0.17185324743E+03 0.  0.
        -24    2    3    3    0    0  0.15830633940E+03 -0.19031806118E+02 -0.84138347643E+02  0.19546836573E+03  0.75534851028E+02 0.  0.
          6    2    1    2  501    0 -0.19157807186E+03  0.10248020427E+03  0.31258939632E+03  0.41831034344E+03  0.17339856647E+03 0.  0.
         24    2    5    5    0    0 -0.14471789762E+03  0.68109061307E+02  0.11544870488E+03  0.21272874500E+03  0.79642961811E+02 0.  0.
          5    1    5    5  501    0 -0.46860174239E+02  0.34371142966E+02  0.19714069143E+03  0.20558159844E+03  0.47000000000E+01 0. -1.
        -13    1    6    6    0    0 -0.60069671812E+02 -0.91018718540E+01  0.60206509524E+02  0.85533813967E+02  0.00000000000E+00 0.  1.
         14    1    6    6    0    0 -0.84648225812E+02  0.77210933161E+02  0.55242195360E+02  0.12719493103E+03  0.00000000000E+00 0. -1.
         -5    1    3    3    0  503  0.33271732466E+02 -0.83448398156E+02  0.12078063157E+02  0.90766805307E+02  0.47000000000E+01 0.  1.
         13    1    4    4    0    0 -0.14098852556E+01 -0.78474561136E+01 -0.22560114934E+02  0.23927580942E+02  0.00000000000E+00 0. -1.
        -14    1    4    4    0    0  0.15971622465E+03 -0.11184350004E+02 -0.61578232709E+02  0.17154078479E+03  0.00000000000E+00 0.  1.
</event>
<event>
12    1  0.8331241E-002  0.2115407E+03  0.7818608E-02  0.1140594E+00
         21   -1    0    0  503  502  0.00000000000E+00  0.00000000000E+00  0.18111511215E+03  0.18111511215E+03  0.00000000000E+00 0. -1.
         21   -1    0    0  501  503 -0.00000000000E+00 -0.00000000000E+00 -0.29025063000E+03  0.29025063000E+03  0.00000000000E+00 0. -1.
          6    2    1    2  501    0 -0.11480852364E+03  0.44993713685E+02 -0.14682689246E+03  0.25649346059E+03  0.17036821184E+03 0.  0.
         24    2    3    3    0    0 -0.72465257539E+02  0.33674452245E+02 -0.10896607816E+02  0.11359415987E+03  0.79998217544E+02 0.  0.
         -6    2    1    2    0  502  0.11480852364E+03 -0.44993713685E+02  0.37691374610E+02  0.21487228156E+03  0.17188375808E+03 0.  0.
        -24    2    5    5    0    0  0.40414175014E+02 -0.11648796582E+02 -0.43649018816E+02  0.99612782140E+02  0.79047261294E+02 0.  0.
          5    1    3    3  501    0 -0.42343266097E+02  0.11319261440E+02 -0.13593028465E+03  0.14289930072E+03  0.47000000000E+01 0. -1.
        -11    1    4    4    0    0 -0.82668092351E+02  0.93439706835E+01  0.40099923518E+01  0.83291075871E+02  0.00000000000E+00 0.  1.
         12    1    4    4    0    0  0.10202834812E+02  0.24330481561E+02 -0.14906600168E+02  0.30303083998E+02  0.00000000000E+00 0. -1.
         -5    1    5    5    0  502  0.74394348622E+02 -0.33344917103E+02  0.81340393425E+02  0.11525949942E+03  0.47000000000E+01 0.  1.
         11    1    6    6    0    0  0.37313211045E+02 -0.43806805208E+01  0.14985729221E+02  0.40447968559E+02  0.00000000000E+00 0. -1.
        -12    1    6    6    0    0  0.31009639693E+01 -0.72681160617E+01 -0.58634748037E+02  0.59164813580E+02  0.00000000000E+00 0.  1.
</event>
<event>
12    1  0.8331241E-002  0.2420391E+03  0.7818608E-02  0.1118462E+00
         21   -1    0    0  501  502  0.00000000000E+00  0.00000000000E+00  0.16066532608E+03  0.16066532608E+03  0.00000000000E+00 0. -1.
         21   -1    0    0  502  503 -0.00000000000E+00 -0.00000000000E+00 -0.48997002210E+03  0.48997002210E+03  0.00000000000E+00 0.  1.
         -6    2    1    2    0  503  0.13008264729E+03 -0.10906413299E+03 -0.32928321739E+03  0.40859622599E+03  0.17235706661E+03 0.  0.
        -24    2    3    3    0    0  0.79697976135E+01 -0.16441752251E+02 -0.74579545962E+02  0.11129754838E+03  0.80567901232E+02 0.  0.
          6    2    1    2  501    0 -0.13008264729E+03  0.10906413299E+03 -0.21478626838E-01  0.24203912218E+03  0.17252958000E+03 0.  0.
         24    2    5    5    0    0 -0.14099781371E+03  0.12392854917E+03 -0.30673653082E+02  0.20595952233E+03  0.78992297577E+02 0.  0.
          5    1    5    5  501    0  0.10915166421E+02 -0.14864416180E+02  0.30652174455E+02  0.36079599848E+02  0.47000000000E+01 0. -1.
        -11    1    6    6    0    0 -0.15630749170E+02  0.60455782345E+02 -0.16014917303E+01  0.62464283509E+02  0.00000000000E+00 0.  1.
         12    1    6    6    0    0 -0.12536706454E+03  0.63472766825E+02 -0.29072161352E+02  0.14349523883E+03  0.00000000000E+00 0. -1.
         -5    1    3    3    0  503  0.12211284968E+03 -0.92622380739E+02 -0.25470367143E+03  0.29729867761E+03  0.47000000000E+01 0.  1.
         13    1    4    4    0    0  0.67388972993E+01  0.32152367452E+02 -0.39371003840E+02  0.51276343599E+02  0.00000000000E+00 0. -1.
        -14    1    4    4    0    0  0.12309003142E+01 -0.48594119703E+02 -0.35208542122E+02  0.60021204783E+02  0.00000000000E+00 0.  1.
</event>
<event>
12    1  0.8331241E-002  0.3304666E+03  0.7818608E-02  0.1070962E+00
         21   -1    0    0  501  502  0.00000000000E+00  0.00000000000E+00  0.65925499227E+02  0.65925499227E+02  0.00000000000E+00 0. -1.
         21   -1    0    0  502  503 -0.00000000000E+00 -0.00000000000E+00 -0.17182924795E+04  0.17182924795E+04  0.00000000000E+00 0. -1.
         -6    2    1    2    0  503  0.43931517854E+01  0.28116816880E+03 -0.65474657908E+03  0.73328761363E+03  0.17303988718E+03 0.  0.
        -24    2    3    3    0    0 -0.20259558318E+02  0.12424875639E+03 -0.44574162218E+03  0.47072977216E+03  0.83980482786E+02 0.  0.
          6    2    1    2  501    0 -0.43931517854E+01 -0.28116816880E+03 -0.99762040119E+03  0.10509303651E+04  0.17358954022E+03 0.  0.
         24    2    5    5    0    0 -0.47693952134E+02 -0.11521795362E+03 -0.32958740132E+03  0.36121693754E+03  0.79372104366E+02 0.  0.
          5    1    5    5  501    0  0.43300800348E+02 -0.16595021518E+03 -0.66803299987E+03  0.68971342755E+03  0.47000000000E+01 0. -1.
        -11    1    6    6    0    0  0.40049171048E+01  0.68344247619E+01 -0.25226391368E+01  0.83133886627E+01  0.00000000000E+00 0.  1.
         12    1    6    6    0    0 -0.51698869238E+02 -0.12205237838E+03 -0.32706476219E+03  0.35290354888E+03  0.00000000000E+00 0. -1.
         -5    1    3    3    0  503  0.24652710104E+02  0.15691941241E+03 -0.20900495690E+03  0.26255784147E+03  0.47000000000E+01 0.  1.
         13    1    4    4    0    0  0.17182311546E+02 -0.36970596362E+01 -0.41323335987E+02  0.44905658631E+02  0.00000000000E+00 0. -1.
        -14    1    4    4    0    0 -0.37441869864E+02  0.12794581603E+03 -0.40441828619E+03  0.42582411353E+03  0.00000000000E+00 0.  1.
</event>
<event>
12    1  0.8331241E-002  0.2056125E+03  0.7818608E-02  0.1145335E+00
         21   -1    0    0  501  502  0.00000000000E+00  0.00000000000E+00  0.51369491472E+03  0.51369491472E+03  0.00000000000E+00 0. -1.
         21   -1    0    0  502  503 -0.00000000000E+00 -0.00000000000E+00 -0.15037234599E+03  0.15037234599E+03  0.00000000000E+00 0.  1.
         -6    2    1    2    0  503 -0.10555751591E+03 -0.36334138848E+02 -0.42824406197E+02  0.20884000125E+03  0.17122399816E+03 0.  0.
        -24    2    3    3    0    0  0.22605860734E+01 -0.24770580601E+02 -0.53583285797E+02  0.99769828956E+02  0.80399989679E+02 0.  0.
          6    2    1    2  501    0  0.10555751591E+03  0.36334138848E+02  0.40614697493E+03  0.45522725947E+03  0.17266711819E+03 0.  0.
         24    2    5    5    0    0  0.53800186079E+02 -0.30685241492E+02  0.12160259653E+03  0.15831311058E+03  0.80248398300E+02 0.  0.
          5    1    5    5  501    0  0.51757329826E+02  0.67019380340E+02  0.28454437840E+03  0.29691414889E+03  0.47000000000E+01 0. -1.
        -11    1    6    6    0    0 -0.89087623638E+00 -0.31758199499E+02  0.89305812295E+02  0.94788738811E+02  0.00000000000E+00 0.  1.
         12    1    6    6    0    0  0.54691062316E+02  0.10729580066E+01  0.32296784236E+02  0.63524371765E+02  0.00000000000E+00 0. -1.
         -5    1    3    3    0  503 -0.10781810198E+03 -0.11563558247E+02  0.10758879600E+02  0.10907017229E+03  0.47000000000E+01 0.  1.
         11    1    4    4    0    0  0.45819026641E+01 -0.20132294753E+02  0.18366170248E+02  0.27633663051E+02  0.00000000000E+00 0. -1.
        -12    1    4    4    0    0 -0.23213165907E+01 -0.46382858475E+01 -0.71949456044E+02  0.72136165905E+02  0.00000000000E+00 0.  1.
</event>
<event>
12    1  0.8331241E-002  0.1770787E+03  0.7818608E-02  0.1170862E+00
         21   -1    0    0  501  502  0.00000000000E+00  0.00000000000E+00  0.34150387386E+02  0.34150387386E+02  0.00000000000E+00 0.  1.
         21   -1    0    0  502  503 -0.00000000000E+00 -0.00000000000E+00 -0.10799395151E+04  0.10799395151E+04  0.00000000000E+00 0.  1.
         -6    2    1    2    0  503 -0.30673459447E+02 -0.29078732705E+02 -0.74226612987E+03  0.76309623054E+03  0.17196050624E+03 0.  0.
        -24    2    3    3    0    0  0.46813027093E+02  0.12867543491E+02 -0.38734433979E+03  0.39737063292E+03  0.74234420310E+02 0.  0.
          6    2    1    2  501    0  0.30673459447E+02  0.29078732705E+02 -0.30352299782E+03  0.35099367192E+03  0.17112543268E+03 0.  0.
         24    2    5    5    0    0  0.60523238565E+02  0.33836928584E+02 -0.98927969233E+02  0.14412447299E+03  0.78594659339E+02 0.  0.
          5    1    5    5  501    0 -0.29849779118E+02 -0.47581958791E+01 -0.20459502859E+03  0.20686919893E+03  0.47000000000E+01 0. -1.
        -11    1    6    6    0    0  0.19228411331E+02  0.50691246288E+02 -0.29825671565E+02  0.61878145874E+02  0.00000000000E+00 0.  1.
         12    1    6    6    0    0  0.41294827234E+02 -0.16854317704E+02 -0.69102297668E+02  0.82246327119E+02  0.00000000000E+00 0. -1.
         -5    1    3    3    0  503 -0.77486486540E+02 -0.41946276196E+02 -0.35492179008E+03  0.36572559762E+03  0.47000000000E+01 0.  1.
         11    1    4    4    0    0  0.35366230972E+02  0.70189052954E+01 -0.38158550247E+03  0.38328518236E+03  0.00000000000E+00 0. -1.
        -12    1    4    4    0    0  0.11446796120E+02  0.58486381952E+01 -0.57588373249E+01  0.14085450560E+02  0.00000000000E+00 0.  1.
</event>
<event>
12    1  0.8331241E-002  0.1773118E+03  0.7818608E-02  0.1170431E+00
         21   -1    0    0  503  502  0.00000000000E+00  0.00000000000E+00  0.58249363084E+03  0.58249363084E+03  0.00000000000E+00 0. -1.
         21   -1    0    0  501  503 -0.00000000000E+00 -0.00000000000E+00 -0.12708173678E+03  0.12708173678E+03  0.00000000000E+00 0. -1.
          6    2    1    2  501    0  0.13645341106E+02  0.40790936921E+02 -0.41393960329E+02  0.18207604036E+03  0.17201200148E+03 0.  0.
         24    2    3    3    0    0  0.21223468356E+02  0.34510022383E+02  0.42411977862E+02  0.97563300633E+02  0.77964379753E+02 0.  0.
         -6    2    1    2    0  502 -0.13645341106E+02 -0.40790936921E+02  0.49680585439E+03  0.52749932726E+03  0.17201566045E+03 0.  0.
        -24    2    5    5    0    0 -0.98963028451E+01 -0.91218557162E+02  0.28900320496E+03  0.31358104548E+03  0.79946592340E+02 0.  0.
          5    1    3    3  501    0 -0.75781272492E+01  0.62809145379E+01 -0.83805938190E+02  0.84512739726E+02  0.47000000000E+01 0. -1.
        -11    1    4    4    0    0  0.44218674044E+02  0.44545105486E+02  0.30860182205E+02  0.69942178996E+02  0.00000000000E+00 0.  1.
         12    1    4    4    0    0 -0.22995205689E+02 -0.10035083103E+02  0.11551795657E+02  0.27621121636E+02  0.00000000000E+00 0. -1.
         -5    1    5    5    0  502 -0.37490382613E+01  0.50427620240E+02  0.20780264943E+03  0.21391828178E+03  0.47000000000E+01 0.  1.
         13    1    6    6    0    0  0.14831252101E+02 -0.91608450878E+02  0.25627391584E+03  0.27255897390E+03  0.00000000000E+00 0. -1.
        -14    1    6    6    0    0 -0.24727554946E+02  0.38989371687E+00  0.32729289117E+02  0.41022071582E+02  0.00000000000E+00 0.  1.
</event>
<event>
12    1  0.8331241E-002  0.1850572E+03  0.7818608E-02  0.1165062E+00
         21   -1    0    0  501  502  0.00000000000E+00  0.00000000000E+00  0.45603566911E+03  0.45603566911E+03  0.00000000000E+00 0. -1.
         21   -1    0    0  502  503 -0.00000000000E+00 -0.00000000000E+00 -0.78601298276E+02  0.78601298276E+02  0.00000000000E+00 0. -1.
         -6    2    1    2    0  503  0.29193599165E+02 -0.32067190161E+02  0.11325839025E+03  0.21696457276E+03  0.17990439670E+03 0.  0.
        -24    2    3    3    0    0 -0.33889567520E+02  0.29525017098E+02  0.24489163896E+02  0.91764127622E+02  0.76162369636E+02 0.  0.
          6    2    1    2  501    0 -0.29193599165E+02  0.32067190161E+02  0.26417598059E+03  0.31767239463E+03  0.17101529369E+03 0.  0.
         24    2    5    5    0    0 -0.77496985599E+02  0.18719787921E+02  0.23197667064E+03  0.25792077667E+03  0.79710338628E+02 0.  0.
          5    1    5    5  501    0  0.48303386434E+02  0.13347402240E+02  0.32199309949E+02  0.59751617959E+02  0.47000000000E+01 0. -1.
        -11    1    6    6    0    0 -0.66437833950E+02  0.22980365733E+01  0.77178348398E+02  0.10186149524E+03  0.00000000000E+00 0.  1.
         12    1    6    6    0    0 -0.11059151648E+02  0.16421751348E+02  0.15479832224E+03  0.15605928143E+03  0.00000000000E+00 0. -1.
         -5    1    3    3    0  503  0.63083166685E+02 -0.61592207259E+02  0.88769226356E+02  0.12520044514E+03  0.47000000000E+01 0.  1.
         11    1    4    4    0    0 -0.41604839894E+00 -0.89447164839E+01 -0.21377641428E+02  0.23177243198E+02  0.00000000000E+00 0. -1.
        -12    1    4    4    0    0 -0.33473519122E+02  0.38469733582E+02  0.45866805324E+02  0.68586884424E+02  0.00000000000E+00 0.  1.
</event>
<event>
12    1  0.8331241E-002  0.1846856E+03  0.7818608E-02  0.1163373E+00
         21   -1    0    0  501  502  0.00000000000E+00  0.00000000000E+00  0.49415822039E+03  0.49415822039E+03  0.00000000000E+00 0. -1.
         21   -1    0    0  502  503 -0.00000000000E+00 -0.00000000000E+00 -0.87168564818E+02  0.87168564818E+02  0.00000000000E+00 0. -1.
         -6    2    1    2    0  503 -0.62216910136E+02 -0.26776161756E+02  0.70765851670E+02  0.19777913442E+03  0.17181639475E+03 0.  0.
        -24    2    3    3    0    0 -0.70577718509E+01  0.31265003207E+02  0.77221991241E+02  0.11731125819E+03  0.82288412296E+02 0.  0.
          6    2    1    2  501    0  0.62216910136E+02  0.26776161756E+02  0.33622380390E+03  0.38354765079E+03  0.17168123768E+03 0.  0.
         24    2    5    5    0    0  0.45452068795E+01  0.49969002822E+02  0.92391741946E+02  0.13187306393E+03  0.79603460112E+02 0.  0.
          5    1    5    5  501    0  0.57671703256E+02 -0.23192841066E+02  0.24383206195E+03  0.25167458686E+03  0.47000000000E+01 0. -1.
        -11    1    6    6    0    0 -0.22308280511E+02 -0.11621979732E+02  0.14610703405E+02  0.29089559059E+02  0.00000000000E+00 0.  1.
         12    1    6    6    0    0  0.26853487391E+02  0.61590982554E+02  0.77781038541E+02  0.10278350487E+03  0.00000000000E+00 0. -1.
         -5    1    3    3    0  503 -0.55159138285E+02 -0.58041164963E+02 -0.64561395709E+01  0.80467876228E+02  0.47000000000E+01 0.  1.
         13    1    4    4    0    0 -0.26526215685E+02 -0.78990503853E+01  0.66863198508E+02  0.72365201791E+02  0.00000000000E+00 0. -1.
        -14    1    4    4    0    0  0.19468443834E+02  0.39164053592E+02  0.10358792733E+02  0.44946056400E+02  0.00000000000E+00 0.  1.
</event>
<event>
12    1  0.8331241E-002  0.1743024E+03  0.7818608E-02  0.1174311E+00
         21   -1    0    0  501  502  0.00000000000E+00  0.00000000000E+00  0.17856725048E+04  0.17856725048E+04  0.00000000000E+00 0. -1.
         21   -1    0    0  502  503 -0.00000000000E+00 -0.00000000000E+00 -0.21935015254E+02  0.21935015254E+02  0.00000000000E+00 0. -1.
         -6    2    1    2    0  503 -0.13645729626E+02 -0.50331733519E+01  0.43283120158E+03  0.46533598026E+03  0.17024449093E+03 0.  0.
        -24    2    3    3    0    0 -0.22944150646E+02 -0.58878133925E+02  0.35913980103E+03  0.37347601658E+03  0.80683762751E+02 0.  0.
          6    2    1    2  501    0  0.13645729626E+02  0.50331733519E+01  0.13309062880E+04  0.13422715398E+04  0.17369456072E+03 0.  0.
         24    2    5    5    0    0  0.55518797056E+02 -0.21068525394E+02  0.49980529185E+03  0.50969385081E+03  0.80350931550E+02 0.  0.
          5    1    5    5  501    0 -0.41873067430E+02  0.26101698746E+02  0.83110099616E+03  0.83257768903E+03  0.47000000000E+01 0. -1.
        -13    1    6    6    0    0  0.10281506730E+02 -0.17338969743E+02  0.22397108393E+02  0.30132701783E+02  0.00000000000E+00 0.  1.
         14    1    6    6    0    0  0.45237290325E+02 -0.37295556505E+01  0.47740818346E+03  0.47956114903E+03  0.00000000000E+00 0. -1.
         -5    1    3    3    0  503  0.92984210207E+01  0.53844960573E+02  0.73691400543E+02  0.91859963676E+02  0.47000000000E+01 0.  1.
         11    1    4    4    0    0  0.11099748976E+02 -0.61718806621E+02  0.16831161415E+03  0.17961407232E+03  0.00000000000E+00 0. -1.
        -12    1    4    4    0    0 -0.34043899623E+02  0.28406726966E+01  0.19082818689E+03  0.19386194426E+03  0.00000000000E+00 0.  1.
</event>
<event>
12    1  0.8331241E-002  0.1839943E+03  0.7818608E-02  0.1164096E+00
         21   -1    0    0  501  502  0.00000000000E+00  0.00000000000E+00  0.55452803103E+03  0.55452803103E+03  0.00000000000E+00 0. -1.
         21   -1    0    0  502  503 -0.00000000000E+00 -0.00000000000E+00 -0.64939505480E+02  0.64939505480E+02  0.00000000000E+00 0. -1.
         -6    2    1    2    0  503 -0.63160141136E+02 -0.16303945233E+02  0.16731166140E+03  0.24836607508E+03  0.17157357941E+03 0.  0.
        -24    2    3    3    0    0 -0.74903135546E+02  0.36168280224E+02  0.62004686928E+02  0.13003230461E+03  0.78391293088E+02 0.  0.
          6    2    1    2  501    0  0.63160141136E+02  0.16303945233E+02  0.32227686416E+03  0.37110146143E+03  0.17204329527E+03 0.  0.
         24    2    5    5    0    0 -0.29018608534E+02  0.23928863749E+02  0.18783163005E+03  0.20784499985E+03  0.80648326427E+02 0.  0.
          5    1    5    5  501    0  0.92178749670E+02 -0.76249185166E+01  0.13444523411E+03  0.16325646158E+03  0.47000000000E+01 0. -1.
        -11    1    6    6    0    0 -0.41241365410E+02  0.35469621663E+02  0.69161237783E+02  0.87989891996E+02  0.00000000000E+00 0.  1.
         12    1    6    6    0    0  0.12222756876E+02 -0.11540757914E+02  0.11867039227E+03  0.11985510786E+03  0.00000000000E+00 0. -1.
         -5    1    3    3    0  503  0.11742994410E+02 -0.52472225457E+02  0.10530697447E+03  0.11833377047E+03  0.47000000000E+01 0.  1.
         11    1    4    4    0    0 -0.18956089397E+02 -0.14748688523E+01 -0.17459165491E+02  0.25813388445E+02  0.00000000000E+00 0. -1.
        -12    1    4    4    0    0 -0.55947046149E+02  0.37643149077E+02  0.79463852419E+02  0.10421891616E+03  0.00000000000E+00 0.  1.
</event>
<event>
12    1  0.8331241E-002  0.1837052E+03  0.7818608E-02  0.1164467E+00
         21   -1    0    0  501  502  0.00000000000E+00  0.00000000000E+00  0.56331888823E+03  0.56331888823E+03  0.00000000000E+00 0. -1.
         21   -1    0    0  502  503 -0.00000000000E+00 -0.00000000000E+00 -0.76612909082E+02  0.76612909082E+02  0.00000000000E+00 0. -1.
         -6    2    1    2    0  503  0.37412861796E+02  0.47570910669E+02  0.93147752585E+02  0.20597111036E+03  0.17344993722E+03 0.  0.
        -24    2    3    3    0    0  0.69660003180E+02 -0.23971162020E+01  0.10038916027E+03  0.14587776778E+03  0.79649717036E+02 0.  0.
          6    2    1    2  501    0 -0.37412861796E+02 -0.47570910669E+02  0.39355822656E+03  0.43396068695E+03  0.17254299857E+03 0.  0.
         24    2    5    5    0    0 -0.27966277976E+02 -0.27932069535E+02  0.40055712527E+03  0.41059411660E+03  0.81112297264E+02 0.  0.
          5    1    5    5  501    0 -0.94465838201E+01 -0.19638841134E+02 -0.69988987104E+01  0.23366570354E+02  0.47000000000E+01 0. -1.
        -13    1    6    6    0    0  0.25258144700E+02 -0.22816770864E+02  0.10957047523E+03  0.11473564376E+03  0.00000000000E+00 0.  1.
         14    1    6    6    0    0 -0.53224422676E+02 -0.51152986713E+01  0.29098665004E+03  0.29585847284E+03  0.00000000000E+00 0. -1.
         -5    1    3    3    0  503 -0.32247141384E+02  0.49968026871E+02 -0.72414076829E+01  0.60093342577E+02  0.47000000000E+01 0.  1.
         11    1    4    4    0    0  0.35915458666E+02  0.35581308854E+02  0.71079664150E+02  0.87225388314E+02  0.00000000000E+00 0. -1.
        -12    1    4    4    0    0  0.33744544515E+02 -0.37978425056E+02  0.29309496118E+02  0.58652379465E+02  0.00000000000E+00 0.  1.
</event>
<event>
12    1  0.8331241E-002  0.2220078E+03  0.7818608E-02  0.1132598E+00
         21   -1    0    0  503  502  0.00000000000E+00  0.00000000000E+00  0.87663442291E+02  0.87663442291E+02  0.00000000000E+00 0.  1.
         21   -1    0    0  501  503 -0.00000000000E+00 -0.00000000000E+00 -0.57824259243E+03  0.57824259243E+03  0.00000000000E+00 0. -1.
          6    2    1    2  501    0  0.42892675036E+02 -0.13246099260E+03 -0.30472566432E+03  0.37637365543E+03  0.17150423281E+03 0.  0.
         24    2    3    3    0    0  0.88777056334E+01 -0.28198075448E+02 -0.51476191674E+02  0.10035706275E+03  0.80918456598E+02 0.  0.
         -6    2    1    2    0  502 -0.42892675036E+02  0.13246099260E+03 -0.18585348581E+03  0.28953237929E+03  0.17292132413E+03 0.  0.
        -24    2    5    5    0    0 -0.15236665580E+02  0.51198976788E+01 -0.11469864305E+03  0.14098706310E+03  0.80394053971E+02 0.  0.
          5    1    3    3  501    0  0.34014969403E+02 -0.10426291715E+03 -0.25324947265E+03  0.27601659268E+03  0.47000000000E+01 0. -1.
        -11    1    4    4    0    0 -0.87367689378E+01 -0.36467941481E+02  0.75095708795E+01  0.38244418444E+02  0.00000000000E+00 0.  1.
         12    1    4    4    0    0  0.17614474571E+02  0.82698660336E+01 -0.58985762553E+02  0.62112644306E+02  0.00000000000E+00 0. -1.
         -5    1    5    5    0  502 -0.27656009456E+02  0.12734109492E+03 -0.71154842766E+02  0.14854531619E+03  0.47000000000E+01 0.  1.
         11    1    6    6    0    0 -0.35289334889E+02  0.31775047421E+02 -0.78649306099E+02  0.91873304857E+02  0.00000000000E+00 0. -1.
        -12    1    6    6    0    0  0.20052669309E+02 -0.26655149742E+02 -0.36049336950E+02  0.49113758243E+02  0.00000000000E+00 0.  1.
</event>
<event>
12    1  0.8331241E-002  0.2135023E+03  0.7818608E-02  0.1139794E+00
         21   -1    0    0  501  502  0.00000000000E+00  0.00000000000E+00  0.43463187521E+03  0.43463187521E+03  0.00000000000E+00 0.  1.
         21   -1    0    0  502  503 -0.00000000000E+00 -0.00000000000E+00 -0.29670702312E+03  0.29670702312E+03  0.00000000000E+00 0.  1.
         -6    2    1    2    0  503  0.54457656085E+02  0.10592239386E+03 -0.22662319804E+03  0.31135401929E+03  0.17719498190E+03 0.  0.
        -24    2    3    3    0    0  0.71537558204E+02  0.13224484969E+03 -0.14479182365E+03  0.22358694931E+03  0.80125708754E+02 0.  0.
          6    2    1    2  501    0 -0.54457656085E+02 -0.10592239386E+03  0.36454805014E+03  0.41998487904E+03  0.17119237115E+03 0.  0.
         24    2    5    5    0    0 -0.53314928374E+02 -0.11412988692E+03  0.17366304528E+03  0.22886229051E+03  0.79693048923E+02 0.  0.
          5    1    5    5  501    0 -0.11427277112E+01  0.82074930533E+01  0.19088500486E+03  0.19112258854E+03  0.47000000000E+01 0. -1.
        -11    1    6    6    0    0 -0.32306651562E+02 -0.11809511223E+03  0.12150386900E+03  0.17249163878E+03  0.00000000000E+00 0.  1.
         12    1    6    6    0    0 -0.21008276811E+02  0.39652253099E+01  0.52159176279E+02  0.56370651730E+02  0.00000000000E+00 0. -1.
         -5    1    3    3    0  503 -0.17079902119E+02 -0.26322455829E+02 -0.81831374399E+02  0.87767069983E+02  0.47000000000E+01 0.  1.
         11    1    4    4    0    0  0.66254440233E+02  0.38830393263E+02 -0.63900790543E+02  0.99903760307E+02  0.00000000000E+00 0. -1.
        -12    1    4    4    0    0  0.52831179708E+01  0.93414456429E+02 -0.80891033102E+02  0.12368318900E+03  0.00000000000E+00 0.  1.
</event>
<event>
12    1  0.8331241E-002  0.1751667E+03  0.7818608E-02  0.1172673E+00
         21   -1    0    0  501  502  0.00000000000E+00  0.00000000000E+00  0.16831497243E+03  0.16831497243E+03  0.00000000000E+00 0. -1.
         21   -1    0    0  502  503 -0.00000000000E+00 -0.00000000000E+00 -0.20077733083E+03  0.20077733083E+03  0.00000000000E+00 0. -1.
         -6    2    1    2    0  503  0.10515185300E+02 -0.25776137224E+02 -0.72880517813E+02  0.18932299235E+03  0.17250115125E+03 0.  0.
        -24    2    3    3    0    0 -0.42652560971E+02 -0.27750572609E+02 -0.91547884017E+02  0.13274324155E+03  0.81550094255E+02 0.  0.
          6    2    1    2  501    0 -0.10515185300E+02  0.25776137224E+02  0.40418159417E+02  0.17976931091E+03  0.17294044976E+03 0.  0.
         24    2    5    5    0    0 -0.10747774197E+02  0.83763962984E+02  0.32605572142E+02  0.12106864180E+03  0.80390152057E+02 0.  0.
          5    1    5    5  501    0  0.23258889709E+00 -0.57987825760E+02  0.78125872749E+01  0.58700669110E+02  0.47000000000E+01 0. -1.
        -11    1    6    6    0    0 -0.30818620453E+02  0.73071302048E+02  0.48830832801E+02  0.93132447523E+02  0.00000000000E+00 0.  1.
         12    1    6    6    0    0  0.20070846255E+02  0.10692660936E+02 -0.16225260659E+02  0.27936194278E+02  0.00000000000E+00 0. -1.
         -5    1    3    3    0  503  0.53167746271E+02  0.19744353851E+01  0.18667366204E+02  0.56579750791E+02  0.47000000000E+01 0.  1.
         11    1    4    4    0    0 -0.38383298580E+02  0.77099856593E+01 -0.54455679474E+01  0.39526898424E+02  0.00000000000E+00 0. -1.
        -12    1    4    4    0    0 -0.42692623906E+01 -0.35460558268E+02 -0.86102316069E+02  0.93216343130E+02  0.00000000000E+00 0.  1.
</event>
<event>
12    1  0.8331241E-002  0.2407012E+03  0.7818608E-02  0.1121131E+00
         21   -1    0    0  501  502  0.00000000000E+00  0.00000000000E+00  0.94273756526E+02  0.94273756526E+02  0.00000000000E+00 0.  1.
         21   -1    0    0  502  503 -0.00000000000E+00 -0.00000000000E+00 -0.76355071432E+03  0.76355071432E+03  0.00000000000E+00 0. -1.
         -6    2    1    2    0  503  0.10958905474E+03 -0.10690562188E+03 -0.53459206960E+03  0.58200373879E+03  0.17175883729E+03 0.  0.
        -24    2    3    3    0    0  0.93082609117E+02  0.17734095384E+01 -0.27262826851E+03  0.29787222401E+03  0.75724315382E+02 0.  0.
          6    2    1    2  501    0 -0.10958905474E+03  0.10690562188E+03 -0.13468488819E+03  0.27582073205E+03  0.18573767580E+03 0.  0.
         24    2    5    5    0    0 -0.16524782614E+02 -0.45397162437E+00 -0.38042838575E+01  0.82588064893E+02  0.80827231528E+02 0.  0.
          5    1    5    5  501    0 -0.93064272125E+02  0.10735959351E+03 -0.13088060434E+03  0.19323266715E+03  0.47000000000E+01 0. -1.
        -13    1    6    6    0    0 -0.19344160135E+02 -0.38706610727E+02 -0.79942975075E+01  0.44003488929E+02  0.00000000000E+00 0.  1.
         14    1    6    6    0    0  0.28193775215E+01  0.38252639102E+02  0.41900136500E+01  0.38584575964E+02  0.00000000000E+00 0. -1.
         -5    1    3    3    0  503  0.16506445621E+02 -0.10867903142E+03 -0.26196380108E+03  0.28413151479E+03  0.47000000000E+01 0.  1.
         11    1    4    4    0    0  0.52500913423E+02  0.26907623801E+02 -0.21548361186E+03  0.22341341301E+03  0.00000000000E+00 0. -1.
        -12    1    4    4    0    0  0.40581695695E+02 -0.25134214262E+02 -0.57144656650E+02  0.74458811001E+02  0.00000000000E+00 0.  1.
</event>
<event>
12    1  0.8331241E-002  0.1801533E+03  0.7818608E-02  0.1168458E+00
         21   -1    0    0  501  502  0.00000000000E+00  0.00000000000E+00  0.17193261255E+04  0.17193261255E+04  0.00000000000E+00 0.  1.
         21   -1    0    0  502  503 -0.00000000000E+00 -0.00000000000E+00 -0.21401803144E+03  0.21401803144E+03  0.00000000000E+00 0. -1.
         -6    2    1    2    0  503 -0.11447444009E+02 -0.48700912956E+02 -0.17181202081E+03  0.24657591830E+03  0.16963929406E+03 0.  0.
        -24    2    3    3    0    0 -0.29948814166E+02 -0.94606647498E+02 -0.11224525316E+03  0.16898772996E+03  0.78169730699E+02 0.  0.
          6    2    1    2  501    0  0.11447444009E+02  0.48700912956E+02  0.16771201149E+04  0.16867682387E+04  0.17306758296E+03 0.  0.
         24    2    5    5    0    0 -0.37740912847E+02  0.78473490271E+02  0.12870078576E+04  0.12924136214E+04  0.79757621899E+02 0.  0.
          5    1    5    5  501    0  0.49188356856E+02 -0.29772577315E+02  0.39011225735E+03  0.39435461724E+03  0.47000000000E+01 0. -1.
        -11    1    6    6    0    0 -0.17286300091E+02  0.67742040771E+02  0.12099507472E+04  0.12119688985E+04  0.00000000000E+00 0.  1.
         12    1    6    6    0    0 -0.20454612756E+02  0.10731449500E+02  0.77057110377E+02  0.80444722953E+02  0.00000000000E+00 0. -1.
         -5    1    3    3    0  503  0.18501370157E+02  0.45905734542E+02 -0.59566767653E+02  0.77588188341E+02  0.47000000000E+01 0.  1.
         13    1    4    4    0    0 -0.36727821717E+02 -0.80187728618E+02 -0.12182196205E+03  0.15039812215E+03  0.00000000000E+00 0. -1.
        -14    1    4    4    0    0  0.67790075507E+01 -0.14418918880E+02  0.95767088915E+01  0.18589607802E+02  0.00000000000E+00 0.  1.
</event>
<event>
12    1  0.8331241E-002  0.2188566E+03  0.7818608E-02  0.1135750E+00
         21   -1    0    0  503  502  0.00000000000E+00  0.00000000000E+00  0.18678362472E+03  0.18678362472E+03  0.00000000000E+00 0. -1.
         21   -1    0    0  501  503 -0.00000000000E+00 -0.00000000000E+00 -0.33557714705E+03  0.33557714705E+03  0.00000000000E+00 0. -1.
          6    2    1    2  501    0  0.13394562807E+03  0.14922665951E+02 -0.20541566075E+03  0.29629825891E+03  0.16562894466E+03 0.  0.
         24    2    3    3    0    0  0.15354543194E+03 -0.18143817212E+02 -0.17700597471E+03  0.24826967490E+03  0.80008240951E+02 0.  0.
         -6    2    1    2    0  502 -0.13394562807E+03 -0.14922665951E+02  0.56622138424E+02  0.22606251286E+03  0.17243571533E+03 0.  0.
        -24    2    5    5    0    0 -0.46260702583E+02  0.53059114602E+01  0.90895188346E+02  0.12965414469E+03  0.79875256938E+02 0.  0.
          5    1    3    3  501    0 -0.19599803868E+02  0.33066483163E+02 -0.28409686042E+02  0.48028584004E+02  0.47000000000E+01 0. -1.
        -13    1    4    4    0    0  0.22716716808E+01  0.16519651866E+02 -0.70139418668E+01  0.18090184369E+02  0.00000000000E+00 0.  1.
         14    1    4    4    0    0  0.15127376026E+03 -0.34663469078E+02 -0.16999203284E+03  0.23017949053E+03  0.00000000000E+00 0. -1.
         -5    1    5    5    0  502 -0.87684925492E+02 -0.20228577411E+02 -0.34273049922E+02  0.96408368172E+02  0.47000000000E+01 0.  1.
         11    1    6    6    0    0 -0.53189522068E+02  0.99314173208E+01  0.19105570634E+02  0.57382759929E+02  0.00000000000E+00 0. -1.
        -12    1    6    6    0    0  0.69288194855E+01 -0.46255058606E+01  0.71789617712E+02  0.72271384760E+02  0.00000000000E+00 0.  1.
</event>
<event>
12    1  0.8331241E-002  0.2157666E+03  0.7818608E-02  0.1137504E+00
         21   -1    0    0  501  502  0.00000000000E+00  0.00000000000E+00  0.67260312303E+02  0.67260312303E+02  0.00000000000E+00 0. -1.
         21   -1    0    0  502  503 -0.00000000000E+00 -0.00000000000E+00 -0.74108942002E+03  0.74108942002E+03  0.00000000000E+00 0. -1.
         -6    2    1    2    0  503  0.12470502425E+03  0.22376457082E+02 -0.44641424645E+03  0.49486488346E+03  0.17191138574E+03 0.  0.
        -24    2    3    3    0    0  0.15012119220E+03 -0.10530014680E+02 -0.38370069730E+03  0.41947326109E+03  0.78002167329E+02 0.  0.
          6    2    1    2  501    0 -0.12470502425E+03 -0.22376457082E+02 -0.22741486127E+03  0.31348484886E+03  0.17465160301E+03 0.  0.
         24    2    5    5    0    0 -0.10910465123E+03 -0.28889377044E+02 -0.67456218475E+02  0.15256671076E+03  0.77381126869E+02 0.  0.
          5    1    5    5  501    0 -0.15600373025E+02  0.65129199624E+01 -0.15995864279E+03  0.16091813810E+03  0.47000000000E+01 0. -1.
        -13    1    6    6    0    0 -0.10573065978E+02  0.97602194163E+01  0.13176419295E+02  0.19510756845E+02  0.00000000000E+00 0.  1.
         14    1    6    6    0    0 -0.98531585251E+02 -0.38649596460E+02 -0.80632637769E+02  0.13305595391E+03  0.00000000000E+00 0. -1.
         -5    1    3    3    0  503 -0.25416167942E+02  0.32906471762E+02 -0.62713549147E+02  0.75391622368E+02  0.47000000000E+01 0.  1.
         13    1    4    4    0    0  0.51706594374E+02  0.33455091700E+02 -0.14722230194E+03  0.15958452697E+03  0.00000000000E+00 0. -1.
        -14    1    4    4    0    0  0.98414597821E+02 -0.43985106380E+02 -0.23647839536E+03  0.25988873412E+03  0.00000000000E+00 0.  1.
</event>
<event>
12    1  0.8331241E-002  0.2918213E+03  0.7818608E-02  0.1089458E+00
         21   -1    0    0  501  502  0.00000000000E+00  0.00000000000E+00  0.52226687679E+03  0.52226687679E+03  0.00000000000E+00 0. -1.
         21   -1    0    0  502  503 -0.00000000000E+00 -0.00000000000E+00 -0.16823423583E+03  0.16823423583E+03  0.00000000000E+00 0.  1.
         -6    2    1    2    0  503  0.10053926595E+03 -0.21255557993E+03  0.11492863299E+03  0.31323411135E+03  0.17210171201E+03 0.  0.
        -24    2    3    3    0    0  0.10430015766E+03 -0.23503222320E+03  0.10320299875E+03  0.28717793555E+03  0.75509197355E+02 0.  0.
          6    2    1    2  501    0 -0.10053926595E+03  0.21255557993E+03  0.23910400797E+03  0.37726700127E+03  0.17283415480E+03 0.  0.
         24    2    5    5    0    0 -0.65635017864E+02  0.15704859649E+03  0.79480943404E+02  0.20463750065E+03  0.81160760693E+02 0.  0.
          5    1    5    5  501    0 -0.34904248084E+02  0.55506983435E+02  0.15962306457E+03  0.17262950062E+03  0.47000000000E+01 0. -1.
        -11    1    6    6    0    0 -0.59044786707E+02  0.13627083708E+03  0.96389246167E+02  0.17705059913E+03  0.00000000000E+00 0.  1.
         12    1    6    6    0    0 -0.65902311565E+01  0.20777759413E+02 -0.16908302764E+02  0.27586901516E+02  0.00000000000E+00 0. -1.
         -5    1    3    3    0  503 -0.37608917108E+01  0.22476643269E+02  0.11725634237E+02  0.26056175801E+02  0.47000000000E+01 0.  1.
         13    1    4    4    0    0  0.81165850142E+02 -0.14121525409E+03  0.98690467539E+02  0.19044540320E+03  0.00000000000E+00 0. -1.
        -14    1    4    4    0    0  0.23134307517E+02 -0.93816969101E+02  0.45125312145E+01  0.96732532343E+02  0.00000000000E+00 0.  1.
</event>
<event>
12    1  0.8331241E-002  0.1864760E+03  0.7818608E-02  0.1161706E+00
         21   -1    0    0  501  502  0.00000000000E+00  0.00000000000E+00  0.17329017219E+03  0.17329017219E+03  0.00000000000E+00 0.  1.
         21   -1    0    0  502  503 -0.00000000000E+00 -0.00000000000E+00 -0.34697064305E+03  0.34697064305E+03  0.00000000000E+00 0.  1.
         -6    2    1    2    0  503 -0.26758431671E+02 -0.67518945853E+02  0.82165427516E+02  0.20366890818E+03  0.17162472131E+03 0.  0.
        -24    2    3    3    0    0 -0.25242798092E+02 -0.51847752041E+02  0.12404340117E+03  0.15868293105E+03  0.80424616799E+02 0.  0.
          6    2    1    2  501    0  0.26758431671E+02  0.67518945853E+02 -0.25584589837E+03  0.31659190705E+03  0.17175124507E+03 0.  0.
         24    2    5    5    0    0 -0.63307569044E+01 -0.26154280121E+02 -0.15697426263E+03  0.17635190556E+03  0.75729456710E+02 0.  0.
          5    1    5    5  501    0  0.33089188575E+02  0.93673225974E+02 -0.98871635739E+02  0.14024000149E+03  0.47000000000E+01 0. -1.
        -11    1    6    6    0    0  0.21003629992E+02 -0.43007577632E+02 -0.85245169621E+02  0.97762687925E+02  0.00000000000E+00 0.  1.
         12    1    6    6    0    0 -0.27334386896E+02  0.16853297511E+02 -0.71729093014E+02  0.78589217636E+02  0.00000000000E+00 0. -1.
         -5    1    3    3    0  503 -0.15156335792E+01 -0.15671193812E+02 -0.41877973652E+02  0.44985977124E+02  0.47000000000E+01 0.  1.
         11    1    4    4    0    0 -0.38010095167E+02 -0.15380486605E+02  0.16132452378E+02  0.44063394360E+02  0.00000000000E+00 0. -1.
        -12    1    4    4    0    0  0.12767297076E+02 -0.36467265437E+02  0.10791094879E+03  0.11461953669E+03  0.00000000000E+00 0.  1.
</event>
<event>
12    1  0.8331241E-002  0.1819383E+03  0.7818608E-02  0.1166170E+00
         21   -1    0    0  501  502  0.00000000000E+00  0.00000000000E+00  0.50335473857E+03  0.50335473857E+03  0.00000000000E+00 0.  1.
         21   -1    0    0  502  503 -0.00000000000E+00 -0.00000000000E+00 -0.16752861752E+03  0.16752861752E+03  0.00000000000E+00 0.  1.
         -6    2    1    2    0  503 -0.38001504092E+02 -0.43197231017E+02 -0.94148038964E+02  0.20400079611E+03  0.17158775158E+03 0.  0.
        -24    2    3    3    0    0  0.16077933722E+02 -0.11999319349E+02  0.91624703936E+01  0.83199113047E+02  0.80222552505E+02 0.  0.
          6    2    1    2  501    0  0.38001504092E+02  0.43197231017E+02  0.42997416001E+03  0.46688255997E+03  0.17260194510E+03 0.  0.
         24    2    5    5    0    0  0.44955950840E+02 -0.57222986264E+01  0.39664079199E+03  0.40709386427E+03  0.79672543842E+02 0.  0.
          5    1    5    5  501    0 -0.69544467478E+01  0.48919529644E+02  0.33333368026E+02  0.59788695705E+02  0.47000000000E+01 0. -1.
        -13    1    6    6    0    0 -0.17439964516E+01  0.92765673551E+01  0.28496384634E+03  0.28512013248E+03  0.00000000000E+00 0.  1.
         14    1    6    6    0    0  0.46699947292E+02 -0.14998865982E+02  0.11167694565E+03  0.12197373179E+03  0.00000000000E+00 0. -1.
         -5    1    3    3    0  503 -0.54079437814E+02 -0.31197911668E+02 -0.10331050936E+03  0.12080168306E+03  0.47000000000E+01 0.  1.
         13    1    4    4    0    0  0.22978819403E+02  0.64010713745E+01 -0.30627558715E+02  0.38820705928E+02  0.00000000000E+00 0. -1.
        -14    1    4    4    0    0 -0.69008856814E+01 -0.18400390724E+02  0.39790029108E+02  0.44378407119E+02  0.00000000000E+00 0.  1.
</event>
<event>
12    1  0.8331241E-002  0.1890147E+03  0.7818608E-02  0.1160083E+00
         21   -1    0    0  503  502  0.00000000000E+00  0.00000000000E+00  0.56472062221E+03  0.56472062221E+03  0.00000000000E+00 0. -1.
         21   -1    0    0  501  503 -0.00000000000E+00 -0.00000000000E+00 -0.77744426540E+02  0.77744426540E+02  0.00000000000E+00 0. -1.
          6    2    1    2  501    0 -0.71240184989E+02 -0.19952106063E+02  0.10151851370E+03  0.21455196785E+03  0.17393472279E+03 0.  0.
         24    2    3    3    0    0 -0.10681432799E+02  0.35984784210E+02 -0.16991678181E+01  0.82369223373E+02  0.73299413957E+02 0.  0.
         -6    2    1    2    0  502  0.71240184989E+02  0.19952106063E+02  0.38545768198E+03  0.42791308090E+03  0.17046621284E+03 0.  0.
        -24    2    5    5    0    0  0.22986779314E+02  0.45784883174E+02  0.10163550519E+03  0.13882340353E+03  0.79482789960E+02 0.  0.
          5    1    3    3  501    0 -0.60558752190E+02 -0.55936890273E+02  0.10321768151E+03  0.13218274448E+03  0.47000000000E+01 0. -1.
        -11    1    4    4    0    0 -0.79101671307E+01  0.35436375190E+02 -0.34120615279E+02  0.49824931687E+02  0.00000000000E+00 0.  1.
         12    1    4    4    0    0 -0.27712656685E+01  0.54840901982E+00  0.32421447460E+02  0.32544291685E+02  0.00000000000E+00 0. -1.
         -5    1    5    5    0  502  0.48253405676E+02 -0.25832777111E+02  0.28382217678E+03  0.28908967738E+03  0.47000000000E+01 0.  1.
         13    1    6    6    0    0 -0.75017434736E+01  0.60302209612E+02  0.66929512065E+02  0.90400178233E+02  0.00000000000E+00 0. -1.
        -14    1    6    6    0    0  0.30488522787E+02 -0.14517326438E+02  0.34705993129E+02  0.48423225293E+02  0.00000000000E+00 0.  1.
</event>
<event>
12    1  0.8331241E-002  0.2944258E+03  0.7818608E-02  0.1088076E+00
         21   -1    0    0  501  502  0.00000000000E+00  0.00000000000E+00  0.63319672982E+03  0.63319672982E+03  0.00000000000E+00 0.  1.
         21   -1    0    0  502  503 -0.00000000000E+00 -0.00000000000E+00 -0.17288744022E+03  0.17288744022E+03  0.00000000000E+00 0. -1.
         -6    2    1    2    0  503 -0.14169839030E+03  0.19282886231E+03  0.46095458541E+02  0.29789161530E+03  0.17132781215E+03 0.  0.
        -24    2    3    3    0    0 -0.12173176832E+03  0.11062063658E+03  0.85954858416E+02  0.20425551046E+03  0.85302562755E+02 0.  0.
          6    2    1    2  501    0  0.14169839030E+03 -0.19282886231E+03  0.41421383106E+03  0.50819255474E+03  0.17153766613E+03 0.  0.
         24    2    5    5    0    0  0.66603891782E+02 -0.16018560182E+03  0.36596449046E+03  0.41303555274E+03  0.81073140522E+02 0.  0.
          5    1    5    5  501    0  0.75094498516E+02 -0.32643260491E+02  0.48249340599E+02  0.95157002007E+02  0.47000000000E+01 0. -1.
        -13    1    6    6    0    0 -0.26507319189E+01  0.33208404823E+01  0.53282439772E+02  0.53451592580E+02  0.00000000000E+00 0.  1.
         14    1    6    6    0    0  0.69254623701E+02 -0.16350644231E+03  0.31268205069E+03  0.35958396016E+03  0.00000000000E+00 0. -1.
         -5    1    3    3    0  503 -0.19966621976E+02  0.82208225735E+02 -0.39859399876E+02  0.93636104842E+02  0.47000000000E+01 0.  1.
         11    1    4    4    0    0 -0.29912298380E+02  0.66694677078E+02  0.33564787403E+01  0.73172341048E+02  0.00000000000E+00 0. -1.
        -12    1    4    4    0    0 -0.91819469941E+02  0.43925959501E+02  0.82598379676E+02  0.13108316941E+03  0.00000000000E+00 0.  1.
</event>
<event>
12    1  0.8331241E-002  0.2291854E+03  0.7818608E-02  0.1128408E+00
         21   -1    0    0  501  502  0.00000000000E+00  0.00000000000E+00  0.36264736693E+02  0.36264736693E+02  0.00000000000E+00 0. -1.
         21   -1    0    0  502  503 -0.00000000000E+00 -0.00000000000E+00 -0.14188622440E+04  0.14188622440E+04  0.00000000000E+00 0. -1.
         -6    2    1    2    0  503  0.13762989483E+03 -0.31081559101E+02 -0.63402040313E+03  0.67417196637E+03  0.18060431164E+03 0.  0.
        -24    2    3    3    0    0  0.57748498229E+02 -0.88127415076E+02 -0.36800176020E+03  0.39058198842E+03  0.77638030833E+02 0.  0.
          6    2    1    2  501    0 -0.13762989483E+03  0.31081559101E+02 -0.74857710417E+03  0.78095501432E+03  0.17209009919E+03 0.  0.
         24    2    5    5    0    0 -0.16228033986E+03  0.30135672237E+02 -0.71866801532E+03  0.74190142629E+03  0.81798182354E+02 0.  0.
          5    1    5    5  501    0  0.24650445034E+02  0.94588686309E+00 -0.29909088847E+02  0.39053588029E+02  0.47000000000E+01 0. -1.
        -13    1    6    6    0    0 -0.15594872523E+00  0.14054840131E+02 -0.19718500682E+02  0.24215328209E+02  0.00000000000E+00 0.  1.
         14    1    6    6    0    0 -0.16212439113E+03  0.16080832106E+02 -0.69894951464E+03  0.71768609808E+03  0.00000000000E+00 0. -1.
         -5    1    3    3    0  503  0.79881396597E+02  0.57045855975E+02 -0.26601864293E+03  0.28358997795E+03  0.47000000000E+01 0.  1.
         13    1    4    4    0    0  0.43834497473E+02 -0.52032197418E+02 -0.32781901617E+03  0.33480459988E+03  0.00000000000E+00 0. -1.
        -14    1    4    4    0    0  0.13914000756E+02 -0.36095217658E+02 -0.40182744033E+02  0.55777388544E+02  0.00000000000E+00 0.  1.
</event>
<event>
12    1  0.8331241E-002  0.1849769E+03  0.7818608E-02  0.1163087E+00
         21   -1    0    0  503  502  0.00000000000E+00  0.00000000000E+00  0.11171078337E+03  0.11171078337E+03  0.00000000000E+00 0. -1.
         21   -1    0    0  501  503 -0.00000000000E+00 -0.00000000000E+00 -0.32481460417E+03  0.32481460417E+03  0.00000000000E+00 0. -1.
          6    2    1    2  501    0  0.27131188556E+02 -0.63786040463E+02 -0.15880582384E+03  0.24374385293E+03  0.17142641513E+03 0.  0.
         24    2    3    3    0    0 -0.11502313417E+02  0.12020379112E+02 -0.20454325534E+02  0.81255737031E+02  0.76859109020E+02 0.  0.
         -6    2    1    2    0  502 -0.27131188556E+02  0.63786040463E+02 -0.54297996959E+02  0.19278153461E+03  0.17149835935E+03 0.  0.
        -24    2    5    5    0    0  0.36601144229E+02  0.79110344233E+02 -0.23787932904E+02  0.12032742129E+03  0.79465289520E+02 0.  0.
          5    1    3    3  501    0  0.38633501973E+02 -0.75806419575E+02 -0.13835149831E+03  0.16248811590E+03  0.47000000000E+01 0. -1.
        -11    1    4    4    0    0  0.25853068576E+02  0.22251358402E+01  0.14015198007E+02  0.29491662541E+02  0.00000000000E+00 0.  1.
         12    1    4    4    0    0 -0.37355381993E+02  0.97952432716E+01 -0.34469523541E+02  0.51764074489E+02  0.00000000000E+00 0. -1.
         -5    1    5    5    0  502 -0.63732332784E+02 -0.15324303770E+02 -0.30510064055E+02  0.72454113319E+02  0.47000000000E+01 0.  1.
         13    1    6    6    0    0  0.11632954174E+02  0.41789742840E+02 -0.51675930270E+02  0.67469326354E+02  0.00000000000E+00 0. -1.
        -14    1    6    6    0    0  0.24968190055E+02  0.37320601393E+02  0.27887997366E+02  0.52858094934E+02  0.00000000000E+00 0.  1.
</event>
<event>
12    1  0.8331241E-002  0.2115353E+03  0.7818608E-02  0.1140561E+00
         21   -1    0    0  503  502  0.00000000000E+00  0.00000000000E+00  0.68003407199E+03  0.68003407199E+03  0.00000000000E+00 0. -1.
         21   -1    0    0  501  503 -0.00000000000E+00 -0.00000000000E+00 -0.74856816351E+02  0.74856816351E+02  0.00000000000E+00 0.  1.
          6    2    1    2  501    0  0.11866298205E+03  0.16699227992E+02  0.16833170741E+03  0.26952377955E+03  0.17305414325E+03 0.  0.
         24    2    3    3    0    0  0.33820311238E+02  0.66881274850E+02  0.97643290599E+02  0.14813408110E+03  0.82417082008E+02 0.  0.
         -6    2    1    2    0  502 -0.11866298205E+03 -0.16699227992E+02  0.43684554823E+03  0.48536710880E+03  0.17431990640E+03 0.  0.
        -24    2    5    5    0    0 -0.14007090676E+03 -0.40366223389E+02  0.28545941216E+03  0.33058249035E+03  0.80922283882E+02 0.  0.
          5    1    3    3  501    0  0.84842670813E+02 -0.50182046858E+02  0.70688416813E+02  0.12138969845E+03  0.47000000000E+01 0. -1.
        -13    1    4    4    0    0  0.26648142127E+02  0.54716193772E+02  0.11233108527E+03  0.12775859289E+03  0.00000000000E+00 0.  1.
         14    1    4    4    0    0  0.71721691116E+01  0.12165081077E+02 -0.14687794672E+02  0.20375488208E+02  0.00000000000E+00 0. -1.
         -5    1    5    5    0  502  0.21407924705E+02  0.23666995397E+02  0.15138613607E+03  0.15478461844E+03  0.47000000000E+01 0.  1.
         13    1    6    6    0    0 -0.80928094678E+02 -0.56936253901E+02  0.12958819373E+03  0.16304659908E+03  0.00000000000E+00 0. -1.
        -14    1    6    6    0    0 -0.59142812079E+02  0.16570030511E+02  0.15587121843E+03  0.16753589128E+03  0.00000000000E+00 0.  1.
</event>
<event>
12    1  0.8331241E-002  0.2521847E+03  0.7818608E-02  0.1112396E+00
         21   -1    0    0  501  502  0.00000000000E+00  0.00000000000E+00  0.13679142021E+03  0.13679142021E+03  0.00000000000E+00 0.  1.
         21   -1    0    0  502  503 -0.00000000000E+00 -0.00000000000E+00 -0.55492644951E+03  0.55492644951E+03  0.00000000000E+00 0.  1.
         -6    2    1    2    0  503  0.78741291790E+02 -0.16980852143E+03 -0.35147046000E+03  0.43087066056E+03  0.16456888192E+03 0.  0.
        -24    2    3    3    0    0  0.10800715161E+03 -0.10031616032E+03 -0.28074682850E+03  0.32738345915E+03  0.81438754826E+02 0.  0.
          6    2    1    2  501    0 -0.78741291790E+02  0.16980852143E+03 -0.66664569304E+02  0.26084720917E+03  0.16900288976E+03 0.  0.
         24    2    5    5    0    0 -0.90420082629E+02  0.84452529750E+02 -0.95990623528E+02  0.16972011700E+03  0.65442319522E+02 0.  0.
          5    1    5    5  501    0  0.11678790839E+02  0.85355991678E+02  0.29326054225E+02  0.91127092169E+02  0.47000000000E+01 0. -1.
        -11    1    6    6    0    0 -0.43982871074E+02  0.39009637044E+02 -0.65250068299E+01  0.59150827926E+02  0.00000000000E+00 0.  1.
         12    1    6    6    0    0 -0.46437211556E+02  0.45442892706E+02 -0.89465616698E+02  0.11056928907E+03  0.00000000000E+00 0. -1.
         -5    1    3    3    0  503 -0.29265859822E+02 -0.69492361112E+02 -0.70723631494E+02  0.10348720141E+03  0.47000000000E+01 0.  1.
         11    1    4    4    0    0  0.31463721316E+02  0.19345709779E+01 -0.20843787388E+02  0.37791160297E+02  0.00000000000E+00 0. -1.
        -12    1    4    4    0    0  0.76543430297E+02 -0.10225073129E+03 -0.25990304112E+03  0.28959229885E+03  0.00000000000E+00 0.  1.
</event>
<event>
12    1  0.8331241E-002  0.3674778E+03  0.7818608E-02  0.1055755E+00
         21   -1    0    0  503  502  0.00000000000E+00  0.00000000000E+00  0.18106068329E+03  0.18106068329E+03  0.00000000000E+00 0. -1.
         21   -1    0    0  501  503 -0.00000000000E+00 -0.00000000000E+00 -0.81547598538E+03  0.81547598538E+03  0.00000000000E+00 0.  1.
          6    2    1    2  501    0 -0.70047085078E+02 -0.31727147048E+03 -0.46448627843E+03  0.59167148031E+03  0.16958731571E+03 0.  0.
         24    2    3    3    0    0 -0.11366820904E+02 -0.80105307728E+02 -0.18456207448E+03  0.22009267021E+03  0.88496097085E+02 0.  0.
         -6    2    1    2    0  502  0.70047085078E+02  0.31727147048E+03 -0.16992902366E+03  0.40486518836E+03  0.17167459788E+03 0.  0.
        -24    2    5    5    0    0 -0.16052199483E+02  0.12463796746E+03 -0.32657810736E+02  0.15309896906E+03  0.81120069541E+02 0.  0.
          5    1    3    3  501    0 -0.58680264174E+02 -0.23716616275E+03 -0.27992420395E+03  0.37157881010E+03  0.47000000000E+01 0. -1.
        -11    1    4    4    0    0 -0.37128255413E+02 -0.67838985547E+02 -0.17263924026E+03  0.18916908465E+03  0.00000000000E+00 0.  1.
         12    1    4    4    0    0  0.25761434509E+02 -0.12266322181E+02 -0.11922834219E+02  0.30923585556E+02  0.00000000000E+00 0. -1.
         -5    1    5    5    0  502  0.86099284560E+02  0.19263350301E+03 -0.13727121292E+03  0.25176621930E+03  0.47000000000E+01 0.  1.
         13    1    6    6    0    0 -0.38609745961E+02  0.12042896175E+03 -0.25049878608E+02  0.12892379039E+03  0.00000000000E+00 0. -1.
        -14    1    6    6    0    0  0.22557546479E+02  0.42090057184E+01 -0.76079321273E+01  0.24175178666E+02  0.00000000000E+00 0.  1.
</event>
<event>
12    1  0.8331241E-002  0.2458703E+03  0.7818608E-02  0.1116112E+00
         21   -1    0    0  501  502  0.00000000000E+00  0.00000000000E+00  0.21115673010E+04  0.21115673010E+04  0.00000000000E+00 0.  1.
         21   -1    0    0  502  503 -0.00000000000E+00 -0.00000000000E+00 -0.31811433200E+02  0.31811433200E+02  0.00000000000E+00 0.  1.
         -6    2    1    2    0  503 -0.42411074366E+02 -0.17061200753E+03  0.69251658515E+03  0.73451925886E+03  0.17038827595E+03 0.  0.
        -24    2    3    3    0    0 -0.42080139052E+02 -0.52594225388E+02  0.46523680415E+03  0.47838160978E+03  0.88694926575E+02 0.  0.
          6    2    1    2  501    0  0.42411074366E+02  0.17061200753E+03  0.13872392826E+04  0.14088594753E+04  0.17188669988E+03 0.  0.
         24    2    5    5    0    0  0.66245830630E+02  0.48092268198E+02  0.64928683392E+03  0.66041102106E+03  0.88701452640E+02 0.  0.
          5    1    5    5  501    0 -0.23834756264E+02  0.12251973933E+03  0.73795244873E+03  0.74844845428E+03  0.47000000000E+01 0. -1.
        -11    1    6    6    0    0 -0.23856588141E+01  0.34701986539E+02  0.85506049553E+02  0.92310366416E+02  0.00000000000E+00 0.  1.
         12    1    6    6    0    0  0.68631489445E+02  0.13390281659E+02  0.56378078436E+03  0.56810065464E+03  0.00000000000E+00 0. -1.
         -5    1    3    3    0  503 -0.33093531438E+00 -0.11801778214E+03  0.22727978101E+03  0.25613764908E+03  0.47000000000E+01 0.  1.
         13    1    4    4    0    0  0.71279090612E+01 -0.36147444281E+02  0.64347538916E+02  0.74148840720E+02  0.00000000000E+00 0. -1.
        -14    1    4    4    0    0 -0.49208048113E+02 -0.16446781107E+02  0.40088926523E+03  0.40423276906E+03  0.00000000000E+00 0.  1.
</event>
<event>
12    1  0.8331241E-002  0.1754367E+03  0.7818608E-02  0.1172645E+00
         21   -1    0    0  503  502  0.00000000000E+00  0.00000000000E+00  0.24280103881E+02  0.24280103881E+02  0.00000000000E+00 0. -1.
         21   -1    0    0  501  503 -0.00000000000E+00 -0.00000000000E+00 -0.17822045902E+04  0.17822045902E+04  0.00000000000E+00 0. -1.
          6    2    1    2  501    0 -0.12988419572E+02 -0.13077196428E+01 -0.13715119631E+04  0.13826869143E+04  0.17495036104E+03 0.  0.
         24    2    3    3    0    0 -0.88035174004E+01  0.41265982232E+02 -0.40244471392E+03  0.41266451406E+03  0.80931268341E+02 0.  0.
         -6    2    1    2    0  502  0.12988419572E+02  0.13077196428E+01 -0.38641252321E+03  0.42379777979E+03  0.17354973606E+03 0.  0.
        -24    2    5    5    0    0 -0.30484703956E+02 -0.54554201113E+02 -0.26361177096E+03  0.28197894672E+03  0.78201550950E+02 0.  0.
          5    1    3    3  501    0 -0.41849021714E+01 -0.42573701875E+02 -0.96906724923E+03  0.97002240027E+03  0.47000000000E+01 0. -1.
        -11    1    4    4    0    0  0.19837111684E+02  0.35571384904E+02 -0.35222562911E+03  0.35457259937E+03  0.00000000000E+00 0.  1.
         12    1    4    4    0    0 -0.28640629084E+02  0.56945973281E+01 -0.50219084811E+02  0.58091914690E+02  0.00000000000E+00 0. -1.
         -5    1    5    5    0  502  0.43473123527E+02  0.55861920756E+02 -0.12280075225E+03  0.14181883307E+03  0.47000000000E+01 0.  1.
         13    1    6    6    0    0  0.23064510315E+02 -0.31030414009E+02 -0.13979175450E+03  0.14503996986E+03  0.00000000000E+00 0. -1.
        -14    1    6    6    0    0 -0.53549214270E+02 -0.23523787104E+02 -0.12382001646E+03  0.13693897686E+03  0.00000000000E+00 0.  1.
</event>
<event>
12    1  0.8331241E-002  0.3185863E+03  0.7818608E-02  0.1076322E+00
         21   -1    0    0  501  502  0.00000000000E+00  0.00000000000E+00  0.37902898057E+03  0.37902898057E+03  0.00000000000E+00 0.  1.
         21   -1    0    0  502  503 -0.00000000000E+00 -0.00000000000E+00 -0.27351002760E+03  0.27351002760E+03  0.00000000000E+00 0. -1.
         -6    2    1    2    0  503  0.15166787526E+03  0.22087452354E+03  0.49530416166E+01  0.31862482072E+03  0.17236166691E+03 0.  0.
        -24    2    3    3    0    0  0.30756475840E+02  0.10327124640E+03  0.20021472015E+02  0.14921630588E+03  0.10126073010E+03 0.  0.
          6    2    1    2  501    0 -0.15166787526E+03 -0.22087452354E+03  0.10056591135E+03  0.33391418746E+03  0.17203628258E+03 0.  0.
         24    2    5    5    0    0 -0.17501317159E+03 -0.15395209742E+03  0.67905215778E+02  0.25573218817E+03  0.80355306019E+02 0.  0.
          5    1    5    5  501    0  0.23345296325E+02 -0.66922426113E+02  0.32660695575E+02  0.78181999289E+02  0.47000000000E+01 0. -1.
        -13    1    6    6    0    0 -0.15656230893E+02 -0.26919551827E+02  0.38985979502E+02  0.49896757751E+02  0.00000000000E+00 0.  1.
         14    1    6    6    0    0 -0.15935694070E+03 -0.12703254560E+03  0.28919236276E+02  0.20583543042E+03  0.00000000000E+00 0. -1.
         -5    1    3    3    0  503  0.12091139942E+03  0.11760327713E+03 -0.15068430398E+02  0.16940851483E+03  0.47000000000E+01 0.  1.
         11    1    4    4    0    0  0.22348687521E+02  0.53990279672E+02 -0.40216679267E+02  0.70935149427E+02  0.00000000000E+00 0. -1.
        -12    1    4    4    0    0  0.84077883185E+01  0.49280966730E+02  0.60238151281E+02  0.78281156456E+02  0.00000000000E+00 0.  1.
</event>
<event>
12    1  0.8331241E-002  0.2134742E+03  0.7818608E-02  0.1140699E+00
         21   -1    0    0  503  502  0.00000000000E+00  0.00000000000E+00  0.32563304074E+02  0.32563304074E+02  0.00000000000E+00 0.  1.
         21   -1    0    0  501  503 -0.00000000000E+00 -0.00000000000E+00 -0.13471074555E+04  0.13471074555E+04  0.00000000000E+00 0.  1.
          6    2    1    2  501    0  0.11267537947E+03 -0.16776356199E+02 -0.69659701092E+03  0.72588952922E+03  0.16938425471E+03 0.  0.
         24    2    3    3    0    0  0.84919345384E+02 -0.71863587713E+02 -0.38220361804E+03  0.40546747007E+03  0.77127123515E+02 0.  0.
         -6    2    1    2    0  502 -0.11267537947E+03  0.16776356199E+02 -0.61794714047E+03  0.65378123032E+03  0.18053819938E+03 0.  0.
        -24    2    5    5    0    0 -0.11316721122E+03 -0.48380551787E+02 -0.40153191209E+03  0.42772082770E+03  0.81053898951E+02 0.  0.
          5    1    3    3  501    0  0.27756034082E+02  0.55087231514E+02 -0.31439339288E+03  0.32042205915E+03  0.47000000000E+01 0. -1.
        -11    1    4    4    0    0  0.11847152026E+01  0.37446244997E+01 -0.11948291875E+03  0.11954745349E+03  0.00000000000E+00 0.  1.
         12    1    4    4    0    0  0.83734630182E+02 -0.75608212212E+02 -0.26272069929E+03  0.28592001658E+03  0.00000000000E+00 0. -1.
         -5    1    5    5    0  502  0.49183175711E+00  0.65156907986E+02 -0.21641522839E+03  0.22606040262E+03  0.47000000000E+01 0.  1.
         13    1    6    6    0    0 -0.77844829465E+01 -0.36010084234E+02 -0.15511569539E+03  0.15943087310E+03  0.00000000000E+00 0. -1.
        -14    1    6    6    0    0 -0.10538272828E+03 -0.12370467554E+02 -0.24641621669E+03  0.26828995459E+03  0.00000000000E+00 0.  1.
</event>
<event>
12    1  0.8331241E-002  0.1785322E+03  0.7818608E-02  0.1173024E+00
         21   -1    0    0  501  502  0.00000000000E+00  0.00000000000E+00  0.19192259593E+03  0.19192259593E+03  0.00000000000E+00 0. -1.
         21   -1    0    0  502  503 -0.00000000000E+00 -0.00000000000E+00 -0.24101500550E+03  0.24101500550E+03  0.00000000000E+00 0. -1.
         -6    2    1    2    0  503  0.42330120939E+02  0.21020236302E+01 -0.15491686387E+03  0.22539832898E+03  0.15814207015E+03 0.  0.
        -24    2    3    3    0    0  0.30326086269E+02 -0.50730117144E+02 -0.13349160166E+03  0.16694780453E+03  0.80983612111E+02 0.  0.
          6    2    1    2  501    0 -0.42330120939E+02 -0.21020236302E+01  0.10582445430E+03  0.20753927246E+03  0.17342859292E+03 0.  0.
         24    2    5    5    0    0 -0.65370827047E+02 -0.30624467237E+02  0.12228020260E+02  0.10690733721E+03  0.77900264745E+02 0.  0.
          5    1    5    5  501    0  0.23040706108E+02  0.28522443607E+02  0.93596434040E+02  0.10063193525E+03  0.47000000000E+01 0. -1.
        -11    1    6    6    0    0  0.17991147792E+02 -0.77522983729E+01 -0.95565758478E-01  0.19590524796E+02  0.00000000000E+00 0.  1.
         12    1    6    6    0    0 -0.83361974839E+02 -0.22872168864E+02  0.12323586019E+02  0.87316812413E+02  0.00000000000E+00 0. -1.
         -5    1    3    3    0  503  0.12004034670E+02  0.52832140774E+02 -0.21425262209E+02  0.58450524445E+02  0.47000000000E+01 0.  1.
         11    1    4    4    0    0  0.41804783158E+02 -0.13140331256E+02 -0.11586103097E+03  0.12387125049E+03  0.00000000000E+00 0. -1.
        -12    1    4    4    0    0 -0.11478696889E+02 -0.37589785888E+02 -0.17630570691E+02  0.43076554043E+02  0.00000000000E+00 0.  1.
</event>
<event>
12    1  0.8331241E-002  0.2183429E+03  0.7818608E-02  0.1135191E+00
         21   -1    0    0  501  502  0.00000000000E+00  0.00000000000E+00  0.12403581358E+03  0.12403581358E+03  0.00000000000E+00 0. -1.
         21   -1    0    0  502  503 -0.00000000000E+00 -0.00000000000E+00 -0.43386892219E+03  0.43386892219E+03  0.00000000000E+00 0.  1.
         -6    2    1    2    0  503  0.13049770882E+03 -0.28230761536E+02 -0.24963356273E+03  0.33141496273E+03  0.17231463657E+03 0.  0.
        -24    2    3    3    0    0  0.14509818024E+03  0.95494937015E+01 -0.15119308529E+03  0.22486385269E+03  0.80992150678E+02 0.  0.
          6    2    1    2  501    0 -0.13049770882E+03  0.28230761536E+02 -0.60199545881E+02  0.22648977303E+03  0.17276285497E+03 0.  0.
         24    2    5    5    0    0 -0.11064040219E+03 -0.13713317068E+02  0.15143718466E+02  0.13787647923E+03  0.79694652594E+02 0.  0.
          5    1    5    5  501    0 -0.19857306631E+02  0.41944078604E+02 -0.75343264346E+02  0.88613293805E+02  0.47000000000E+01 0. -1.
        -11    1    6    6    0    0 -0.36304485976E+02 -0.98265177173E+01 -0.32323710189E+02  0.49592321914E+02  0.00000000000E+00 0.  1.
         12    1    6    6    0    0 -0.74335916217E+02 -0.38867993512E+01  0.47467428655E+02  0.88284157311E+02  0.00000000000E+00 0. -1.
         -5    1    3    3    0  503 -0.14600471412E+02 -0.37780255237E+02 -0.98440477448E+02  0.10655111004E+03  0.47000000000E+01 0.  1.
         11    1    4    4    0    0  0.32388929088E+02  0.20207940157E+02 -0.28869641874E+01  0.38284959645E+02  0.00000000000E+00 0. -1.
        -12    1    4    4    0    0  0.11270925115E+03 -0.10658446455E+02 -0.14830612110E+03  0.18657889305E+03  0.00000000000E+00 0.  1.
</event>
<event>
12    1  0.8331241E-002  0.1745286E+03  0.7818608E-02  0.1173295E+00
         21   -1    0    0  501  502  0.00000000000E+00  0.00000000000E+00  0.20031585979E+03  0.20031585979E+03  0.00000000000E+00 0.  1.
         21   -1    0    0  502  503 -0.00000000000E+00 -0.00000000000E+00 -0.16050323076E+03  0.16050323076E+03  0.00000000000E+00 0.  1.
         -6    2    1    2    0  503 -0.26553510819E+02 -0.10748459135E+02 -0.22198547788E+02  0.17593470347E+03  0.17216162770E+03 0.  0.
        -24    2    3    3    0    0  0.88815209889E+01  0.55032717479E+02 -0.24390554912E+02  0.10103677579E+03  0.80660086069E+02 0.  0.
          6    2    1    2  501    0  0.26553510819E+02  0.10748459135E+02  0.62011176815E+02  0.18488438708E+03  0.17180288771E+03 0.  0.
         24    2    5    5    0    0  0.32534430943E+02 -0.58405713805E+02  0.31703617484E+02  0.10899822765E+03  0.80036102274E+02 0.  0.
          5    1    5    5  501    0 -0.59809201243E+01  0.69154172940E+02  0.30307559332E+02  0.75886159431E+02  0.47000000000E+01 0. -1.
        -11    1    6    6    0    0 -0.14934293383E+02 -0.22565109885E+01 -0.15485973237E+02  0.21631928434E+02  0.00000000000E+00 0.  1.
         12    1    6    6    0    0  0.47468724326E+02 -0.56149202816E+02  0.47189590721E+02  0.87366299215E+02  0.00000000000E+00 0. -1.
         -5    1    3    3    0  503 -0.35435031808E+02 -0.65781176615E+02  0.21920071245E+01  0.74897927683E+02  0.47000000000E+01 0.  1.
         11    1    4    4    0    0 -0.13483197181E+01  0.71110135016E+02 -0.34954737724E+02  0.79248362491E+02  0.00000000000E+00 0. -1.
        -12    1    4    4    0    0  0.10229840707E+02 -0.16077417537E+02  0.10564182812E+02  0.21788413298E+02  0.00000000000E+00 0.  1.
</event>
<event>
12    1  0.8331241E-002  0.2539823E+03  0.7818608E-02  0.1110828E+00
         21   -1    0    0  503  502  0.00000000000E+00  0.00000000000E+00  0.13961809542E+04  0.13961809542E+04  0.00000000000E+00 0. -1.
         21   -1    0    0  501  503 -0.00000000000E+00 -0.00000000000E+00 -0.62913743399E+02  0.62913743399E+02  0.00000000000E+00 0.  1.
          6    2    1    2  501    0 -0.17466687659E+03  0.71432563919E+02  0.29053875565E+03  0.38590122586E+03  0.16998781903E+03 0.  0.
         24    2    3    3    0    0 -0.18429425459E+03  0.21141616104E+02  0.22485457498E+03  0.30248439644E+03  0.80782980856E+02 0.  0.
         -6    2    1    2    0  502  0.17466687659E+03 -0.71432563919E+02  0.10427284551E+04  0.10731934717E+04  0.16985425412E+03 0.  0.
        -24    2    5    5    0    0  0.67410171900E+02  0.26151545088E+02  0.41534679376E+03  0.42925519979E+03  0.80740528089E+02 0.  0.
          5    1    3    3  501    0  0.96273779992E+01  0.50290947815E+02  0.65684180679E+02  0.83416829421E+02  0.47000000000E+01 0. -1.
        -11    1    4    4    0    0 -0.12814423255E+03  0.41304363545E+02  0.11324643336E+03  0.17593109291E+03  0.00000000000E+00 0.  1.
         12    1    4    4    0    0 -0.56150022035E+02 -0.20162747440E+02  0.11160814161E+03  0.12655330353E+03  0.00000000000E+00 0. -1.
         -5    1    5    5    0  502  0.10725670469E+03 -0.97584109007E+02  0.62738166137E+03  0.64393827193E+03  0.47000000000E+01 0.  1.
         11    1    6    6    0    0  0.35104016639E+02  0.27870832696E+02  0.74992308913E+02  0.87366593704E+02  0.00000000000E+00 0. -1.
        -12    1    6    6    0    0  0.32306155261E+02 -0.17192876086E+01  0.34035448485E+03  0.34188860609E+03  0.00000000000E+00 0.  1.
</event>
<event>
12    1  0.8331241E-002  0.1882598E+03  0.7818608E-02  0.1160688E+00
         21   -1    0    0  501  502  0.00000000000E+00  0.00000000000E+00  0.12484333848E+03  0.12484333848E+03  0.00000000000E+00 0.  1.
         21   -1    0    0  502  503 -0.00000000000E+00 -0.00000000000E+00 -0.28004597838E+03  0.28004597838E+03  0.00000000000E+00 0.  1.
         -6    2    1    2    0  503 -0.72132458562E+02  0.13139641083E+02 -0.70690904812E+02  0.20109441848E+03  0.17339555754E+03 0.  0.
        -24    2    3    3    0    0  0.20953945505E+02  0.66776146646E+01 -0.66176003162E+02  0.10755666811E+03  0.81887209566E+02 0.  0.
          6    2    1    2  501    0  0.72132458562E+02 -0.13139641083E+02 -0.84511735094E+02  0.20379489838E+03  0.17033609568E+03 0.  0.
         24    2    5    5    0    0 -0.26061702779E+02  0.22705656626E+00 -0.52527935908E+02  0.99555676694E+02  0.80454240440E+02 0.  0.
          5    1    5    5  501    0  0.98194161341E+02 -0.13366697649E+02 -0.31983799187E+02  0.10423922169E+03  0.47000000000E+01 0. -1.
        -11    1    6    6    0    0 -0.13071860008E+02  0.40226959324E+02 -0.22778473750E+02  0.48041030868E+02  0.00000000000E+00 0.  1.
         12    1    6    6    0    0 -0.12989842771E+02 -0.39999902758E+02 -0.29749462158E+02  0.51514645825E+02  0.00000000000E+00 0. -1.
         -5    1    3    3    0  503 -0.93086404067E+02  0.64620264186E+01 -0.45149016497E+01  0.93537750371E+02  0.47000000000E+01 0.  1.
         13    1    4    4    0    0 -0.14496091082E+02  0.19711745410E+02 -0.65346617343E+02  0.69777288296E+02  0.00000000000E+00 0. -1.
        -14    1    4    4    0    0  0.35450036587E+02 -0.13034130745E+02 -0.82938581924E+00  0.37779379814E+02  0.00000000000E+00 0.  1.
</event>
<event>
12    1  0.8331241E-002  0.2056651E+03  0.7818608E-02  0.1145168E+00
         21   -1    0    0  501  502  0.00000000000E+00  0.00000000000E+00  0.13590217669E+04  0.13590217669E+04  0.00000000000E+00 0.  1.
         21   -1    0    0  502  503 -0.00000000000E+00 -0.00000000000E+00 -0.45215459434E+02  0.45215459434E+02  0.00000000000E+00 0. -1.
         -6    2    1    2    0  503 -0.85008894231E+02 -0.76054287822E+02  0.26433796840E+03  0.33492192419E+03  0.17113552224E+03 0.  0.
        -24    2    3    3    0    0 -0.11877915391E+03 -0.91247712481E+02  0.21740977485E+03  0.27495846914E+03  0.76814823532E+02 0.  0.
          6    2    1    2  501    0  0.85008894231E+02  0.76054287822E+02  0.10494683390E+04  0.10693153021E+04  0.17041318580E+03 0.  0.
         24    2    5    5    0    0  0.11431879973E+03  0.54874976231E+02  0.60567616682E+03  0.62402751212E+03  0.80539840050E+02 0.  0.
          5    1    5    5  501    0 -0.29309905497E+02  0.21179311591E+02  0.44379217220E+03  0.44528778998E+03  0.47000000000E+01 0. -1.
        -13    1    6    6    0    0  0.61282682468E+02  0.56661944543E+02  0.48598646617E+03  0.49310139772E+03  0.00000000000E+00 0.  1.
         14    1    6    6    0    0  0.53036117260E+02 -0.17869683116E+01  0.11968970065E+03  0.13092611440E+03  0.00000000000E+00 0. -1.
         -5    1    3    3    0  503  0.33770259683E+02  0.15193424659E+02  0.46928193552E+02  0.59963455054E+02  0.47000000000E+01 0.  1.
         11    1    4    4    0    0 -0.69235418284E+02 -0.47007612553E+02  0.56758356238E+02  0.10111760374E+03  0.00000000000E+00 0. -1.
        -12    1    4    4    0    0 -0.49543735630E+02 -0.44240099928E+02  0.16065141861E+03  0.17384086540E+03  0.00000000000E+00 0.  1.
</event>
<event>
12    1  0.8331241E-002  0.1891090E+03  0.7818608E-02  0.1159404E+00
         21   -1    0    0  503  502  0.00000000000E+00  0.00000000000E+00  0.16918931448E+03  0.16918931448E+03  0.00000000000E+00 0. -1.
         21   -1    0    0  501  503 -0.00000000000E+00 -0.00000000000E+00 -0.21113350622E+03  0.21113350622E+03  0.00000000000E+00 0.  1.
          6    2    1    2  501    0  0.45322838064E+02  0.62659751242E+02 -0.12409933355E+02  0.18951570594E+03  0.17257401971E+03 0.  0.
         24    2    3    3    0    0  0.14357568258E+01 -0.32552634443E+02 -0.54218517365E+01  0.84337773030E+02  0.77599794308E+02 0.  0.
         -6    2    1    2    0  502 -0.45322838064E+02 -0.62659751242E+02 -0.29534258381E+02  0.19080711476E+03  0.17191474209E+03 0.  0.
        -24    2    5    5    0    0 -0.89908232079E+02 -0.72792021348E+02 -0.41208262656E+02  0.14338462397E+03  0.74019327963E+02 0.  0.
          5    1    3    3  501    0  0.43887081238E+02  0.95212385685E+02 -0.69880816182E+01  0.10517793291E+03  0.47000000000E+01 0. -1.
        -11    1    4    4    0    0  0.37062402305E+02 -0.20764421853E+02 -0.15924854312E+02  0.45369415517E+02  0.00000000000E+00 0.  1.
         12    1    4    4    0    0 -0.35626645479E+02 -0.11788212590E+02  0.10503002576E+02  0.38968357513E+02  0.00000000000E+00 0. -1.
         -5    1    5    5    0  502  0.44585394015E+02  0.10132270107E+02  0.11674004275E+02  0.47422490791E+02  0.47000000000E+01 0.  1.
         11    1    6    6    0    0 -0.65379770395E+02 -0.65942614335E+02  0.23931500484E+01  0.92890634240E+02  0.00000000000E+00 0. -1.
        -12    1    6    6    0    0 -0.24528461683E+02 -0.68494070135E+01 -0.43601412704E+02  0.50493989730E+02  0.00000000000E+00 0.  1.
</event>
<event>
12    1  0.8331241E-002  0.2041128E+03  0.7818608E-02  0.1146944E+00
         21   -1    0    0  501  502  0.00000000000E+00  0.00000000000E+00  0.94820967070E+03  0.94820967070E+03  0.00000000000E+00 0.  1.
         21   -1    0    0  502  503 -0.00000000000E+00 -0.00000000000E+00 -0.26504425241E+03  0.26504425241E+03  0.00000000000E+00 0.  1.
         -6    2    1    2    0  503  0.42960097160E+01  0.99746908490E+02 -0.21288051886E+03  0.29492399637E+03  0.17802850016E+03 0.  0.
        -24    2    3    3    0    0  0.44189630794E+02  0.50892268900E+02 -0.42278583495E+02  0.11297513772E+03  0.80206961146E+02 0.  0.
          6    2    1    2  501    0 -0.42960097160E+01 -0.99746908490E+02  0.89604593716E+03  0.91832992674E+03  0.17453833790E+03 0.  0.
         24    2    5    5    0    0  0.62115780289E+02 -0.78991873227E+02  0.49847196154E+03  0.51468595809E+03  0.79556601329E+02 0.  0.
          5    1    5    5  501    0 -0.66411790005E+02 -0.20755035263E+02  0.39757397562E+03  0.40364396865E+03  0.47000000000E+01 0. -1.
        -13    1    6    6    0    0  0.41093578151E+02  0.25718721763E+00  0.10485034246E+03  0.11261590751E+03  0.00000000000E+00 0.  1.
         14    1    6    6    0    0  0.21022202138E+02 -0.79249060445E+02  0.39362161908E+03  0.40207005058E+03  0.00000000000E+00 0. -1.
         -5    1    3    3    0  503 -0.39893621078E+02  0.48854639590E+02 -0.17060193537E+03  0.18194885865E+03  0.47000000000E+01 0.  1.
         11    1    4    4    0    0  0.15430393611E+02  0.57189080646E+02  0.26119899308E+01  0.59291740432E+02  0.00000000000E+00 0. -1.
        -12    1    4    4    0    0  0.28759237183E+02 -0.62968117459E+01 -0.44890573426E+02  0.53683397285E+02  0.00000000000E+00 0.  1.
</event>
<event>
12    1  0.8331241E-002  0.2645686E+03  0.7818608E-02  0.1104632E+00
         21   -1    0    0  503  502  0.00000000000E+00  0.00000000000E+00  0.95475860444E+02  0.95475860444E+02  0.00000000000E+00 0.  1.
         21   -1    0    0  501  503 -0.00000000000E+00 -0.00000000000E+00 -0.75216567928E+03  0.75216567928E+03  0.00000000000E+00 0.  1.
          6    2    1    2  501    0  0.13070839127E+03  0.15416210026E+03 -0.40304265154E+03  0.48212023776E+03  0.17072172676E+03 0.  0.
         24    2    3    3    0    0  0.61161373955E+02  0.14068327017E+03 -0.36044698676E+03  0.39932562962E+03  0.77501174425E+02 0.  0.
         -6    2    1    2    0  502 -0.13070839127E+03 -0.15416210026E+03 -0.25364716730E+03  0.36552130197E+03  0.16857728202E+03 0.  0.
        -24    2    5    5    0    0 -0.16201385296E+03 -0.13943211139E+03 -0.22278880664E+03  0.31892373845E+03  0.79923065148E+02 0.  0.
          5    1    3    3  501    0  0.69547017315E+02  0.13478830086E+02 -0.42595664779E+02  0.82794608133E+02  0.47000000000E+01 0. -1.
        -11    1    4    4    0    0  0.16592397187E+01  0.69637328607E+02 -0.22243553220E+03  0.23308727250E+03  0.00000000000E+00 0.  1.
         12    1    4    4    0    0  0.59502134236E+02  0.71045941563E+02 -0.13801145456E+03  0.16623835713E+03  0.00000000000E+00 0. -1.
         -5    1    5    5    0  502  0.31305461695E+02 -0.14729988870E+02 -0.30858360656E+02  0.46597563524E+02  0.47000000000E+01 0.  1.
         13    1    6    6    0    0 -0.42820467542E+02 -0.22352830679E+01 -0.67015791991E+02  0.79559445116E+02  0.00000000000E+00 0. -1.
        -14    1    6    6    0    0 -0.11919338542E+03 -0.13719682832E+03 -0.15577301465E+03  0.23936429333E+03  0.00000000000E+00 0.  1.
</event>
<event>
12    1  0.8331241E-002  0.2158841E+03  0.7818608E-02  0.1137599E+00
         21   -1    0    0  503  502  0.00000000000E+00  0.00000000000E+00  0.23970041553E+03  0.23970041553E+03  0.00000000000E+00 0. -1.
         21   -1    0    0  501  503 -0.00000000000E+00 -0.00000000000E+00 -0.19195518673E+03  0.19195518673E+03  0.00000000000E+00 0. -1.
          6    2    1    2  501    0  0.97771005059E+02 -0.88940640468E+02  0.14338653847E+02  0.21320207859E+03  0.16667310030E+03 0.  0.
         24    2    3    3    0    0 -0.97365318640E+01 -0.33015870640E+02 -0.17620047818E+02  0.87787171229E+02  0.78811633535E+02 0.  0.
         -6    2    1    2    0  502 -0.97771005059E+02  0.88940640468E+02  0.33406574960E+02  0.21845352367E+03  0.17069368998E+03 0.  0.
        -24    2    5    5    0    0 -0.86592810938E+02  0.83885086009E+02 -0.35701487786E+02  0.14810777049E+03  0.78270638738E+02 0.  0.
          5    1    3    3  501    0  0.10750753692E+03 -0.55924769828E+02  0.31958701665E+02  0.12541490736E+03  0.47000000000E+01 0. -1.
        -11    1    4    4    0    0  0.36045322675E+01  0.25106124778E+02 -0.11472933109E+02  0.27837714496E+02  0.00000000000E+00 0.  1.
         12    1    4    4    0    0 -0.13341064131E+02 -0.58121995417E+02 -0.61471147089E+01  0.59949456734E+02  0.00000000000E+00 0. -1.
         -5    1    5    5    0  502 -0.11178194120E+02  0.50555544595E+01  0.69108062746E+02  0.70345753185E+02  0.47000000000E+01 0.  1.
         13    1    6    6    0    0 -0.75874693117E+02  0.27123039534E+02 -0.72758377476E+00  0.80580132212E+02  0.00000000000E+00 0. -1.
        -14    1    6    6    0    0 -0.10718117822E+02  0.56762046475E+02 -0.34973904011E+02  0.67527638278E+02  0.00000000000E+00 0.  1.
</event>
<event>
12    1  0.8331241E-002  0.1776705E+03  0.7818608E-02  0.1170113E+00
         21   -1    0    0  501  502  0.00000000000E+00  0.00000000000E+00  0.24776128127E+03  0.24776128127E+03  0.00000000000E+00 0.  1.
         21   -1    0    0  502  503 -0.00000000000E+00 -0.00000000000E+00 -0.26442239802E+03  0.26442239802E+03  0.00000000000E+00 0.  1.
         -6    2    1    2    0  503  0.18816997586E+02 -0.40136366650E+02 -0.19274319288E+03  0.26204033304E+03  0.17190168821E+03 0.  0.
        -24    2    3    3    0    0  0.69500012338E+00  0.18094475874E+02 -0.28742104882E+02  0.87004094852E+02  0.80098132597E+02 0.  0.
          6    2    1    2  501    0 -0.18816997586E+02  0.40136366650E+02  0.17608207613E+03  0.25014334625E+03  0.17205170389E+03 0.  0.
         24    2    5    5    0    0  0.51820720499E+02  0.15357175776E+02  0.12871051864E+03  0.16143117134E+03  0.81070312402E+02 0.  0.
          5    1    5    5  501    0 -0.70637718085E+02  0.24779190874E+02  0.47371557498E+02  0.88712174906E+02  0.47000000000E+01 0. -1.
        -13    1    6    6    0    0  0.22075968235E+02  0.11829354562E+02 -0.40170805826E+01  0.25365703998E+02  0.00000000000E+00 0.  1.
         14    1    6    6    0    0  0.29744752264E+02  0.35278212144E+01  0.13272759922E+03  0.13606546735E+03  0.00000000000E+00 0. -1.
         -5    1    3    3    0  503  0.18121997463E+02 -0.58230842525E+02 -0.16400108800E+03  0.17503623818E+03  0.47000000000E+01 0.  1.
         11    1    4    4    0    0 -0.37306990473E+01 -0.31782510369E+02 -0.12626859157E+02  0.34401797234E+02  0.00000000000E+00 0. -1.
        -12    1    4    4    0    0  0.44256991707E+01  0.49876986244E+02 -0.16115245724E+02  0.52602297618E+02  0.00000000000E+00 0.  1.
</event>
<event>
12    1  0.8331241E-002  0.2209926E+03  0.7818608E-02  0.1133213E+00
         21   -1    0    0  503  502  0.00000000000E+00  0.00000000000E+00  0.70203117021E+03  0.70203117021E+03  0.00000000000E+00 0.  1.
         21   -1    0    0  501  503 -0.00000000000E+00 -0.00000000000E+00 -0.17804312325E+03  0.17804312325E+03  0.00000000000E+00 0.  1.
          6    2    1    2  501    0 -0.13052579206E+03  0.48541248780E+02 -0.81577824497E+02  0.23556877701E+03  0.17159391604E+03 0.  0.
         24    2    3    3    0    0 -0.13974134036E+03  0.85487922130E+02 -0.73131897968E+02  0.19628256216E+03  0.79641337699E+02 0.  0.
         -6    2    1    2    0  502  0.13052579206E+03 -0.48541248780E+02  0.60556587145E+03  0.64450551646E+03  0.17112597947E+03 0.  0.
        -24    2    5    5    0    0  0.62385950351E+02  0.19986012012E+02  0.15471718119E+03  0.18339202174E+03  0.73510407460E+02 0.  0.
          5    1    3    3  501    0  0.92155482985E+01 -0.36946673350E+02 -0.84459265285E+01  0.39286214847E+02  0.47000000000E+01 0. -1.
        -13    1    4    4    0    0 -0.71697837360E+02  0.85853003695E+02 -0.60182904298E+02  0.12701692838E+03  0.00000000000E+00 0.  1.
         14    1    4    4    0    0 -0.68043503004E+02 -0.36508156527E+00 -0.12948993670E+02  0.69265633778E+02  0.00000000000E+00 0. -1.
         -5    1    5    5    0  502  0.68139841714E+02 -0.68527260792E+02  0.45084869026E+03  0.46111349472E+03  0.47000000000E+01 0.  1.
         11    1    6    6    0    0  0.75458055633E+02  0.11291797145E+02  0.14760137796E+03  0.16615531775E+03  0.00000000000E+00 0. -1.
        -12    1    6    6    0    0 -0.13072105282E+02  0.86942148665E+01  0.71158032312E+01  0.17236703985E+02  0.00000000000E+00 0.  1.
</event>
<event>
12    1  0.8331241E-002  0.2089559E+03  0.7818608E-02  0.1142725E+00
         21   -1    0    0  503  502  0.00000000000E+00  0.00000000000E+00  0.86385013975E+03  0.86385013975E+03  0.00000000000E+00 0.  1.
         21   -1    0    0  501  503 -0.00000000000E+00 -0.00000000000E+00 -0.24541833100E+03  0.24541833100E+03  0.00000000000E+00 0. -1.
          6    2    1    2  501    0  0.55508179315E+02 -0.97501501077E+02 -0.18526826807E+03  0.27926137462E+03  0.17628069525E+03 0.  0.
         24    2    3    3    0    0  0.51134938077E+02 -0.12629217835E+03 -0.94518267273E+02  0.18383768269E+03  0.79360535050E+02 0.  0.
         -6    2    1    2    0  502 -0.55508179315E+02  0.97501501077E+02  0.80370007683E+03  0.83000709613E+03  0.17432803980E+03 0.  0.
        -24    2    5    5    0    0  0.27461614990E+02  0.25146848553E+02  0.48804823969E+03  0.49567589089E+03  0.78211254055E+02 0.  0.
          5    1    3    3  501    0  0.43732412384E+01  0.28790677274E+02 -0.90750000801E+02  0.95423691933E+02  0.47000000000E+01 0. -1.
        -11    1    4    4    0    0  0.47514943135E+02 -0.29471658316E+02 -0.13451462913E+02  0.57508176110E+02  0.00000000000E+00 0.  1.
         12    1    4    4    0    0  0.36199949416E+01 -0.96820520035E+02 -0.81066804360E+02  0.12632950658E+03  0.00000000000E+00 0. -1.
         -5    1    5    5    0  502 -0.82969794306E+02  0.72354652524E+02  0.31565183714E+03  0.33433120524E+03  0.47000000000E+01 0.  1.
         11    1    6    6    0    0  0.16628943410E+02  0.10829840489E+02  0.23403272652E+02  0.30684203994E+02  0.00000000000E+00 0. -1.
        -12    1    6    6    0    0  0.10832671580E+02  0.14317008064E+02  0.46464496704E+03  0.46499168690E+03  0.00000000000E+00 0.  1.
</event>
<event>
12    1  0.8331241E-002  0.1929892E+03  0.7818608E-02  0.1156067E+00
         21   -1    0    0  503  502  0.00000000000E+00  0.00000000000E+00  0.11632426662E+04  0.11632426662E+04  0.00000000000E+00 0. -1.
         21   -1    0    0  501  503 -0.00000000000E+00 -0.00000000000E+00 -0.47346037735E+02  0.47346037735E+02  0.00000000000E+00 0. -1.
          6    2    1    2  501    0  0.29038840605E+02 -0.78548361790E+02  0.21005117736E+03  0.28441334046E+03  0.17250029483E+03 0.  0.
         24    2    3    3    0    0  0.37755193594E+02 -0.37460988163E+02  0.21781105785E+03  0.24144296897E+03  0.89578290150E+02 0.  0.
         -6    2    1    2    0  502 -0.29038840605E+02  0.78548361790E+02  0.90584545111E+03  0.92617536348E+03  0.17387272131E+03 0.  0.
        -24    2    5    5    0    0 -0.71782534799E+02  0.95524238257E+02  0.74838141887E+03  0.76206498835E+03  0.79941766098E+02 0.  0.
          5    1    3    3  501    0 -0.87163529889E+01 -0.41087373628E+02 -0.77598804866E+01  0.42970371493E+02  0.47000000000E+01 0. -1.
        -13    1    4    4    0    0 -0.51201138954E+01  0.20148727010E+02  0.10971026189E+03  0.11166256458E+03  0.00000000000E+00 0.  1.
         14    1    4    4    0    0  0.42875307489E+02 -0.57609715173E+02  0.10810079596E+03  0.12978040438E+03  0.00000000000E+00 0. -1.
         -5    1    5    5    0  502  0.42743694194E+02 -0.16975876466E+02  0.15746403225E+03  0.16411037513E+03  0.47000000000E+01 0.  1.
         11    1    6    6    0    0  0.93069335638E+01  0.32692614522E+02  0.30916379451E+03  0.31102681217E+03  0.00000000000E+00 0. -1.
        -12    1    6    6    0    0 -0.81089468363E+02  0.62831623735E+02  0.43921762436E+03  0.45103817618E+03  0.00000000000E+00 0.  1.
</event>
<event>
12    1  0.8331241E-002  0.3207179E+03  0.7818608E-02  0.1075955E+00
         21   -1    0    0  501  502  0.00000000000E+00  0.00000000000E+00  0.15538795393E+04  0.15538795393E+04  0.00000000000E+00 0.  1.
         21   -1    0    0  502  503 -0.00000000000E+00 -0.00000000000E+00 -0.79311622959E+02  0.79311622959E+02  0.00000000000E+00 0. -1.
         -6    2    1    2    0  503  0.80200056349E+02 -0.25822411267E+03  0.38599534499E+03  0.49835628231E+03  0.16203344210E+03 0.  0.
        -24    2    3    3    0    0  0.42619405965E+02 -0.57839189886E+02  0.12494845244E+03  0.16709506715E+03  0.84539103646E+02 0.  0.
          6    2    1    2  501    0 -0.80200056349E+02  0.25822411267E+03  0.10885725713E+04  0.11348348799E+04  0.17247672379E+03 0.  0.
         24    2    5    5    0    0 -0.68290339726E+02  0.68710886020E+02  0.33356494441E+03  0.35630054470E+03  0.79370962299E+02 0.  0.
          5    1    5    5  501    0 -0.11909716623E+02  0.18951322665E+03  0.75500762691E+03  0.77853433522E+03  0.47000000000E+01 0. -1.
        -13    1    6    6    0    0 -0.31302864842E+02  0.78620206710E+01  0.21930856586E+03  0.22167076436E+03  0.00000000000E+00 0.  1.
         14    1    6    6    0    0 -0.36987474884E+02  0.60848865349E+02  0.11425637855E+03  0.13462978033E+03  0.00000000000E+00 0. -1.
         -5    1    3    3    0  503  0.37580650384E+02 -0.20038492278E+03  0.26104689255E+03  0.33126121516E+03  0.47000000000E+01 0.  1.
         13    1    4    4    0    0  0.53221080584E+01 -0.54780473805E+02  0.25152749889E+02  0.60513518915E+02  0.00000000000E+00 0. -1.
        -14    1    4    4    0    0  0.37297297906E+02 -0.30587160810E+01  0.99795702553E+02  0.10658154823E+03  0.00000000000E+00 0.  1.
</event>
<event>
12    1  0.8331241E-002  0.1761749E+03  0.7818608E-02  0.1171870E+00
         21   -1    0    0  503  502  0.00000000000E+00  0.00000000000E+00  0.18522672903E+03  0.18522672903E+03  0.00000000000E+00 0.  1.
         21   -1    0    0  501  503 -0.00000000000E+00 -0.00000000000E+00 -0.63539592037E+03  0.63539592037E+03  0.00000000000E+00 0.  1.
          6    2    1    2  501    0 -0.53656545015E+01 -0.28453424488E+02 -0.57739604093E+03  0.60331116418E+03  0.17251024646E+03 0.  0.
         24    2    3    3    0    0  0.19800389190E+02 -0.71009719200E+02 -0.49647358718E+03  0.50836432908E+03  0.80708318547E+02 0.  0.
         -6    2    1    2    0  502  0.53656545015E+01  0.28453424488E+02  0.12722684959E+03  0.21731148521E+03  0.17377923563E+03 0.  0.
        -24    2    5    5    0    0  0.58846862900E+02 -0.60072348996E+01  0.11632740529E+03  0.15259159196E+03  0.79076472931E+02 0.  0.
          5    1    3    3  501    0 -0.25166043692E+02  0.42556294713E+02 -0.80922453750E+02  0.94946835101E+02  0.47000000000E+01 0. -1.
        -11    1    4    4    0    0  0.44794865162E+02 -0.13854217153E+02 -0.20642343110E+03  0.21168172379E+03  0.00000000000E+00 0.  1.
         12    1    4    4    0    0 -0.24994475972E+02 -0.57155502047E+02 -0.29005015608E+03  0.29668260530E+03  0.00000000000E+00 0. -1.
         -5    1    5    5    0  502 -0.53481208399E+02  0.34460659387E+02  0.10899444300E+02  0.64719893257E+02  0.47000000000E+01 0.  1.
         13    1    6    6    0    0  0.35223466288E+02  0.13606833779E+02  0.62024908481E+01  0.38266295817E+02  0.00000000000E+00 0. -1.
        -14    1    6    6    0    0  0.23623396612E+02 -0.19614068679E+02  0.11012491444E+03  0.11432529614E+03  0.00000000000E+00 0.  1.
</event>
<event>
12    1  0.8331241E-002  0.2030715E+03  0.7818608E-02  0.1148105E+00
         21   -1    0    0  503  502  0.00000000000E+00  0.00000000000E+00  0.13477666846E+04  0.13477666846E+04  0.00000000000E+00 0.  1.
         21   -1    0    0  501  503 -0.00000000000E+00 -0.00000000000E+00 -0.49874840178E+02  0.49874840178E+02  0.00000000000E+00 0. -1.
          6    2    1    2  501    0 -0.99258792638E+02  0.37333792933E+02  0.21136419762E+03  0.29310892101E+03  0.17318168359E+03 0.  0.
         24    2    3    3    0    0 -0.10026725909E+03  0.40715761612E+01  0.22297905816E+03  0.25755070038E+03  0.80886351833E+02 0.  0.
         -6    2    1    2    0  502  0.99258792638E+02 -0.37333792933E+02  0.10865276468E+04  0.11045326038E+04  0.16793994612E+03 0.  0.
        -24    2    5    5    0    0  0.12612085594E+03 -0.13620640734E+02  0.99251687401E+03  0.10038151801E+04  0.80393895399E+02 0.  0.
          5    1    3    3  501    0  0.10084664541E+01  0.33262216772E+02 -0.11614860538E+02  0.35558220632E+02  0.47000000000E+01 0. -1.
        -11    1    4    4    0    0 -0.33165513999E+01 -0.20349429711E+02  0.83069273316E+02  0.85589736371E+02  0.00000000000E+00 0.  1.
         12    1    4    4    0    0 -0.96950707692E+02  0.24421005872E+02  0.13990978484E+03  0.17196096401E+03  0.00000000000E+00 0. -1.
         -5    1    5    5    0  502 -0.26862063300E+02 -0.23713152200E+02  0.94010772828E+02  0.10071742371E+03  0.47000000000E+01 0.  1.
         11    1    6    6    0    0  0.63013680560E+02  0.32942465614E+02  0.51886030138E+03  0.52370978826E+03  0.00000000000E+00 0. -1.
        -12    1    6    6    0    0  0.63107175378E+02 -0.46563106347E+02  0.47365657263E+03  0.48010539182E+03  0.00000000000E+00 0.  1.
</event>
<event>
12    1  0.8331241E-002  0.2420988E+03  0.7818608E-02  0.1118546E+00
         21   -1    0    0  501  502  0.00000000000E+00  0.00000000000E+00  0.75443556194E+02  0.75443556194E+02  0.00000000000E+00 0.  1.
         21   -1    0    0  502  503 -0.00000000000E+00 -0.00000000000E+00 -0.90860079232E+03  0.90860079232E+03  0.00000000000E+00 0. -1.
         -6    2    1    2    0  503 -0.10190324711E+03 -0.13482272167E+03 -0.60524166928E+03  0.65154268569E+03  0.17213063352E+03 0.  0.
        -24    2    3    3    0    0 -0.10028854215E+03 -0.11032033598E+03 -0.60275762558E+03  0.62641830213E+03  0.82793513205E+02 0.  0.
          6    2    1    2  501    0  0.10190324711E+03  0.13482272167E+03 -0.22791556684E+03  0.33250166282E+03  0.17335054692E+03 0.  0.
         24    2    5    5    0    0  0.50070840534E+02  0.14983701622E+03 -0.12190132914E+03  0.21345068211E+03  0.75782842043E+02 0.  0.
          5    1    5    5  501    0  0.51832406574E+02 -0.15014294542E+02 -0.10601423770E+03  0.11905098070E+03  0.47000000000E+01 0. -1.
        -11    1    6    6    0    0  0.20258675461E+02  0.20476759029E+01 -0.13363720619E+01  0.20405705043E+02  0.00000000000E+00 0.  1.
         12    1    6    6    0    0  0.29812165073E+02  0.14778934031E+03 -0.12056495708E+03  0.19304497707E+03  0.00000000000E+00 0. -1.
         -5    1    3    3    0  503 -0.16147049555E+01 -0.24502385689E+02 -0.24840437061E+01  0.25124383568E+02  0.47000000000E+01 0.  1.
         13    1    4    4    0    0 -0.46863128049E+01 -0.61295083433E+02 -0.17939202932E+03  0.18963266851E+03  0.00000000000E+00 0. -1.
        -14    1    4    4    0    0 -0.95602229348E+02 -0.49025252551E+02 -0.42336559626E+03  0.43678563362E+03  0.00000000000E+00 0.  1.
</event>
<event>
12    1  0.8331241E-002  0.1878530E+03  0.7818608E-02  0.1160910E+00
         21   -1    0    0  503  502  0.00000000000E+00  0.00000000000E+00  0.13278875289E+03  0.13278875289E+03  0.00000000000E+00 0. -1.
         21   -1    0    0  501  503 -0.00000000000E+00 -0.00000000000E+00 -0.27401235777E+03  0.27401235777E+03  0.00000000000E+00 0. -1.
          6    2    1    2  501    0 -0.12133129124E+02 -0.66884823058E+02 -0.11233146609E+03  0.21887695556E+03  0.17512273132E+03 0.  0.
         24    2    3    3    0    0 -0.81467737436E+01 -0.32523728555E+02 -0.14664419515E+03  0.16992770409E+03  0.79036332172E+02 0.  0.
         -6    2    1    2    0  502  0.12133129124E+02  0.66884823058E+02 -0.28892138784E+02  0.18792415510E+03  0.17280028937E+03 0.  0.
        -24    2    5    5    0    0  0.15516563756E+02  0.57050905641E+02 -0.84495501079E+02  0.13116168986E+03  0.81045231806E+02 0.  0.
          5    1    3    3  501    0 -0.39863553806E+01 -0.34361094502E+02  0.34312729059E+02  0.48949251476E+02  0.47000000000E+01 0. -1.
        -13    1    4    4    0    0 -0.24159769819E+02  0.17879026693E+02 -0.33332736842E+02  0.44882350858E+02  0.00000000000E+00 0.  1.
         14    1    4    4    0    0  0.16012996075E+02 -0.50402755248E+02 -0.11331145831E+03  0.12504535323E+03  0.00000000000E+00 0. -1.
         -5    1    5    5    0  502 -0.33834346322E+01  0.98339174160E+01  0.55603362294E+02  0.56762465240E+02  0.47000000000E+01 0.  1.
         13    1    6    6    0    0 -0.24229883785E+02  0.43847591906E+02 -0.19327889318E+02  0.53696050969E+02  0.00000000000E+00 0. -1.
        -14    1    6    6    0    0  0.39746447542E+02  0.13203313735E+02 -0.65167611761E+02  0.77465638888E+02  0.00000000000E+00 0.  1.
</event>
<event>
12    1  0.8331241E-002  0.1736039E+03  0.7818608E-02  0.1174281E+00
         21   -1    0    0  501  502  0.00000000000E+00  0.00000000000E+00  0.11960990714E+04  0.11960990714E+04  0.00000000000E+00 0.  1.
         21   -1    0    0  502  503 -0.00000000000E+00 -0.00000000000E+00 -0.33442816648E+02  0.33442816648E+02  0.00000000000E+00 0.  1.
         -6    2    1    2    0  503 -0.86419682208E+01 -0.14877158623E+02  0.27389496363E+03  0.32398407039E+03  0.17219527665E+03 0.  0.
        -24    2    3    3    0    0 -0.21317457035E+02 -0.48652932583E+02  0.26938494652E+03  0.28732481266E+03  0.84650792867E+02 0.  0.
          6    2    1    2  501    0  0.86419682208E+01  0.14877158623E+02  0.88876129117E+03  0.90555781770E+03  0.17274928382E+03 0.  0.
         24    2    5    5    0    0 -0.35053058646E+02  0.45588939842E+01  0.81009730045E+03  0.81486142641E+03  0.80572995578E+02 0.  0.
          5    1    5    5  501    0  0.43695026866E+02  0.10318264639E+02  0.78663990716E+02  0.90696391292E+02  0.47000000000E+01 0. -1.
        -13    1    6    6    0    0 -0.21055271896E+02 -0.37729025150E+02  0.36915844245E+03  0.37167830102E+03  0.00000000000E+00 0.  1.
         14    1    6    6    0    0 -0.13997786749E+02  0.42287919134E+02  0.44093885800E+03  0.44318312539E+03  0.00000000000E+00 0. -1.
         -5    1    3    3    0  503  0.12675488815E+02  0.33775773960E+02  0.45100171089E+01  0.36659257734E+02  0.47000000000E+01 0.  1.
         11    1    4    4    0    0  0.27812467359E+02 -0.29379713594E+02  0.67861713198E+02  0.79005778457E+02  0.00000000000E+00 0. -1.
        -12    1    4    4    0    0 -0.49129924394E+02 -0.19273218990E+02  0.20152323332E+03  0.20831903420E+03  0.00000000000E+00 0.  1.
</event>
<event>
12    1  0.8331241E-002  0.2075365E+03  0.7818608E-02  0.1145506E+00
         21   -1    0    0  501  502  0.00000000000E+00  0.00000000000E+00  0.13299716675E+03  0.13299716675E+03  0.00000000000E+00 0. -1.
         21   -1    0    0  502  503 -0.00000000000E+00 -0.00000000000E+00 -0.14801412108E+04  0.14801412108E+04  0.00000000000E+00 0. -1.
         -6    2    1    2    0  503  0.11078434636E+03  0.35778238989E+02 -0.13942830394E+04  0.14096441395E+04  0.17180847611E+03 0.  0.
        -24    2    3    3    0    0  0.64710721959E+01  0.42470254459E+02 -0.40768344001E+03  0.41751163745E+03  0.79149117853E+02 0.  0.
          6    2    1    2  501    0 -0.11078434636E+03 -0.35778238989E+02  0.47138995345E+02  0.20349423799E+03  0.16010798303E+03 0.  0.
         24    2    5    5    0    0 -0.89883672843E+02 -0.23755188569E+02  0.90261418448E+02  0.15386536264E+03  0.82970130356E+02 0.  0.
          5    1    5    5  501    0 -0.20900673521E+02 -0.12023050420E+02 -0.43122423102E+02  0.49628875358E+02  0.47000000000E+01 0. -1.
        -11    1    6    6    0    0  0.76450153353E+01  0.19421429786E+01 -0.92661038830E+01  0.12168765755E+02  0.00000000000E+00 0.  1.
         12    1    6    6    0    0 -0.97528688178E+02 -0.25697331547E+02  0.99527522331E+02  0.14169659688E+03  0.00000000000E+00 0. -1.
         -5    1    3    3    0  503  0.10431327417E+03 -0.66920154705E+01 -0.98659959936E+03  0.99213250208E+03  0.47000000000E+01 0.  1.
         11    1    4    4    0    0 -0.33433431816E+02  0.35033936390E+02 -0.25285815449E+03  0.25745371886E+03  0.00000000000E+00 0. -1.
        -12    1    4    4    0    0  0.39904504012E+02  0.74363180699E+01 -0.15482528552E+03  0.16005791859E+03  0.00000000000E+00 0.  1.
</event>
<event>
12    1  0.8331241E-002  0.1822815E+03  0.7818608E-02  0.1169476E+00
         21   -1    0    0  501  502  0.00000000000E+00  0.00000000000E+00  0.60543918913E+02  0.60543918913E+02  0.00000000000E+00 0.  1.
         21   -1    0    0  502  503 -0.00000000000E+00 -0.00000000000E+00 -0.14364676752E+04  0.14364676752E+04  0.00000000000E+00 0.  1.
         -6    2    1    2    0  503  0.27011797048E+02 -0.53519687406E+02 -0.12803956155E+04  0.12912151954E+04  0.15565909736E+03 0.  0.
        -24    2    3    3    0    0  0.75160408072E+02 -0.36505573189E+02 -0.81931166412E+03  0.82728818711E+03  0.78437221732E+02 0.  0.
          6    2    1    2  501    0 -0.27011797048E+02  0.53519687406E+02 -0.95528140768E+02  0.20579639867E+03  0.17214104074E+03 0.  0.
         24    2    5    5    0    0 -0.61441431018E+02  0.88161897425E+02 -0.66061279986E+02  0.14856119713E+03  0.78477812005E+02 0.  0.
          5    1    5    5  501    0  0.34429633970E+02 -0.34642210019E+02 -0.29466860782E+02  0.57235201534E+02  0.47000000000E+01 0. -1.
        -11    1    6    6    0    0 -0.34411058054E+01  0.72509907767E+02 -0.30409269441E+02  0.78703567908E+02  0.00000000000E+00 0.  1.
         12    1    6    6    0    0 -0.58000325212E+02  0.15651989658E+02 -0.35652010544E+02  0.69857629224E+02  0.00000000000E+00 0. -1.
         -5    1    3    3    0  503 -0.48148611024E+02 -0.17014114216E+02 -0.46108395139E+03  0.46392700832E+03  0.47000000000E+01 0.  1.
         11    1    4    4    0    0  0.73559636015E+02  0.67099849137E+00 -0.43467836085E+03  0.44085910185E+03  0.00000000000E+00 0. -1.
        -12    1    4    4    0    0  0.16007720566E+01 -0.37176571681E+02 -0.38463330327E+03  0.38642908526E+03  0.00000000000E+00 0.  1.
</event>
<event>
12    1  0.8331241E-002  0.1995259E+03  0.7818608E-02  0.1150277E+00
         21   -1    0    0  503  502  0.00000000000E+00  0.00000000000E+00  0.25073088024E+03  0.25073088024E+03  0.00000000000E+00 0. -1.
         21   -1    0    0  501  503 -0.00000000000E+00 -0.00000000000E+00 -0.27297392517E+03  0.27297392517E+03  0.00000000000E+00 0. -1.
          6    2    1    2  501    0  0.90259378409E+02  0.41448820083E+02 -0.18085592490E+03  0.26881534503E+03  0.17230224629E+03 0.  0.
         24    2    3    3    0    0  0.13130984610E+02 -0.36521447982E+02 -0.86816266688E+02  0.12426881567E+03  0.79996471596E+02 0.  0.
         -6    2    1    2    0  502 -0.90259378409E+02 -0.41448820083E+02  0.15861287997E+03  0.25488946038E+03  0.17304863837E+03 0.  0.
        -24    2    5    5    0    0 -0.52373434840E+02  0.44958163465E+02  0.87828430994E+02  0.13684692676E+03  0.79050837657E+02 0.  0.
          5    1    3    3  501    0  0.77128393799E+02  0.77970268065E+02 -0.94039658211E+02  0.14454652936E+03  0.47000000000E+01 0. -1.
        -11    1    4    4    0    0  0.54364023992E+01  0.24770187277E+02 -0.37277206827E+02  0.45085549765E+02  0.00000000000E+00 0.  1.
         12    1    4    4    0    0  0.76945822109E+01 -0.61291635259E+02 -0.49539059861E+02  0.79183265909E+02  0.00000000000E+00 0. -1.
         -5    1    5    5    0  502 -0.37885943570E+02 -0.86406983548E+02  0.70784448973E+02  0.11804253362E+03  0.47000000000E+01 0.  1.
         13    1    6    6    0    0 -0.72862922931E+02  0.36457873494E+02  0.77233174245E+02  0.11226373093E+03  0.00000000000E+00 0. -1.
        -14    1    6    6    0    0  0.20489488092E+02  0.85002899719E+01  0.10595256749E+02  0.24583195835E+02  0.00000000000E+00 0.  1.
</event>
<event>
12    1  0.8331241E-002  0.1992339E+03  0.7818608E-02  0.1151249E+00
         21   -1    0    0  501  502  0.00000000000E+00  0.00000000000E+00  0.66707852712E+02  0.66707852712E+02  0.00000000000E+00 0. -1.
         21   -1    0    0  502  503 -0.00000000000E+00 -0.00000000000E+00 -0.59505718815E+03  0.59505718815E+03  0.00000000000E+00 0.  1.
         -6    2    1    2    0  503  0.68764630579E+02  0.70409227140E+02 -0.30845239932E+03  0.36503486167E+03  0.16858687346E+03 0.  0.
        -24    2    3    3    0    0  0.40880057592E+02  0.55889716632E+02 -0.31509253340E+03  0.33256107259E+03  0.80738608279E+02 0.  0.
          6    2    1    2  501    0 -0.68764630579E+02 -0.70409227140E+02 -0.21989693612E+03  0.29673017919E+03  0.17322847065E+03 0.  0.
         24    2    5    5    0    0  0.42174755215E+00  0.28934646382E+02 -0.71526906650E+02  0.10517936147E+03  0.71478724611E+02 0.  0.
          5    1    5    5  501    0 -0.69186378131E+02 -0.99343873523E+02 -0.14837002947E+03  0.19155081772E+03  0.47000000000E+01 0. -1.
        -13    1    6    6    0    0  0.13313717164E+02  0.43636702590E+02 -0.72434163705E+02  0.85604468045E+02  0.00000000000E+00 0.  1.
         14    1    6    6    0    0 -0.12891969611E+02 -0.14702056208E+02  0.90725705567E+00  0.19574893424E+02  0.00000000000E+00 0. -1.
         -5    1    3    3    0  503  0.27884572987E+02  0.14519510508E+02  0.66401340849E+01  0.32473789072E+02  0.47000000000E+01 0.  1.
         11    1    4    4    0    0 -0.32186492610E+01 -0.81108426661E+01 -0.75657256576E+00  0.87588740068E+01  0.00000000000E+00 0. -1.
        -12    1    4    4    0    0  0.44098706853E+02  0.64000559299E+02 -0.31433596083E+03  0.32380219859E+03  0.00000000000E+00 0.  1.
</event>
<event>
12    1  0.8331241E-002  0.1781774E+03  0.7818608E-02  0.1171127E+00
         21   -1    0    0  503  502  0.00000000000E+00  0.00000000000E+00  0.84827532692E+03  0.84827532692E+03  0.00000000000E+00 0. -1.
         21   -1    0    0  501  503 -0.00000000000E+00 -0.00000000000E+00 -0.63435911834E+02  0.63435911834E+02  0.00000000000E+00 0. -1.
          6    2    1    2  501    0  0.48655822161E+02  0.11610436481E+02  0.89442324784E+02  0.19385032860E+03  0.16454734629E+03 0.  0.
         24    2    3    3    0    0  0.49426099775E+02 -0.33988170534E+02  0.10719549577E+03  0.14468640515E+03  0.76453557436E+02 0.  0.
         -6    2    1    2    0  502 -0.48655822161E+02 -0.11610436481E+02  0.69539709030E+03  0.71786091015E+03  0.17101164247E+03 0.  0.
        -24    2    5    5    0    0  0.13662999318E+02 -0.44121144415E+02  0.53216360807E+03  0.54007496762E+03  0.79683824970E+02 0.  0.
          5    1    3    3  501    0 -0.77027761395E+00  0.45598607015E+02 -0.17753170989E+02  0.49163923455E+02  0.47000000000E+01 0. -1.
        -11    1    4    4    0    0  0.16727216528E+02 -0.39605245133E+02  0.13147976633E+02  0.44958252907E+02  0.00000000000E+00 0.  1.
         12    1    4    4    0    0  0.32698883246E+02  0.56170745996E+01  0.94047519140E+02  0.99728152239E+02  0.00000000000E+00 0. -1.
         -5    1    5    5    0  502 -0.62318821479E+02  0.32510707934E+02  0.16323348223E+03  0.17778594253E+03  0.47000000000E+01 0.  1.
         13    1    6    6    0    0  0.55048901151E+01  0.89061026864E+01  0.35045465203E+03  0.35061101753E+03  0.00000000000E+00 0. -1.
        -14    1    6    6    0    0  0.81581092030E+01 -0.53027247101E+02  0.18170895604E+03  0.18946395009E+03  0.00000000000E+00 0.  1.
</event>
<event>
12    1  0.8331241E-002  0.1951160E+03  0.7818608E-02  0.1154045E+00
         21   -1    0    0  501  502  0.00000000000E+00  0.00000000000E+00  0.11207582319E+03  0.11207582319E+03  0.00000000000E+00 0.  1.
         21   -1    0    0  502  503 -0.00000000000E+00 -0.00000000000E+00 -0.59799761348E+03  0.59799761348E+03  0.00000000000E+00 0. -1.
         -6    2    1    2    0  503  0.89098814466E+02  0.26621436883E+02 -0.47653958807E+03  0.51473197881E+03  0.17091439779E+03 0.  0.
        -24    2    3    3    0    0  0.62220244966E+02 -0.21940928787E+01 -0.12569217641E+03  0.16164730268E+03  0.80343975034E+02 0.  0.
          6    2    1    2  501    0 -0.89098814466E+02 -0.26621436883E+02 -0.93822022200E+01  0.19534145785E+03  0.17153122106E+03 0.  0.
         24    2    5    5    0    0 -0.70162453859E+02 -0.58856994333E+02  0.44084416834E+02  0.12993131896E+03  0.80943166021E+02 0.  0.
          5    1    5    5  501    0 -0.18936360606E+02  0.32235557450E+02 -0.53466619054E+02  0.65410138895E+02  0.47000000000E+01 0. -1.
        -13    1    6    6    0    0 -0.71791092797E+02 -0.90314549120E+01  0.25102465661E+02  0.76587609736E+02  0.00000000000E+00 0.  1.
         14    1    6    6    0    0  0.16286389376E+01 -0.49825539421E+02  0.18981951173E+02  0.53343709224E+02  0.00000000000E+00 0. -1.
         -5    1    3    3    0  503  0.26878569500E+02  0.28815529762E+02 -0.35084741165E+03  0.35308467613E+03  0.47000000000E+01 0.  1.
         13    1    4    4    0    0  0.74555464631E+01 -0.25878189981E+02 -0.85664595440E+02  0.89798044532E+02  0.00000000000E+00 0. -1.
        -14    1    4    4    0    0  0.54764698503E+02  0.23684097102E+02 -0.40027580975E+02  0.71849258147E+02  0.00000000000E+00 0.  1.
</event>
<event>
12    1  0.8331241E-002  0.2262039E+03  0.7818608E-02  0.1130302E+00
         21   -1    0    0  501  502  0.00000000000E+00  0.00000000000E+00  0.47722921503E+02  0.47722921503E+02  0.00000000000E+00 0. -1.
         21   -1    0    0  502  503 -0.00000000000E+00 -0.00000000000E+00 -0.10509283247E+04  0.10509283247E+04  0.00000000000E+00 0. -1.
         -6    2    1    2    0  503  0.13313714638E+03 -0.30521565433E+02 -0.47526985482E+03  0.52635505766E+03  0.18030847491E+03 0.  0.
        -24    2    3    3    0    0  0.16115334124E+03 -0.30383855005E+02 -0.32002727823E+03  0.36853467329E+03  0.80664543423E+02 0.  0.
          6    2    1    2  501    0 -0.13313714638E+03  0.30521565433E+02 -0.52793554833E+03  0.57229618849E+03  0.17363731876E+03 0.  0.
         24    2    5    5    0    0 -0.15470044898E+03  0.58694550420E+02 -0.46395358794E+03  0.49898538194E+03  0.79725782910E+02 0.  0.
          5    1    5    5  501    0  0.21563302600E+02 -0.28172984987E+02 -0.63981960387E+02  0.73310806551E+02  0.47000000000E+01 0. -1.
        -11    1    6    6    0    0 -0.16499353200E+02  0.33696129232E+02 -0.15711492404E+03  0.16153252656E+03  0.00000000000E+00 0.  1.
         12    1    6    6    0    0 -0.13820109578E+03  0.24998421188E+02 -0.30683866390E+03  0.33745285538E+03  0.00000000000E+00 0. -1.
         -5    1    3    3    0  503 -0.28016194860E+02 -0.13771042810E+00 -0.15524257658E+03  0.15782038437E+03  0.47000000000E+01 0.  1.
         11    1    4    4    0    0  0.11005943485E+03 -0.57241320518E+02 -0.20002305242E+03  0.23536964433E+03  0.00000000000E+00 0. -1.
        -12    1    4    4    0    0  0.51093906392E+02  0.26857465513E+02 -0.12000422581E+03  0.13316502896E+03  0.00000000000E+00 0.  1.
</event>
<event>
12    1  0.8331241E-002  0.1939083E+03  0.7818608E-02  0.1156050E+00
         21   -1    0    0  501  502  0.00000000000E+00  0.00000000000E+00  0.14006638946E+03  0.14006638946E+03  0.00000000000E+00 0. -1.
         21   -1    0    0  502  503 -0.00000000000E+00 -0.00000000000E+00 -0.74269686788E+03  0.74269686788E+03  0.00000000000E+00 0. -1.
         -6    2    1    2    0  503 -0.74666389790E+02  0.24113603950E+02  0.52495333899E+02  0.20088853225E+03  0.17732429796E+03 0.  0.
        -24    2    3    3    0    0 -0.10842013029E+03  0.21308867093E+01  0.73891532397E+02  0.15503613683E+03  0.82563792501E+02 0.  0.
          6    2    1    2  501    0  0.74666389790E+02 -0.24113603950E+02 -0.65512581232E+03  0.68187472510E+03  0.17206619393E+03 0.  0.
         24    2    5    5    0    0  0.89696741612E+02 -0.88610660576E+01 -0.26155740123E+03  0.28769616709E+03  0.78947998508E+02 0.  0.
          5    1    5    5  501    0 -0.15030351822E+02 -0.15252537892E+02 -0.39356841109E+03  0.39417855801E+03  0.47000000000E+01 0. -1.
        -11    1    6    6    0    0  0.95334381943E+00  0.11358878481E+02 -0.70504262095E+00  0.11420598491E+02  0.00000000000E+00 0.  1.
         12    1    6    6    0    0  0.88743397793E+02 -0.20219944539E+02 -0.26085235861E+03  0.27627556860E+03  0.00000000000E+00 0. -1.
         -5    1    3    3    0  503  0.33753740505E+02  0.21982717240E+02 -0.21396198498E+02  0.45852395417E+02  0.47000000000E+01 0.  1.
         11    1    4    4    0    0 -0.42472560001E+02  0.11451618924E+02  0.76650284696E+02  0.88376037889E+02  0.00000000000E+00 0. -1.
        -12    1    4    4    0    0 -0.65947570293E+02 -0.93207322150E+01 -0.27587522987E+01  0.66660098941E+02  0.00000000000E+00 0.  1.
</event>
<event>
12    1  0.8331241E-002  0.1750749E+03  0.7818608E-02  0.1174296E+00
         21   -1    0    0  501  502  0.00000000000E+00  0.00000000000E+00  0.27588906662E+03  0.27588906662E+03  0.00000000000E+00 0. -1.
         21   -1    0    0  502  503 -0.00000000000E+00 -0.00000000000E+00 -0.18694245113E+03  0.18694245113E+03  0.00000000000E+00 0. -1.
         -6    2    1    2    0  503  0.19400251522E+01 -0.10873729382E+02 -0.10630053902E+03  0.20481952610E+03  0.17472616286E+03 0.  0.
        -24    2    3    3    0    0  0.53422633000E+02 -0.39774982293E+02 -0.10285485024E+03  0.14549243194E+03  0.78440427078E+02 0.  0.
          6    2    1    2  501    0 -0.19400251522E+01  0.10873729382E+02  0.19524715451E+03  0.25801199165E+03  0.16830548061E+03 0.  0.
         24    2    5    5    0    0  0.53554676432E+00  0.28282140147E+02  0.25258422541E+02  0.87051644730E+02  0.78357097185E+02 0.  0.
          5    1    5    5  501    0 -0.24755719165E+01 -0.17408410765E+02  0.16998873197E+03  0.17096034692E+03  0.47000000000E+01 0. -1.
        -13    1    6    6    0    0 -0.12217850571E+02 -0.18867218815E+02 -0.12128895200E+02  0.25541298267E+02  0.00000000000E+00 0.  1.
         14    1    6    6    0    0  0.12753397335E+02  0.47149358962E+02  0.37387317740E+02  0.61510346462E+02  0.00000000000E+00 0. -1.
         -5    1    3    3    0  503 -0.51482607847E+02  0.28901252911E+02 -0.34456887749E+01  0.59327094162E+02  0.47000000000E+01 0.  1.
         13    1    4    4    0    0 -0.11571988826E+02  0.10057579461E+02 -0.38153594246E+02  0.41118883544E+02  0.00000000000E+00 0. -1.
        -14    1    4    4    0    0  0.64994621825E+02 -0.49832561754E+02 -0.64701255996E+02  0.10437354840E+03  0.00000000000E+00 0.  1.
</event>
<event>
12    1  0.8331241E-002  0.2256015E+03  0.7818608E-02  0.1129805E+00
         21   -1    0    0  501  502  0.00000000000E+00  0.00000000000E+00  0.10921166434E+03  0.10921166434E+03  0.00000000000E+00 0.  1.
         21   -1    0    0  502  503 -0.00000000000E+00 -0.00000000000E+00 -0.95075531204E+03  0.95075531204E+03  0.00000000000E+00 0.  1.
         -6    2    1    2    0  503  0.92295181990E+02 -0.11183963053E+03 -0.79925139349E+03  0.83043560312E+03  0.17260937793E+03 0.  0.
        -24    2    3    3    0    0  0.76882863152E+02 -0.78655236860E+02 -0.77392727300E+03  0.78569027226E+03  0.79045297723E+02 0.  0.
          6    2    1    2  501    0 -0.92295181990E+02  0.11183963053E+03 -0.42292254211E+02  0.22953137326E+03  0.17282798664E+03 0.  0.
         24    2    5    5    0    0 -0.73919718434E+01  0.28931364684E+01 -0.41246096700E+02  0.91324723245E+02  0.81092250533E+02 0.  0.
          5    1    5    5  501    0 -0.84903210147E+02  0.10894649406E+03 -0.10461575102E+01  0.13820665001E+03  0.47000000000E+01 0. -1.
        -13    1    6    6    0    0 -0.68789320842E+01  0.21166376623E+02 -0.60686834197E+02  0.64639206762E+02  0.00000000000E+00 0.  1.
         14    1    6    6    0    0 -0.51303975920E+00 -0.18273240155E+02  0.19440737497E+02  0.26685516483E+02  0.00000000000E+00 0. -1.
         -5    1    3    3    0  503  0.15412318838E+02 -0.33184393670E+02 -0.25324120494E+02  0.44745330863E+02  0.47000000000E+01 0.  1.
         13    1    4    4    0    0  0.35611912618E+02 -0.27889589848E+02 -0.11582920050E+03  0.12434806484E+03  0.00000000000E+00 0. -1.
        -14    1    4    4    0    0  0.41270950534E+02 -0.50765647012E+02 -0.65809807250E+03  0.66134220741E+03  0.00000000000E+00 0.  1.
</event>
<event>
12    1  0.8331241E-002  0.2085303E+03  0.7818608E-02  0.1142832E+00
         21   -1    0    0  503  502  0.00000000000E+00  0.00000000000E+00  0.29030959023E+03  0.29030959023E+03  0.00000000000E+00 0. -1.
         21   -1    0    0  501  503 -0.00000000000E+00 -0.00000000000E+00 -0.26561582925E+03  0.26561582925E+03  0.00000000000E+00 0. -1.
          6    2    1    2  501    0 -0.22192793968E+02  0.11504656590E+03  0.19618618491E+03  0.28631087228E+03  0.17250120001E+03 0.  0.
         24    2    3    3    0    0 -0.17136655404E+02  0.51820867929E+01  0.66946158541E+02  0.11654384744E+03  0.93702514645E+02 0.  0.
         -6    2    1    2    0  502  0.22192793968E+02 -0.11504656590E+03 -0.17149242392E+03  0.26961454720E+03  0.17191311809E+03 0.  0.
        -24    2    5    5    0    0 -0.45696575635E+02 -0.99822453131E+02 -0.92911589956E+02  0.16455371920E+03  0.79954135473E+02 0.  0.
          5    1    3    3  501    0 -0.50561385638E+01  0.10986447911E+03  0.12924002637E+03  0.16976702484E+03  0.47000000000E+01 0. -1.
        -11    1    4    4    0    0  0.43434453790E+01  0.90482374639E+01  0.86596304573E+02  0.87176006359E+02  0.00000000000E+00 0.  1.
         12    1    4    4    0    0 -0.21480100783E+02 -0.38661506710E+01 -0.19650146032E+02  0.29367841081E+02  0.00000000000E+00 0. -1.
         -5    1    5    5    0  502  0.67889369604E+02 -0.15224112769E+02 -0.78580833966E+02  0.10506082801E+03  0.47000000000E+01 0.  1.
         13    1    6    6    0    0 -0.40978375813E+02 -0.10441803259E+03 -0.52927769864E+02  0.12403105110E+03  0.00000000000E+00 0. -1.
        -14    1    6    6    0    0 -0.47181998225E+01  0.45955794626E+01 -0.39983820093E+02  0.40522668093E+02  0.00000000000E+00 0.  1.
</event>
<event>
12    1  0.8331241E-002  0.2296267E+03  0.7818608E-02  0.1127670E+00
         21   -1    0    0  501  502  0.00000000000E+00  0.00000000000E+00  0.77236027562E+03  0.77236027562E+03  0.00000000000E+00 0. -1.
         21   -1    0    0  502  503 -0.00000000000E+00 -0.00000000000E+00 -0.80404313290E+02  0.80404313290E+02  0.00000000000E+00 0. -1.
         -6    2    1    2    0  503 -0.42852658444E+02  0.13865407257E+03  0.17458791623E+03  0.28846031749E+03  0.17795255575E+03 0.  0.
        -24    2    3    3    0    0  0.36359537049E+02  0.11487674690E+03  0.13025647664E+03  0.19450660726E+03  0.79670494214E+02 0.  0.
          6    2    1    2  501    0  0.42852658444E+02 -0.13865407257E+03  0.51736804610E+03  0.56430427141E+03  0.17236099743E+03 0.  0.
         24    2    5    5    0    0  0.78256364883E+02 -0.13653356136E+03  0.33868226341E+03  0.38207195284E+03  0.80671119844E+02 0.  0.
          5    1    5    5  501    0 -0.35403706439E+02 -0.21205112123E+01  0.17868578268E+03  0.18223231857E+03  0.47000000000E+01 0. -1.
        -11    1    6    6    0    0  0.82156565984E+02 -0.80973407277E+02  0.17894547319E+03  0.21290344383E+03  0.00000000000E+00 0.  1.
         12    1    6    6    0    0 -0.39002011012E+01 -0.55560154084E+02  0.15973679023E+03  0.16916850901E+03  0.00000000000E+00 0. -1.
         -5    1    3    3    0  503 -0.79212195493E+02  0.23777325677E+02  0.44331439588E+02  0.93953710236E+02  0.47000000000E+01 0.  1.
         13    1    4    4    0    0  0.10412886326E+02  0.66884893204E+02  0.18545244614E+02  0.70185064211E+02  0.00000000000E+00 0. -1.
        -14    1    4    4    0    0  0.25946650724E+02  0.47991853692E+02  0.11171123203E+03  0.12432154305E+03  0.00000000000E+00 0.  1.
</event>
<event>
12    1  0.8331241E-002  0.1978809E+03  0.7818608E-02  0.1153979E+00
         21   -1    0    0  501  502  0.00000000000E+00  0.00000000000E+00  0.98276041128E+03  0.98276041128E+03  0.00000000000E+00 0.  1.
         21   -1    0    0  502  503 -0.00000000000E+00 -0.00000000000E+00 -0.55638899835E+02  0.55638899835E+02  0.00000000000E+00 0.  1.
         -6    2    1    2    0  503  0.65782980628E+02 -0.29921712190E+02  0.17742240118E+03  0.26577353463E+03  0.18421225222E+03 0.  0.
        -24    2    3    3    0    0  0.33069114681E+02 -0.10944808648E+02  0.20199466625E+03  0.22042812577E+03  0.81076249661E+02 0.  0.
          6    2    1    2  501    0 -0.65782980628E+02  0.29921712190E+02  0.74969911026E+03  0.77262577648E+03  0.17227630469E+03 0.  0.
         24    2    5    5    0    0 -0.22520594444E+02 -0.43667181054E+02  0.50960523414E+03  0.51776479748E+03  0.77258598041E+02 0.  0.
          5    1    5    5  501    0 -0.43262386184E+02  0.73588893245E+02  0.24009387613E+03  0.25486097901E+03  0.47000000000E+01 0. -1.
        -11    1    6    6    0    0 -0.50584458152E+02 -0.23400567648E+02  0.27203863502E+03  0.27768938207E+03  0.00000000000E+00 0.  1.
         12    1    6    6    0    0  0.28063863708E+02 -0.20266613406E+02  0.23756659912E+03  0.24007541540E+03  0.00000000000E+00 0. -1.
         -5    1    3    3    0  503  0.32713865947E+02 -0.18976903543E+02 -0.24572265069E+02  0.45345408851E+02  0.47000000000E+01 0.  1.
         11    1    4    4    0    0  0.32496507509E+02  0.21490186266E+02  0.42447169784E+02  0.57616085677E+02  0.00000000000E+00 0. -1.
        -12    1    4    4    0    0  0.57260717220E+00 -0.32434994914E+02  0.15954749646E+03  0.16281204010E+03  0.00000000000E+00 0.  1.
</event>
<event>
12    1  0.8331241E-002  0.2910790E+03  0.7818608E-02  0.1089873E+00
         21   -1    0    0  503  502  0.00000000000E+00  0.00000000000E+00  0.26470427344E+03  0.26470427344E+03  0.00000000000E+00 0. -1.
         21   -1    0    0  501  503 -0.00000000000E+00 -0.00000000000E+00 -0.58042336387E+03  0.58042336387E+03  0.00000000000E+00 0.  1.
          6    2    1    2  501    0 -0.27136744950E+02  0.23356525401E+03 -0.44115679187E+03  0.52817082065E+03  0.17045811794E+03 0.  0.
         24    2    3    3    0    0 -0.59044947756E+02  0.14145420444E+03 -0.36624535518E+03  0.40514077470E+03  0.80670870359E+02 0.  0.
         -6    2    1    2    0  502  0.27136744950E+02 -0.23356525401E+03  0.12543770143E+03  0.31695681666E+03  0.17157469474E+03 0.  0.
        -24    2    5    5    0    0  0.85659237184E+01 -0.24057733225E+03  0.13720407959E+03  0.29340724559E+03  0.96498831411E+02 0.  0.
          5    1    3    3  501    0  0.31908202805E+02  0.92111049579E+02 -0.74911436683E+02  0.12303004595E+03  0.47000000000E+01 0. -1.
        -13    1    4    4    0    0 -0.29031671071E+01  0.78403133017E+02 -0.10830875100E+03  0.13373954235E+03  0.00000000000E+00 0.  1.
         14    1    4    4    0    0 -0.56141780649E+02  0.63051071419E+02 -0.25793660419E+03  0.27140123235E+03  0.00000000000E+00 0. -1.
         -5    1    5    5    0  502  0.18570821232E+02  0.70120782369E+01 -0.11766378164E+02  0.23549571069E+02  0.47000000000E+01 0.  1.
         11    1    6    6    0    0 -0.28070468882E+02 -0.16850122642E+03  0.58471728617E+02  0.18055347567E+03  0.00000000000E+00 0. -1.
        -12    1    6    6    0    0  0.36636392601E+02 -0.72076105830E+02  0.78732350977E+02  0.11285376992E+03  0.00000000000E+00 0.  1.
</event>
<event>
12    1  0.8331241E-002  0.4091316E+03  0.7818608E-02  0.1040693E+00
         21   -1    0    0  503  502  0.00000000000E+00  0.00000000000E+00  0.33105464517E+03  0.33105464517E+03  0.00000000000E+00 0. -1.
         21   -1    0    0  501  503 -0.00000000000E+00 -0.00000000000E+00 -0.72361752000E+03  0.72361752000E+03  0.00000000000E+00 0. -1.
          6    2    1    2  501    0 -0.32417305012E+03 -0.18044358641E+03 -0.48595048103E+03  0.63501760356E+03  0.17161419672E+03 0.  0.
         24    2    3    3    0    0 -0.33063795811E+03 -0.19091581531E+03 -0.44372473721E+03  0.59078451578E+03  0.79777150832E+02 0.  0.
         -6    2    1    2    0  502  0.32417305012E+03  0.18044358641E+03  0.93387606200E+02  0.41965456160E+03  0.17245478184E+03 0.  0.
        -24    2    5    5    0    0  0.30591615941E+03  0.20431770559E+03  0.75499002333E+02  0.38436462291E+03  0.81887988043E+02 0.  0.
          5    1    3    3  501    0  0.64649079916E+01  0.10472228895E+02 -0.42225743823E+02  0.44233087783E+02  0.47000000000E+01 0. -1.
        -11    1    4    4    0    0 -0.11324804911E+03 -0.46778899010E+02 -0.93634031187E+02  0.15420997962E+03  0.00000000000E+00 0.  1.
         12    1    4    4    0    0 -0.21738990900E+03 -0.14413691630E+03 -0.35009070602E+03  0.43657453615E+03  0.00000000000E+00 0. -1.
         -5    1    5    5    0  502  0.18256890711E+02 -0.23874119174E+02  0.17888603866E+02  0.35289938695E+02  0.47000000000E+01 0.  1.
         11    1    6    6    0    0  0.26446921622E+03  0.13710320224E+03  0.58237748613E+02  0.30353400098E+03  0.00000000000E+00 0. -1.
        -12    1    6    6    0    0  0.41446943193E+02  0.67214503350E+02  0.17261253721E+02  0.80830621924E+02  0.00000000000E+00 0.  1.
</event>
<event>
12    1  0.8331241E-002  0.1728547E+03  0.7818608E-02  0.1175032E+00
         21   -1    0    0  501  502  0.00000000000E+00  0.00000000000E+00  0.12685835617E+03  0.12685835617E+03  0.00000000000E+00 0. -1.
         21   -1    0    0  502  503 -0.00000000000E+00 -0.00000000000E+00 -0.38388654661E+03  0.38388654661E+03  0.00000000000E+00 0. -1.
         -6    2    1    2    0  503  0.82877413126E+01 -0.18033357408E+02 -0.28775225344E+03  0.33567856333E+03  0.17171153101E+03 0.  0.
        -24    2    3    3    0    0  0.22479209042E+02  0.33233780093E+02 -0.75638266352E+02  0.11694550532E+03  0.79657422130E+02 0.  0.
          6    2    1    2  501    0 -0.82877413126E+01  0.18033357408E+02  0.30724063007E+02  0.17506633945E+03  0.17120270596E+03 0.  0.
         24    2    5    5    0    0 -0.71225313633E+01  0.76368564877E+02  0.15087679573E+01  0.10964480164E+03  0.78337845210E+02 0.  0.
          5    1    5    5  501    0 -0.11652099493E+01 -0.58335207469E+02  0.29215295050E+02  0.65421537811E+02  0.47000000000E+01 0. -1.
        -13    1    6    6    0    0 -0.26562079882E+02  0.13824313908E+01 -0.14862509870E+02  0.30468826755E+02  0.00000000000E+00 0.  1.
         14    1    6    6    0    0  0.19439548518E+02  0.74986133486E+02  0.16371277827E+02  0.79175974888E+02  0.00000000000E+00 0. -1.
         -5    1    3    3    0  503 -0.14191467729E+02 -0.51267137501E+02 -0.21211398709E+03  0.21873305800E+03  0.47000000000E+01 0.  1.
         13    1    4    4    0    0  0.14083162566E+02 -0.18263584796E+02 -0.57084952171E+02  0.61567733122E+02  0.00000000000E+00 0. -1.
        -14    1    4    4    0    0  0.83960464758E+01  0.51497364889E+02 -0.18553314181E+02  0.55377772202E+02  0.00000000000E+00 0.  1.
</event>
<event>
12    1  0.8331241E-002  0.2755641E+03  0.7818608E-02  0.1098187E+00
         21   -1    0    0  501  502  0.00000000000E+00  0.00000000000E+00  0.27434245756E+03  0.27434245756E+03  0.00000000000E+00 0. -1.
         21   -1    0    0  502  503 -0.00000000000E+00 -0.00000000000E+00 -0.38967556497E+03  0.38967556497E+03  0.00000000000E+00 0.  1.
         -6    2    1    2    0  503  0.20130130566E+03 -0.70462681175E+02  0.12128835266E+03  0.30107551305E+03  0.17449468465E+03 0.  0.
        -24    2    3    3    0    0  0.64738252936E+02  0.28352211232E+02  0.59011303426E+02  0.12131352822E+03  0.78992081388E+02 0.  0.
          6    2    1    2  501    0 -0.20130130566E+03  0.70462681175E+02 -0.23662146006E+03  0.36294250948E+03  0.17392626233E+03 0.  0.
         24    2    5    5    0    0 -0.17011264221E+03  0.33836038607E+01 -0.21677803276E+03  0.28620798695E+03  0.77282187410E+02 0.  0.
          5    1    5    5  501    0 -0.31188663448E+02  0.67079077314E+02 -0.19843427300E+02  0.76734522530E+02  0.47000000000E+01 0. -1.
        -11    1    6    6    0    0 -0.68975311347E+02 -0.26813410989E+02 -0.51712791744E+02  0.90281589564E+02  0.00000000000E+00 0.  1.
         12    1    6    6    0    0 -0.10113733086E+03  0.30197014850E+02 -0.16506524102E+03  0.19592639738E+03  0.00000000000E+00 0. -1.
         -5    1    3    3    0  503  0.13656305272E+03 -0.98814892406E+02  0.62277049234E+02  0.17976198483E+03  0.47000000000E+01 0.  1.
         13    1    4    4    0    0  0.77579145189E+02  0.35392676272E+02  0.63134706584E+02  0.10609974777E+03  0.00000000000E+00 0. -1.
        -14    1    4    4    0    0 -0.12840892254E+02 -0.70404650404E+01 -0.41234031585E+01  0.15213780446E+02  0.00000000000E+00 0.  1.
</event>
<event>
12    1  0.8331241E-002  0.2445693E+03  0.7818608E-02  0.1116894E+00
         21   -1    0    0  503  502  0.00000000000E+00  0.00000000000E+00  0.63389084414E+03  0.63389084414E+03  0.00000000000E+00 0.  1.
         21   -1    0    0  501  503 -0.00000000000E+00 -0.00000000000E+00 -0.10531794245E+03  0.10531794245E+03  0.00000000000E+00 0.  1.
          6    2    1    2  501    0  0.14880981452E+03 -0.89265813101E+02  0.14400513867E+03  0.28381619445E+03  0.17234095851E+03 0.  0.
         24    2    3    3    0    0  0.88031288433E+02 -0.82492566707E+02  0.18078182775E+02  0.14374623221E+03  0.76037012547E+02 0.  0.
         -6    2    1    2    0  502 -0.14880981452E+03  0.89265813101E+02  0.38456776301E+03  0.45539259214E+03  0.17139808150E+03 0.  0.
        -24    2    5    5    0    0 -0.92186982029E+02 -0.37809383785E+01  0.27514878301E+03  0.30093079652E+03  0.79622586961E+02 0.  0.
          5    1    3    3  501    0  0.60778526092E+02 -0.67732463933E+01  0.12592695590E+03  0.14006996224E+03  0.47000000000E+01 0. -1.
        -11    1    4    4    0    0  0.64441675179E+02 -0.17888226015E+02 -0.13237681023E+02  0.68175907245E+02  0.00000000000E+00 0.  1.
         12    1    4    4    0    0  0.23589613253E+02 -0.64604340693E+02  0.31315863799E+02  0.75570324965E+02  0.00000000000E+00 0. -1.
         -5    1    5    5    0  502 -0.56622832496E+02  0.93046751479E+02  0.10941898000E+03  0.15446179562E+03  0.47000000000E+01 0.  1.
         11    1    6    6    0    0 -0.41187684322E+02 -0.15441308163E+02  0.38148454816E+02  0.58225114362E+02  0.00000000000E+00 0. -1.
        -12    1    6    6    0    0 -0.50999297707E+02  0.11660369785E+02  0.23700032819E+03  0.24270568216E+03  0.00000000000E+00 0.  1.
</event>
<event>
12    1  0.8331241E-002  0.1871019E+03  0.7818608E-02  0.1161790E+00
         21   -1    0    0  501  502  0.00000000000E+00  0.00000000000E+00  0.55800316378E+02  0.55800316378E+02  0.00000000000E+00 0.  1.
         21   -1    0    0  502  503 -0.00000000000E+00 -0.00000000000E+00 -0.83847593124E+03  0.83847593124E+03  0.00000000000E+00 0.  1.
         -6    2    1    2    0  503 -0.62428207324E+02 -0.33417768606E+02 -0.61860006333E+03  0.64542305173E+03  0.16997308323E+03 0.  0.
        -24    2    3    3    0    0 -0.64743308448E+02 -0.84017241407E+02 -0.41490702022E+03  0.43547398135E+03  0.78988354608E+02 0.  0.
          6    2    1    2  501    0  0.62428207324E+02  0.33417768606E+02 -0.16407555154E+03  0.24885319589E+03  0.17318515573E+03 0.  0.
         24    2    5    5    0    0  0.59713802681E+01 -0.19372270142E+02 -0.14765134384E+03  0.16969508759E+03  0.81145309058E+02 0.  0.
          5    1    5    5  501    0  0.56456827056E+02  0.52790038747E+02 -0.16424207701E+02  0.79158108307E+02  0.47000000000E+01 0. -1.
        -11    1    6    6    0    0 -0.13247100657E+02 -0.47444025779E+02 -0.79483810674E+02  0.93509878715E+02  0.00000000000E+00 0.  1.
         12    1    6    6    0    0  0.19218480925E+02  0.28071755638E+02 -0.68167533162E+02  0.76185208873E+02  0.00000000000E+00 0. -1.
         -5    1    3    3    0  503  0.23151011238E+01  0.50599472801E+02 -0.20369304311E+03  0.20994907038E+03  0.47000000000E+01 0.  1.
         13    1    4    4    0    0 -0.22544355283E+02  0.63575494611E+01 -0.31192944718E+02  0.39008539968E+02  0.00000000000E+00 0. -1.
        -14    1    4    4    0    0 -0.42198953165E+02 -0.90374790868E+02 -0.38371407550E+03  0.39646544138E+03  0.00000000000E+00 0.  1.
</event>
<event>
12    1  0.8331241E-002  0.2724519E+03  0.7818608E-02  0.1100011E+00
         21   -1    0    0  501  502  0.00000000000E+00  0.00000000000E+00  0.56474617375E+03  0.56474617375E+03  0.00000000000E+00 0.  1.
         21   -1    0    0  502  503 -0.00000000000E+00 -0.00000000000E+00 -0.21208975176E+03  0.21208975176E+03  0.00000000000E+00 0. -1.
         -6    2    1    2    0  503 -0.18325296058E+03  0.10434814624E+03 -0.63650269587E+02  0.27978811274E+03  0.17251042875E+03 0.  0.
        -24    2    3    3    0    0 -0.19920913840E+03  0.80941252566E+02 -0.84046333713E+02  0.24456636217E+03  0.80704102155E+02 0.  0.
          6    2    1    2  501    0  0.18325296058E+03 -0.10434814624E+03  0.41630669158E+03  0.49704781276E+03  0.17109963042E+03 0.  0.
         24    2    5    5    0    0  0.69660385559E+02 -0.11468980552E+03  0.26948450226E+03  0.31106644731E+03  0.78320603158E+02 0.  0.
          5    1    5    5  501    0  0.11359257503E+03  0.10341659276E+02  0.14682218932E+03  0.18598136545E+03  0.47000000000E+01 0. -1.
        -13    1    6    6    0    0  0.76690671960E+02 -0.80723140972E+02  0.24342469882E+03  0.26768128184E+03  0.00000000000E+00 0.  1.
         14    1    6    6    0    0 -0.70302864017E+01 -0.33966664548E+02  0.26059803441E+02  0.43385165469E+02  0.00000000000E+00 0. -1.
         -5    1    3    3    0  503  0.15956177812E+02  0.23406893678E+02  0.20396064126E+02  0.35221750579E+02  0.47000000000E+01 0.  1.
         11    1    4    4    0    0 -0.11284983958E+03  0.81704652308E+02 -0.29472505015E+02  0.14240563561E+03  0.00000000000E+00 0. -1.
        -12    1    4    4    0    0 -0.86359298821E+02 -0.76339974180E+00 -0.54573828699E+02  0.10216072656E+03  0.00000000000E+00 0.  1.
</event>
<event>
12    1  0.8331241E-002  0.1949875E+03  0.7818608E-02  0.1154190E+00
         21   -1    0    0  503  502  0.00000000000E+00  0.00000000000E+00  0.24466285769E+03  0.24466285769E+03  0.00000000000E+00 0. -1.
         21   -1    0    0  501  503 -0.00000000000E+00 -0.00000000000E+00 -0.17250023959E+03  0.17250023959E+03  0.00000000000E+00 0. -1.
          6    2    1    2  501    0  0.71527888002E+02  0.55844563133E+02 -0.30587489414E+02  0.19737207060E+03  0.17258414107E+03 0.  0.
         24    2    3    3    0    0  0.15495284132E+02 -0.11034034467E+02 -0.63120009202E+02  0.10413659260E+03  0.80612905979E+02 0.  0.
         -6    2    1    2    0  502 -0.71527888002E+02 -0.55844563133E+02  0.10275010751E+03  0.21979102669E+03  0.17180121310E+03 0.  0.
        -24    2    5    5    0    0 -0.54383535398E+02 -0.78457865573E+02  0.11422247970E+02  0.12404052694E+03  0.78373330806E+02 0.  0.
          5    1    3    3  501    0  0.56032603870E+02  0.66878597600E+02  0.32532519788E+02  0.93235477996E+02  0.47000000000E+01 0. -1.
        -13    1    4    4    0    0  0.68738685853E+01  0.33178900989E+02 -0.11866143833E+02  0.35901182566E+02  0.00000000000E+00 0.  1.
         14    1    4    4    0    0  0.86214155463E+01 -0.44212935456E+02 -0.51253865369E+02  0.68235410037E+02  0.00000000000E+00 0. -1.
         -5    1    5    5    0  502 -0.17144352603E+02  0.22613302440E+02  0.91327859542E+02  0.95750499748E+02  0.47000000000E+01 0.  1.
         13    1    6    6    0    0 -0.71016233957E+01 -0.30371631916E+02 -0.31317156253E+02  0.44199924840E+02  0.00000000000E+00 0. -1.
        -14    1    6    6    0    0 -0.47281912002E+02 -0.48086233657E+02  0.42739404223E+02  0.79840602097E+02  0.00000000000E+00 0.  1.
</event>
<event>
12    1  0.8331241E-002  0.1981606E+03  0.7818608E-02  0.1151371E+00
         21   -1    0    0  503  502  0.00000000000E+00  0.00000000000E+00  0.38265527451E+03  0.38265527451E+03  0.00000000000E+00 0. -1.
         21   -1    0    0  501  503 -0.00000000000E+00 -0.00000000000E+00 -0.10332536642E+03  0.10332536642E+03  0.00000000000E+00 0. -1.
          6    2    1    2  501    0 -0.94840104537E+02 -0.25029575792E+02  0.11737727709E+03  0.23031511436E+03  0.17218159493E+03 0.  0.
         24    2    3    3    0    0  0.89724017127E+01 -0.19424066773E+02  0.12535967075E+02  0.82591560138E+02  0.78780816022E+02 0.  0.
         -6    2    1    2    0  502  0.94840104537E+02  0.25029575792E+02  0.16195263100E+03  0.25566552657E+03  0.17179953928E+03 0.  0.
        -24    2    5    5    0    0  0.10234789166E+03  0.16879416308E+02  0.18678611594E+03  0.22806871622E+03  0.79788975344E+02 0.  0.
          5    1    3    3  501    0 -0.10381250625E+03 -0.56055090193E+01  0.10484131001E+03  0.14772355422E+03  0.47000000000E+01 0. -1.
        -11    1    4    4    0    0  0.17842622384E+02  0.60911701681E+01  0.39906279645E+02  0.44135843514E+02  0.00000000000E+00 0.  1.
         12    1    4    4    0    0 -0.88702206710E+01 -0.25515236941E+02 -0.27370312570E+02  0.38455716624E+02  0.00000000000E+00 0. -1.
         -5    1    5    5    0  502 -0.75077871251E+01  0.81501594844E+01 -0.24833484945E+02  0.27596810353E+02  0.47000000000E+01 0.  1.
         13    1    6    6    0    0  0.10321987891E+03  0.32640850196E+02  0.13022819083E+03  0.16934919602E+03  0.00000000000E+00 0. -1.
        -14    1    6    6    0    0 -0.87198725089E+00 -0.15761433888E+02  0.56557925111E+02  0.58719520202E+02  0.00000000000E+00 0.  1.
</event>
<event>
12    1  0.8331241E-002  0.2960857E+03  0.7818608E-02  0.1087985E+00
         21   -1    0    0  501  502  0.00000000000E+00  0.00000000000E+00  0.26400508851E+04  0.26400508851E+04  0.00000000000E+00 0.  1.
         21   -1    0    0  502  503 -0.00000000000E+00 -0.00000000000E+00 -0.57217789309E+02  0.57217789309E+02  0.00000000000E+00 0. -1.
         -6    2    1    2    0  503 -0.73792938838E+02  0.22273668364E+03  0.39816552821E+03  0.49262831467E+03  0.17055744048E+03 0.  0.
        -24    2    3    3    0    0 -0.37599084447E+02  0.18144282954E+03  0.18713496146E+03  0.27452015897E+03  0.77502466647E+02 0.  0.
          6    2    1    2  501    0  0.73792938838E+02 -0.22273668364E+03  0.21846675676E+04  0.22046403597E+04  0.18058157955E+03 0.  0.
         24    2    5    5    0    0 -0.16757083641E+02 -0.92318610907E+02  0.13124522282E+04  0.13180796632E+04  0.77457224618E+02 0.  0.
          5    1    5    5  501    0  0.90550022480E+02 -0.13041807273E+03  0.87221533939E+03  0.88656069647E+03  0.47000000000E+01 0. -1.
        -13    1    6    6    0    0  0.34286224911E+01 -0.30956182426E+02  0.90524039078E+03  0.90577602407E+03  0.00000000000E+00 0.  1.
         14    1    6    6    0    0 -0.20185706132E+02 -0.61362428481E+02  0.40721183740E+03  0.41230363918E+03  0.00000000000E+00 0. -1.
         -5    1    3    3    0  503 -0.36193854392E+02  0.41293854095E+02  0.21103056675E+03  0.21810815571E+03  0.47000000000E+01 0.  1.
         11    1    4    4    0    0  0.14406239996E+02  0.10651930368E+03  0.81062151090E+02  0.13462902416E+03  0.00000000000E+00 0. -1.
        -12    1    4    4    0    0 -0.52005324442E+02  0.74923525861E+02  0.10607281037E+03  0.13989113481E+03  0.00000000000E+00 0.  1.
</event>
<event>
12    1  0.8331241E-002  0.2704105E+03  0.7818608E-02  0.1101539E+00
         21   -1    0    0  503  502  0.00000000000E+00  0.00000000000E+00  0.10404589301E+04  0.10404589301E+04  0.00000000000E+00 0.  1.
         21   -1    0    0  501  503 -0.00000000000E+00 -0.00000000000E+00 -0.13609367973E+03  0.13609367973E+03  0.00000000000E+00 0. -1.
          6    2    1    2  501    0 -0.56128521124E+02 -0.19641900990E+03  0.38857585300E+02  0.26978617919E+03  0.17188319352E+03 0.  0.
         24    2    3    3    0    0 -0.10184927792E+03 -0.15887226949E+03  0.46419506116E+02  0.20995794202E+03  0.79460011591E+02 0.  0.
         -6    2    1    2    0  502  0.56128521124E+02  0.19641900990E+03  0.86550766507E+03  0.90676643063E+03  0.17717506343E+03 0.  0.
        -24    2    5    5    0    0 -0.10222908729E+02  0.26063237141E+02  0.26959850922E+03  0.28342590285E+03  0.82843744724E+02 0.  0.
          5    1    3    3  501    0  0.45720756793E+02 -0.37546740407E+02 -0.75619208158E+01  0.59828237174E+02  0.47000000000E+01 0. -1.
        -11    1    4    4    0    0  0.13071188567E+02 -0.95339120254E+01  0.15548249274E+01  0.16253274427E+02  0.00000000000E+00 0.  1.
         12    1    4    4    0    0 -0.11492046648E+03 -0.14933835747E+03  0.44864681189E+02  0.19370466759E+03  0.00000000000E+00 0. -1.
         -5    1    5    5    0  502  0.66351429853E+02  0.17035577276E+03  0.59590915584E+03  0.62334052778E+03  0.47000000000E+01 0.  1.
         11    1    6    6    0    0  0.27328350659E+02  0.20331042237E+02  0.49583436865E+02  0.60155691664E+02  0.00000000000E+00 0. -1.
        -12    1    6    6    0    0 -0.37551259389E+02  0.57321949044E+01  0.22001507236E+03  0.22327021119E+03  0.00000000000E+00 0.  1.
</event>
<event>
12    1  0.8331241E-002  0.2913659E+03  0.7818608E-02  0.1089786E+00
         21   -1    0    0  503  502  0.00000000000E+00  0.00000000000E+00  0.31369203139E+03  0.31369203139E+03  0.00000000000E+00 0. -1.
         21   -1    0    0  501  503 -0.00000000000E+00 -0.00000000000E+00 -0.29651586149E+03  0.29651586149E+03  0.00000000000E+00 0.  1.
          6    2    1    2  501    0  0.15222602837E+03  0.17759973947E+03 -0.83364118629E+02  0.30305721806E+03  0.17372296904E+03 0.  0.
         24    2    3    3    0    0  0.58228851325E+02  0.14241303347E+03 -0.10120500360E+03  0.20100840255E+03  0.80559629554E+02 0.  0.
         -6    2    1    2    0  502 -0.15222602837E+03 -0.17759973947E+03  0.10054028853E+03  0.30715067482E+03  0.17181023326E+03 0.  0.
        -24    2    5    5    0    0 -0.32014500150E+02 -0.20094293992E+02  0.20339184403E+02  0.93344491618E+02  0.82890305961E+02 0.  0.
          5    1    3    3  501    0  0.93997177041E+02  0.35186706007E+02  0.17840884968E+02  0.10204881551E+03  0.47000000000E+01 0. -1.
        -11    1    4    4    0    0  0.68616004696E+02  0.10511762603E+03 -0.46236713147E+02  0.13377482964E+03  0.00000000000E+00 0.  1.
         12    1    4    4    0    0 -0.10387153371E+02  0.37295407440E+02 -0.54968290450E+02  0.67233572910E+02  0.00000000000E+00 0. -1.
         -5    1    5    5    0  502 -0.12021152822E+03 -0.15750544548E+03  0.80201104124E+02  0.21380618320E+03  0.47000000000E+01 0.  1.
         13    1    6    6    0    0 -0.37737046442E+02 -0.10849627274E+02  0.48941113558E+02  0.62745770236E+02  0.00000000000E+00 0. -1.
        -14    1    6    6    0    0  0.57225462923E+01 -0.92446667183E+01 -0.28601929156E+02  0.30598721382E+02  0.00000000000E+00 0.  1.
</event>
<event>
12    1  0.8331241E-002  0.1815642E+03  0.7818608E-02  0.1166535E+00
         21   -1    0    0  503  502  0.00000000000E+00  0.00000000000E+00  0.13643955489E+03  0.13643955489E+03  0.00000000000E+00 0.  1.
         21   -1    0    0  501  503 -0.00000000000E+00 -0.00000000000E+00 -0.29234609009E+03  0.29234609009E+03  0.00000000000E+00 0. -1.
          6    2    1    2  501    0  0.61001496343E+00 -0.57394189553E+02 -0.16858952042E+03  0.24776598420E+03  0.17225298667E+03 0.  0.
         24    2    3    3    0    0  0.46612775475E+02 -0.98916159968E+01 -0.15326791001E+03  0.17972489210E+03  0.80866493033E+02 0.  0.
         -6    2    1    2    0  502 -0.61001496343E+00  0.57394189553E+02  0.12682985216E+02  0.18101966078E+03  0.17120979634E+03 0.  0.
        -24    2    5    5    0    0  0.56619440119E+02  0.54800067096E+02 -0.37121500239E+02  0.10496365003E+03  0.58570928743E+02 0.  0.
          5    1    3    3  501    0 -0.46002760511E+02 -0.47502573556E+02 -0.15321610410E+02  0.68041092104E+02  0.47000000000E+01 0. -1.
        -11    1    4    4    0    0  0.10434764810E+02  0.29214633513E+02 -0.21922456559E+02  0.37986487460E+02  0.00000000000E+00 0.  1.
         12    1    4    4    0    0  0.36178010665E+02 -0.39106249510E+02 -0.13134545345E+03  0.14173840464E+03  0.00000000000E+00 0. -1.
         -5    1    5    5    0  502 -0.57229455082E+02  0.25941224567E+01  0.49804485455E+02  0.76056010754E+02  0.47000000000E+01 0.  1.
         11    1    6    6    0    0  0.31055108347E+02  0.30824919621E+02  0.11297690272E+02  0.45191074667E+02  0.00000000000E+00 0. -1.
        -12    1    6    6    0    0  0.25564331772E+02  0.23975147476E+02 -0.48419190511E+02  0.59772575360E+02  0.00000000000E+00 0.  1.
</event>
<event>
12    1  0.8331241E-002  0.2265039E+03  0.7818608E-02  0.1129979E+00
         21   -1    0    0  501  502  0.00000000000E+00  0.00000000000E+00  0.19829464941E+03  0.19829464941E+03  0.00000000000E+00 0. -1.
         21   -1    0    0  502  503 -0.00000000000E+00 -0.00000000000E+00 -0.71553342203E+03  0.71553342203E+03  0.00000000000E+00 0.  1.
         -6    2    1    2    0  503  0.12546278803E+03  0.76743924942E+02 -0.62485979128E+03  0.66305661636E+03  0.16602342168E+03 0.  0.
        -24    2    3    3    0    0  0.10786178784E+03  0.31494629905E+01 -0.49102506274E+03  0.50923930719E+03  0.81086221730E+02 0.  0.
          6    2    1    2  501    0 -0.12546278803E+03 -0.76743924942E+02  0.10762101866E+03  0.25077145509E+03  0.17225997165E+03 0.  0.
         24    2    5    5    0    0 -0.42758299909E+01  0.33083437590E+01  0.28666139169E+02  0.85391264261E+02  0.80253925864E+02 0.  0.
          5    1    5    5  501    0 -0.12118695804E+03 -0.80052268701E+02  0.78954879491E+02  0.16538019083E+03  0.47000000000E+01 0. -1.
        -13    1    6    6    0    0 -0.38390507378E+02 -0.64680446945E+00 -0.32162091343E+01  0.38530421928E+02  0.00000000000E+00 0.  1.
         14    1    6    6    0    0  0.34114677387E+02  0.39551482285E+01  0.31882348303E+02  0.46860842332E+02  0.00000000000E+00 0. -1.
         -5    1    3    3    0  503  0.17601000191E+02  0.73594461952E+02 -0.13383472854E+03  0.15381730917E+03  0.47000000000E+01 0.  1.
         13    1    4    4    0    0 -0.62202884035E+01 -0.17468719582E+02 -0.84266347086E+02  0.86282474482E+02  0.00000000000E+00 0. -1.
        -14    1    4    4    0    0  0.11408207624E+03  0.20618182572E+02 -0.40675871566E+03  0.42295683271E+03  0.00000000000E+00 0.  1.
</event>
<event>
12    1  0.8331241E-002  0.2058917E+03  0.7818608E-02  0.1145244E+00
         21   -1    0    0  503  502  0.00000000000E+00  0.00000000000E+00  0.12463888012E+04  0.12463888012E+04  0.00000000000E+00 0. -1.
         21   -1    0    0  501  503 -0.00000000000E+00 -0.00000000000E+00 -0.20825195974E+03  0.20825195974E+03  0.00000000000E+00 0.  1.
          6    2    1    2  501    0 -0.16515452349E+02 -0.11417674873E+03 -0.14718761141E+03  0.25156741964E+03  0.16826432645E+03 0.  0.
         24    2    3    3    0    0  0.36322732638E+02 -0.95216116069E+01 -0.66694042497E+02  0.10927941539E+03  0.77999316207E+02 0.  0.
         -6    2    1    2    0  502  0.16515452349E+02  0.11417674873E+03  0.11853244529E+04  0.12030733413E+04  0.17053538010E+03 0.  0.
        -24    2    5    5    0    0  0.69996049257E+01  0.13570489120E+03  0.71722456775E+03  0.73435849758E+03  0.80040679837E+02 0.  0.
          5    1    3    3  501    0 -0.52838184987E+02 -0.10465513712E+03 -0.80493568911E+02  0.14228800426E+03  0.47000000000E+01 0. -1.
        -13    1    4    4    0    0 -0.21882490586E+02 -0.17118580469E+02 -0.19181925814E+02  0.33761449457E+02  0.00000000000E+00 0.  1.
         14    1    4    4    0    0  0.58205223224E+02  0.75969688623E+01 -0.47512116682E+02  0.75517965929E+02  0.00000000000E+00 0. -1.
         -5    1    5    5    0  502  0.95158474233E+01 -0.21528142471E+02  0.46809988515E+03  0.46871484375E+03  0.47000000000E+01 0.  1.
         11    1    6    6    0    0  0.50577804138E+01  0.12346972723E+03  0.44463070628E+03  0.46148328209E+03  0.00000000000E+00 0. -1.
        -12    1    6    6    0    0  0.19418245119E+01  0.12235163976E+02  0.27259386147E+03  0.27287521549E+03  0.00000000000E+00 0.  1.
</event>
<event>
12    1  0.8331241E-002  0.2031537E+03  0.7818608E-02  0.1147478E+00
         21   -1    0    0  501  502  0.00000000000E+00  0.00000000000E+00  0.10910219483E+04  0.10910219483E+04  0.00000000000E+00 0.  1.
         21   -1    0    0  502  503 -0.00000000000E+00 -0.00000000000E+00 -0.67425017448E+02  0.67425017448E+02  0.00000000000E+00 0.  1.
         -6    2    1    2    0  503  0.63100004245E+02  0.87333624667E+02  0.12714803579E+03  0.23966235596E+03  0.17222848001E+03 0.  0.
        -24    2    3    3    0    0  0.74068034948E+01  0.24197024080E+02  0.13066046050E+03  0.15526810218E+03  0.79972938575E+02 0.  0.
          6    2    1    2  501    0 -0.63100004245E+02 -0.87333624667E+02  0.89644889507E+03  0.91878460980E+03  0.17010515921E+03 0.  0.
         24    2    5    5    0    0 -0.58080168251E+01 -0.49527110243E+02  0.21790198990E+03  0.23675843957E+03  0.78016753310E+02 0.  0.
          5    1    5    5  501    0 -0.57291987420E+02 -0.37806514423E+02  0.67854690517E+03  0.68202617022E+03  0.47000000000E+01 0. -1.
        -13    1    6    6    0    0  0.29839978704E+02 -0.40335600589E+02  0.16385536017E+03  0.17136500244E+03  0.00000000000E+00 0.  1.
         14    1    6    6    0    0 -0.35647995529E+02 -0.91915096540E+01  0.54046629734E+02  0.65393437137E+02  0.00000000000E+00 0. -1.
         -5    1    3    3    0  503  0.55693200751E+02  0.63136600587E+02 -0.35124247129E+01  0.84394253779E+02  0.47000000000E+01 0.  1.
         13    1    4    4    0    0 -0.30972401617E+02 -0.18677400303E+01  0.24916357863E+02  0.39794509721E+02  0.00000000000E+00 0. -1.
        -14    1    4    4    0    0  0.38379205112E+02  0.26064764110E+02  0.10574410264E+03  0.11547359246E+03  0.00000000000E+00 0.  1.
</event>
<event>
12    1  0.8331241E-002  0.1842067E+03  0.7818608E-02  0.1163952E+00
         21   -1    0    0  503  502  0.00000000000E+00  0.00000000000E+00  0.19843665128E+03  0.19843665128E+03  0.00000000000E+00 0.  1.
         21   -1    0    0  501  503 -0.00000000000E+00 -0.00000000000E+00 -0.27525233786E+03  0.27525233786E+03  0.00000000000E+00 0.  1.
          6    2    1    2  501    0  0.23282628005E+01  0.67173977188E+02 -0.18456568016E+03  0.26028287014E+03  0.17077739363E+03 0.  0.
         24    2    3    3    0    0 -0.85325107665E+01  0.64003081756E+02 -0.20838679476E+03  0.23349581205E+03  0.83222832196E+02 0.  0.
         -6    2    1    2    0  502 -0.23282628005E+01 -0.67173977188E+02  0.10774999358E+03  0.21340611901E+03  0.17150611212E+03 0.  0.
        -24    2    5    5    0    0  0.61850393647E+02 -0.36105464748E+02  0.86857664081E+02  0.13895659355E+03  0.81459224784E+02 0.  0.
          5    1    3    3  501    0  0.10860773567E+02  0.31708954315E+01  0.23821114601E+02  0.26787058091E+02  0.47000000000E+01 0. -1.
        -13    1    4    4    0    0 -0.32301362975E+02  0.52273776250E+02 -0.72452515925E+02  0.95001541026E+02  0.00000000000E+00 0.  1.
         14    1    4    4    0    0  0.23768852209E+02  0.11729305506E+02 -0.13593427884E+03  0.13849427102E+03  0.00000000000E+00 0. -1.
         -5    1    5    5    0  502 -0.64178656447E+02 -0.31068512440E+02  0.20892329502E+02  0.74449525456E+02  0.47000000000E+01 0.  1.
         11    1    6    6    0    0 -0.37982550396E+01  0.15512047838E+01 -0.13015763959E+02  0.13647090865E+02  0.00000000000E+00 0. -1.
        -12    1    6    6    0    0  0.65648648687E+02 -0.37656669532E+02  0.99873428040E+02  0.12530950268E+03  0.00000000000E+00 0.  1.
</event>
<event>
12    1  0.8331241E-002  0.1748418E+03  0.7818608E-02  0.1172999E+00
         21   -1    0    0  501  502  0.00000000000E+00  0.00000000000E+00  0.80747947396E+03  0.80747947396E+03  0.00000000000E+00 0. -1.
         21   -1    0    0  502  503 -0.00000000000E+00 -0.00000000000E+00 -0.64436024749E+02  0.64436024749E+02  0.00000000000E+00 0. -1.
         -6    2    1    2    0  503 -0.22349986255E+02  0.21082300382E+02  0.90777371241E+02  0.19662246099E+03  0.17168539764E+03 0.  0.
        -24    2    3    3    0    0 -0.40898575113E+02  0.74408575056E+02  0.55311879637E+02  0.12978210780E+03  0.81084289409E+02 0.  0.
          6    2    1    2  501    0  0.22349986255E+02 -0.21082300382E+02  0.65226607797E+03  0.67529303772E+03  0.17212107670E+03 0.  0.
         24    2    5    5    0    0 -0.75290974578E+01  0.25683420508E+02  0.17169803401E+03  0.19150845015E+03  0.80491901444E+02 0.  0.
          5    1    5    5  501    0  0.29879083713E+02 -0.46765720890E+02  0.48056804397E+03  0.48378458757E+03  0.47000000000E+01 0. -1.
        -13    1    6    6    0    0 -0.29641918172E+00  0.51546436319E+02  0.14391348314E+03  0.15286665297E+03  0.00000000000E+00 0.  1.
         14    1    6    6    0    0 -0.72326782761E+01 -0.25863015811E+02  0.27784550864E+02  0.38641797171E+02  0.00000000000E+00 0. -1.
         -5    1    3    3    0  503  0.18548588858E+02 -0.53326274675E+02  0.35465491604E+02  0.66840353186E+02  0.47000000000E+01 0.  1.
         11    1    4    4    0    0 -0.33079367090E+02  0.20545290908E+01 -0.71171682664E+01  0.33898668130E+02  0.00000000000E+00 0. -1.
        -12    1    4    4    0    0 -0.78192080237E+01  0.72354045966E+02  0.62429047903E+02  0.95883439674E+02  0.00000000000E+00 0.  1.
</event>
<event>
12    1  0.8331241E-002  0.3148776E+03  0.7818608E-02  0.1078127E+00
         21   -1    0    0  501  502  0.00000000000E+00  0.00000000000E+00  0.16650124084E+03  0.16650124084E+03  0.00000000000E+00 0.  1.
         21   -1    0    0  502  503 -0.00000000000E+00 -0.00000000000E+00 -0.93369629099E+03  0.93369629099E+03  0.00000000000E+00 0. -1.
         -6    2    1    2    0  503 -0.25983788810E+02  0.26250975895E+03 -0.71574280228E+03  0.78194353134E+03  0.17193427922E+03 0.  0.
        -24    2    3    3    0    0 -0.22671474458E+01  0.18269621428E+03 -0.31818859961E+03  0.37573654587E+03  0.80937755769E+02 0.  0.
          6    2    1    2  501    0  0.25983788810E+02 -0.26250975895E+03 -0.51452247872E+02  0.31825400048E+03  0.17044572211E+03 0.  0.
         24    2    5    5    0    0  0.76714158514E+02 -0.22210493760E+03 -0.32965946542E+02  0.25065257050E+03  0.80773089848E+02 0.  0.
          5    1    5    5  501    0 -0.50730369703E+02 -0.40404821347E+02 -0.18486301330E+02  0.67601429979E+02  0.47000000000E+01 0. -1.
        -11    1    6    6    0    0  0.97882357793E+01 -0.12211266630E+03  0.99446190830E+01  0.12290731581E+03  0.00000000000E+00 0.  1.
         12    1    6    6    0    0  0.66925922734E+02 -0.99992271300E+02 -0.42910565625E+02  0.12774525469E+03  0.00000000000E+00 0. -1.
         -5    1    3    3    0  503 -0.23716641365E+02  0.79813544669E+02 -0.39755420266E+03  0.40620698547E+03  0.47000000000E+01 0.  1.
         11    1    4    4    0    0  0.33398857876E+01  0.18637619638E+03 -0.31848229511E+03  0.36902332407E+03  0.00000000000E+00 0. -1.
        -12    1    4    4    0    0 -0.56070332334E+01 -0.36799820940E+01  0.29369549255E+00  0.67132218000E+01  0.00000000000E+00 0.  1.
</event>
<event>
12    1  0.8331241E-002  0.1931626E+03  0.7818608E-02  0.1155810E+00
         21   -1    0    0  501  502  0.00000000000E+00  0.00000000000E+00  0.11818479067E+03  0.11818479067E+03  0.00000000000E+00 0.  1.
         21   -1    0    0  502  503 -0.00000000000E+00 -0.00000000000E+00 -0.12590681748E+04  0.12590681748E+04  0.00000000000E+00 0.  1.
         -6    2    1    2    0  503  0.88987821907E+02 -0.66097612478E+01 -0.11671938727E+04  0.11830694588E+04  0.17131633454E+03 0.  0.
        -24    2    3    3    0    0 -0.68753894353E+01 -0.12503501047E+02 -0.30730714137E+03  0.31782280485E+03  0.79812578113E+02 0.  0.
          6    2    1    2  501    0 -0.88987821907E+02  0.66097612478E+01  0.26310488568E+02  0.19418350668E+03  0.17044785439E+03 0.  0.
         24    2    5    5    0    0 -0.82037874223E+02 -0.57346861981E+02  0.28477844217E+02  0.12964252080E+03  0.77313130848E+02 0.  0.
          5    1    5    5  501    0 -0.69499476842E+01  0.63956623229E+02 -0.21673556498E+01  0.64540985878E+02  0.47000000000E+01 0. -1.
        -11    1    6    6    0    0 -0.25123797820E+02 -0.18272241470E+02  0.48647005245E+02  0.57720110400E+02  0.00000000000E+00 0.  1.
         12    1    6    6    0    0 -0.56914076403E+02 -0.39074620511E+02 -0.20169161028E+02  0.71922410398E+02  0.00000000000E+00 0. -1.
         -5    1    3    3    0  503  0.95863211343E+02  0.58937397991E+01 -0.85988673136E+03  0.86524665398E+03  0.47000000000E+01 0.  1.
         11    1    4    4    0    0  0.19039005652E+02  0.27440127343E+02 -0.12041121852E+03  0.12495721616E+03  0.00000000000E+00 0. -1.
        -12    1    4    4    0    0 -0.25914395087E+02 -0.39943628389E+02 -0.18689592285E+03  0.19286558869E+03  0.00000000000E+00 0.  1.
</event>
<event>
12    1  0.8331241E-002  0.3074180E+03  0.7818608E-02  0.1081617E+00
         21   -1    0    0  503  502  0.00000000000E+00  0.00000000000E+00  0.60659564694E+03  0.60659564694E+03  0.00000000000E+00 0.  1.
         21   -1    0    0  501  503 -0.00000000000E+00 -0.00000000000E+00 -0.16951789373E+03  0.16951789373E+03  0.00000000000E+00 0. -1.
          6    2    1    2  501    0 -0.18591384579E+03 -0.17359631738E+03  0.10761622278E+03  0.32550205199E+03  0.17225183593E+03 0.  0.
         24    2    3    3    0    0 -0.11911714407E+03 -0.91330248555E+02 -0.37561048646E+01  0.17169896098E+03  0.83284551779E+02 0.  0.
         -6    2    1    2    0  502  0.18591384579E+03  0.17359631738E+03  0.32946153043E+03  0.45061148868E+03  0.17264464727E+03 0.  0.
        -24    2    5    5    0    0  0.68183822120E+02  0.14834162778E+03  0.24053152330E+03  0.30084903014E+03  0.77462591620E+02 0.  0.
          5    1    3    3  501    0 -0.66796701722E+02 -0.82266068825E+02  0.11137232764E+03  0.15380309101E+03  0.47000000000E+01 0. -1.
        -11    1    4    4    0    0 -0.80359884093E+01 -0.37520454985E+02  0.23905934988E+02  0.45209018787E+02  0.00000000000E+00 0.  1.
         12    1    4    4    0    0 -0.11108115566E+03 -0.53809793569E+02 -0.27662039853E+02  0.12648994219E+03  0.00000000000E+00 0. -1.
         -5    1    5    5    0  502  0.11773002367E+03  0.25254689601E+02  0.88930007127E+02  0.14976245854E+03  0.47000000000E+01 0.  1.
         13    1    6    6    0    0  0.11619546863E+02  0.82217248912E+02  0.66894686273E+02  0.10662827458E+03  0.00000000000E+00 0. -1.
        -14    1    6    6    0    0  0.56564275257E+02  0.66124378867E+02  0.17363683703E+03  0.19422075556E+03  0.00000000000E+00 0.  1.
</event>
<event>
12    1  0.8331241E-002  0.2057800E+03  0.7818608E-02  0.1145023E+00
         21   -1    0    0  501  502  0.00000000000E+00  0.00000000000E+00  0.34546315708E+03  0.34546315708E+03  0.00000000000E+00 0. -1.
         21   -1    0    0  502  503 -0.00000000000E+00 -0.00000000000E+00 -0.16201656524E+03  0.16201656524E+03  0.00000000000E+00 0. -1.
         -6    2    1    2    0  503  0.21572207600E+02  0.11174015361E+03 -0.33741376931E+02  0.20852792811E+03  0.17144735115E+03 0.  0.
        -24    2    3    3    0    0 -0.36894353003E+02  0.11311712613E+03 -0.58929097568E+01  0.14358285989E+03  0.80153813143E+02 0.  0.
          6    2    1    2  501    0 -0.21572207600E+02 -0.11174015361E+03  0.21718796877E+03  0.29895179420E+03  0.17102730603E+03 0.  0.
         24    2    5    5    0    0 -0.29569780810E+02 -0.30641560508E+02  0.19338464399E+03  0.21392455591E+03  0.80949477603E+02 0.  0.
          5    1    5    5  501    0  0.79975732101E+01 -0.81098593101E+02  0.23803324781E+02  0.85027238287E+02  0.47000000000E+01 0. -1.
        -13    1    6    6    0    0  0.27478935981E+02 -0.91385964392E+01  0.81740944100E+02  0.86719016426E+02  0.00000000000E+00 0.  1.
         14    1    6    6    0    0 -0.57048716791E+02 -0.21502964068E+02  0.11164369989E+03  0.12720553949E+03  0.00000000000E+00 0. -1.
         -5    1    3    3    0  503  0.58466560603E+02 -0.13769725252E+01 -0.27848467174E+02  0.64945068220E+02  0.47000000000E+01 0.  1.
         11    1    4    4    0    0 -0.45274504582E+01  0.33328821188E+02 -0.38850508909E+02  0.51387451502E+02  0.00000000000E+00 0. -1.
        -12    1    4    4    0    0 -0.32366902545E+02  0.79788304946E+02  0.32957599152E+02  0.92195408391E+02  0.00000000000E+00 0.  1.
</event>
<event>
12    1  0.8331241E-002  0.1807346E+03  0.7818608E-02  0.1167356E+00
         21   -1    0    0  503  502  0.00000000000E+00  0.00000000000E+00  0.40383952299E+02  0.40383952299E+02  0.00000000000E+00 0.  1.
         21   -1    0    0  501  503 -0.00000000000E+00 -0.00000000000E+00 -0.24553733970E+04  0.24553733970E+04  0.00000000000E+00 0.  1.
          6    2    1    2  501    0 -0.43602000889E+02  0.28232750414E+02 -0.22320593949E+04  0.22393646704E+04  0.17310910465E+03 0.  0.
         24    2    3    3    0    0 -0.95376442129E+02  0.23629266039E+02 -0.17239507635E+04  0.17285826659E+04  0.79603957100E+02 0.  0.
         -6    2    1    2    0  502  0.43602000889E+02 -0.28232750414E+02 -0.18293004980E+03  0.25639267887E+03  0.17197552146E+03 0.  0.
        -24    2    5    5    0    0 -0.34951249878E+01  0.42274060503E+02 -0.70497191103E+02  0.11549346892E+03  0.81052916781E+02 0.  0.
          5    1    3    3  501    0  0.51774441240E+02  0.46034843747E+01 -0.50810863142E+03  0.51078200454E+03  0.47000000000E+01 0. -1.
        -13    1    4    4    0    0 -0.60312376811E+02  0.15139933829E+02 -0.46791199622E+03  0.47202588552E+03  0.00000000000E+00 0.  1.
         14    1    4    4    0    0 -0.35064065318E+02  0.84893322098E+01 -0.12560387673E+04  0.12565567804E+04  0.00000000000E+00 0. -1.
         -5    1    5    5    0  502  0.47097125877E+02 -0.70506810917E+02 -0.11243285870E+03  0.14089920996E+03  0.47000000000E+01 0.  1.
         13    1    6    6    0    0 -0.37576312229E+02  0.42664007068E+02 -0.50069676184E+02  0.75757304684E+02  0.00000000000E+00 0. -1.
        -14    1    6    6    0    0  0.34081187241E+02 -0.38994656503E+00 -0.20427514919E+02  0.39736164232E+02  0.00000000000E+00 0.  1.
</event>
<event>
12    1  0.8331241E-002  0.3163512E+03  0.7818608E-02  0.1077614E+00
         21   -1    0    0  501  502  0.00000000000E+00  0.00000000000E+00  0.42638567954E+03  0.42638567954E+03  0.00000000000E+00 0. -1.
         21   -1    0    0  502  503 -0.00000000000E+00 -0.00000000000E+00 -0.39685423260E+03  0.39685423260E+03  0.00000000000E+00 0.  1.
         -6    2    1    2    0  503 -0.17492709535E+03 -0.19738277722E+03 -0.24976697949E+03  0.40123791161E+03  0.17043728534E+03 0.  0.
        -24    2    3    3    0    0 -0.10842771400E+03 -0.98179581866E+02 -0.22307949380E+03  0.27877259577E+03  0.80956161846E+02 0.  0.
          6    2    1    2  501    0  0.17492709535E+03  0.19738277722E+03  0.27929842643E+03  0.42200200054E+03  0.17469581569E+03 0.  0.
         24    2    5    5    0    0  0.12825131755E+02  0.66077040037E+02  0.77475811839E+02  0.13170439293E+03  0.82540211252E+02 0.  0.
          5    1    5    5  501    0  0.16210196360E+03  0.13130573719E+03  0.20182261459E+03  0.29029760760E+03  0.47000000000E+01 0. -1.
        -13    1    6    6    0    0  0.38701016399E+02  0.37006629707E+02  0.10986384914E+02  0.54662235282E+02  0.00000000000E+00 0.  1.
         14    1    6    6    0    0 -0.25875884644E+02  0.29070410330E+02  0.66489426925E+02  0.77042157652E+02  0.00000000000E+00 0. -1.
         -5    1    3    3    0  503 -0.66499381355E+02 -0.99203195357E+02 -0.26687485686E+02  0.12246531583E+03  0.47000000000E+01 0.  1.
         11    1    4    4    0    0  0.56104107752E+01 -0.28825886515E+02 -0.68586841714E+02  0.74609404894E+02  0.00000000000E+00 0. -1.
        -12    1    4    4    0    0 -0.11403812477E+03 -0.69353695351E+02 -0.15449265209E+03  0.20416319088E+03  0.00000000000E+00 0.  1.
</event>
<event>
12    1  0.8331241E-002  0.1793677E+03  0.7818608E-02  0.1168672E+00
         21   -1    0    0  503  502  0.00000000000E+00  0.00000000000E+00  0.24182340802E+03  0.24182340802E+03  0.00000000000E+00 0.  1.
         21   -1    0    0  501  503 -0.00000000000E+00 -0.00000000000E+00 -0.13244209812E+03  0.13244209812E+03  0.00000000000E+00 0.  1.
          6    2    1    2  501    0 -0.44642375442E+02 -0.31459999037E+02  0.61666803750E+02  0.18967224093E+03  0.17085107863E+03 0.  0.
         24    2    3    3    0    0 -0.59046207736E+02 -0.29795383755E+01  0.99352922103E+02  0.14006437320E+03  0.79067649589E+02 0.  0.
         -6    2    1    2    0  502  0.44642375442E+02  0.31459999037E+02  0.47714506151E+02  0.18459326522E+03  0.16975077685E+03 0.  0.
        -24    2    5    5    0    0  0.69897759783E+01  0.76369749789E+02  0.21693597160E+01  0.11022220685E+03  0.79139327206E+02 0.  0.
          5    1    3    3  501    0  0.14403832294E+02 -0.28480460661E+02 -0.37686118353E+02  0.49607867731E+02  0.47000000000E+01 0. -1.
        -13    1    4    4    0    0  0.58628460041E+01  0.41876943524E+01 -0.10221838158E+02  0.12505827545E+02  0.00000000000E+00 0.  1.
         14    1    4    4    0    0 -0.64909053741E+02 -0.71672327279E+01  0.10957476026E+03  0.12755854565E+03  0.00000000000E+00 0. -1.
         -5    1    5    5    0  502  0.37652599464E+02 -0.44909750752E+02  0.45545146435E+02  0.74371058368E+02  0.47000000000E+01 0.  1.
         13    1    6    6    0    0  0.31584276341E+02  0.39413708302E+01 -0.86173051489E+01  0.32975124929E+02  0.00000000000E+00 0. -1.
        -14    1    6    6    0    0 -0.24594500363E+02  0.72428378958E+02  0.10786664865E+02  0.77247081923E+02  0.00000000000E+00 0.  1.
</event>
<event>
12    1  0.8331241E-002  0.2130854E+03  0.7818608E-02  0.1139688E+00
         21   -1    0    0  503  502  0.00000000000E+00  0.00000000000E+00  0.47776343660E+03  0.47776343660E+03  0.00000000000E+00 0.  1.
         21   -1    0    0  501  503 -0.00000000000E+00 -0.00000000000E+00 -0.95226806686E+02  0.95226806686E+02  0.00000000000E+00 0.  1.
          6    2    1    2  501    0 -0.10810747192E+03 -0.52760238189E+02  0.22750584428E+03  0.31171185814E+03  0.17588207727E+03 0.  0.
         24    2    3    3    0    0 -0.24863229324E+02 -0.72177930691E+02  0.58204942460E+02  0.12199750427E+03  0.75284406549E+02 0.  0.
         -6    2    1    2    0  502  0.10810747192E+03  0.52760238189E+02  0.15503078563E+03  0.26127838515E+03  0.17251371491E+03 0.  0.
        -24    2    5    5    0    0  0.14591254674E+03  0.28581744802E+02  0.13317348297E+03  0.21114202205E+03  0.68835960644E+02 0.  0.
          5    1    3    3  501    0 -0.83244242594E+02  0.19417692501E+02  0.16930090182E+03  0.18971435387E+03  0.47000000000E+01 0. -1.
        -11    1    4    4    0    0  0.22543953454E+02 -0.29476611899E+02  0.42243294753E+02  0.56228075175E+02  0.00000000000E+00 0.  1.
         12    1    4    4    0    0 -0.47407182778E+02 -0.42701318792E+02  0.15961647707E+02  0.65769429092E+02  0.00000000000E+00 0. -1.
         -5    1    5    5    0  502 -0.37805074822E+02  0.24178493387E+02  0.21857302658E+02  0.50136363093E+02  0.47000000000E+01 0.  1.
         11    1    6    6    0    0  0.86074709707E+02  0.50769317994E+02  0.84779031004E+02  0.13104908774E+03  0.00000000000E+00 0. -1.
        -12    1    6    6    0    0  0.59837837033E+02 -0.22187573192E+02  0.48394451969E+02  0.80092934309E+02  0.00000000000E+00 0.  1.
</event>
<event>
12    1  0.8331241E-002  0.1774018E+03  0.7818608E-02  0.1170388E+00
         21   -1    0    0  503  502  0.00000000000E+00  0.00000000000E+00  0.93372632039E+03  0.93372632039E+03  0.00000000000E+00 0. -1.
         21   -1    0    0  501  503 -0.00000000000E+00 -0.00000000000E+00 -0.66143384924E+02  0.66143384924E+02  0.00000000000E+00 0. -1.
          6    2    1    2  501    0  0.84411777195E+01 -0.41582362846E+02  0.83610007136E+02  0.19611740407E+03  0.17225288534E+03 0.  0.
         24    2    3    3    0    0  0.33156356485E+02  0.26234850791E+02  0.85258228355E+02  0.12376534011E+03  0.79128266371E+02 0.  0.
         -6    2    1    2    0  502 -0.84411777195E+01  0.41582362846E+02  0.78397292833E+03  0.80375230124E+03  0.17205773163E+03 0.  0.
        -24    2    5    5    0    0 -0.61634041680E+02  0.43339249547E+02  0.65327810358E+03  0.66255812769E+03  0.80832829403E+02 0.  0.
          5    1    3    3  501    0 -0.24715178766E+02 -0.67817213637E+02 -0.16482212188E+01  0.72352063965E+02  0.47000000000E+01 0. -1.
        -13    1    4    4    0    0 -0.19703163475E+02  0.95702678172E+01  0.58004973469E+02  0.62003077537E+02  0.00000000000E+00 0.  1.
         14    1    4    4    0    0  0.52859519960E+02  0.16664582973E+02  0.27253254886E+02  0.61762262572E+02  0.00000000000E+00 0. -1.
         -5    1    5    5    0  502  0.53192863961E+02 -0.17568867010E+01  0.13069482476E+03  0.14119417355E+03  0.47000000000E+01 0.  1.
         11    1    6    6    0    0  0.10575236968E+02  0.33265811890E+02  0.28524119213E+03  0.28736907900E+03  0.00000000000E+00 0. -1.
        -12    1    6    6    0    0 -0.72209278648E+02  0.10073437657E+02  0.36803691145E+03  0.37518904869E+03  0.00000000000E+00 0.  1.
</event>
<event>
12    1  0.8331241E-002  0.1779110E+03  0.7818608E-02  0.1169930E+00
         21   -1    0    0  501  502  0.00000000000E+00  0.00000000000E+00  0.45977313522E+02  0.45977313522E+02  0.00000000000E+00 0. -1.
         21   -1    0    0  502  503 -0.00000000000E+00 -0.00000000000E+00 -0.89584452548E+03  0.89584452548E+03  0.00000000000E+00 0.  1.
         -6    2    1    2    0  503  0.85046258861E+01 -0.44937767229E+02 -0.65195847609E+03  0.67570120836E+03  0.17155330611E+03 0.  0.
        -24    2    3    3    0    0 -0.50147297323E+02 -0.13472860046E+01 -0.25349052889E+03  0.27056052527E+03  0.80180939036E+02 0.  0.
          6    2    1    2  501    0 -0.85046258861E+01  0.44937767229E+02 -0.19790873587E+03  0.26612063065E+03  0.17193193635E+03 0.  0.
         24    2    5    5    0    0  0.16260019081E+02 -0.38910915679E+02 -0.11108592213E+03  0.14281539860E+03  0.79231991023E+02 0.  0.
          5    1    5    5  501    0 -0.24764644967E+02  0.83848682908E+02 -0.86822813734E+02  0.12330523205E+03  0.47000000000E+01 0. -1.
        -13    1    6    6    0    0 -0.74028420752E+01  0.21325093073E+02 -0.15504396040E+02  0.27385177778E+02  0.00000000000E+00 0.  1.
         14    1    6    6    0    0  0.23662861156E+02 -0.60236008752E+02 -0.95581526092E+02  0.11543022082E+03  0.00000000000E+00 0. -1.
         -5    1    3    3    0  503  0.58651923209E+02 -0.43590481225E+02 -0.39846794720E+03  0.40514068309E+03  0.47000000000E+01 0.  1.
         11    1    4    4    0    0 -0.34022330527E+02  0.35988177232E+02 -0.97514985207E+02  0.10937019802E+03  0.00000000000E+00 0. -1.
        -12    1    4    4    0    0 -0.16124966796E+02 -0.37335463236E+02 -0.15597554369E+03  0.16119032725E+03  0.00000000000E+00 0.  1.
</event>
<event>
12    1  0.8331241E-002  0.1799113E+03  0.7818608E-02  0.1168589E+00
         21   -1    0    0  501  502  0.00000000000E+00  0.00000000000E+00  0.69357557545E+03  0.69357557545E+03  0.00000000000E+00 0. -1.
         21   -1    0    0  502  503 -0.00000000000E+00 -0.00000000000E+00 -0.79373826759E+02  0.79373826759E+02  0.00000000000E+00 0. -1.
         -6    2    1    2    0  503  0.14647732274E+02 -0.46970305434E+02  0.57659078203E+02  0.18892493470E+03  0.17305287053E+03 0.  0.
        -24    2    3    3    0    0  0.61757449476E+02  0.13926953258E+02  0.31505286561E+02  0.10747610175E+03  0.80935695296E+02 0.  0.
          6    2    1    2  501    0 -0.14647732274E+02  0.46970305434E+02  0.55654267048E+03  0.58402446751E+03  0.17007077622E+03 0.  0.
         24    2    5    5    0    0  0.54548004428E+02  0.23231611330E+02  0.34355781298E+03  0.35877745843E+03  0.84700066478E+02 0.  0.
          5    1    5    5  501    0 -0.69195736701E+02  0.23738694104E+02  0.21298485750E+03  0.22524700908E+03  0.47000000000E+01 0. -1.
        -13    1    6    6    0    0  0.57948151554E+02 -0.18778948445E+02  0.18886139383E+03  0.19844209042E+03  0.00000000000E+00 0.  1.
         14    1    6    6    0    0 -0.34001471260E+01  0.42010559776E+02  0.15469641916E+03  0.16033536800E+03  0.00000000000E+00 0. -1.
         -5    1    3    3    0  503 -0.47109717202E+02 -0.60897258692E+02  0.26153791642E+02  0.81448832947E+02  0.47000000000E+01 0.  1.
         13    1    4    4    0    0  0.55480241628E+02 -0.26647541765E+02  0.16049124780E+02  0.63605998926E+02  0.00000000000E+00 0. -1.
        -14    1    4    4    0    0  0.62772078481E+01  0.40574495023E+02  0.15456161781E+02  0.43870102823E+02  0.00000000000E+00 0.  1.
</event>
<event>
12    1  0.8331241E-002  0.2038835E+03  0.7818608E-02  0.1147051E+00
         21   -1    0    0  501  502  0.00000000000E+00  0.00000000000E+00  0.36643948844E+03  0.36643948844E+03  0.00000000000E+00 0.  1.
         21   -1    0    0  502  503 -0.00000000000E+00 -0.00000000000E+00 -0.11668037428E+03  0.11668037428E+03  0.00000000000E+00 0. -1.
         -6    2    1    2    0  503 -0.98071882551E+02 -0.36023530376E+02  0.75580970635E+02  0.21496598056E+03  0.17199447894E+03 0.  0.
        -24    2    3    3    0    0 -0.32518837218E+02  0.24808941046E+02  0.85530526942E+02  0.12486118045E+03  0.81251984682E+02 0.  0.
          6    2    1    2  501    0  0.98071882551E+02  0.36023530376E+02  0.17417814352E+03  0.26815388217E+03  0.17507909628E+03 0.  0.
         24    2    5    5    0    0  0.98802049893E+02  0.61439903083E+02  0.19081938418E+03  0.23740414986E+03  0.80074878947E+02 0.  0.
          5    1    5    5  501    0 -0.73016734204E+00 -0.25416372707E+02 -0.16641240662E+02  0.30749732303E+02  0.47000000000E+01 0. -1.
        -11    1    6    6    0    0  0.18775317238E+02 -0.15233903428E+02  0.66996268486E+02  0.71225587692E+02  0.00000000000E+00 0.  1.
         12    1    6    6    0    0  0.80026732655E+02  0.76673806511E+02  0.12382311570E+03  0.16617856217E+03  0.00000000000E+00 0. -1.
         -5    1    3    3    0  503 -0.65553045333E+02 -0.60832471422E+02 -0.99495563065E+01  0.90104800108E+02  0.47000000000E+01 0.  1.
         13    1    4    4    0    0 -0.95161062550E+01 -0.23914474606E+02  0.24715207996E+01  0.25856658504E+02  0.00000000000E+00 0. -1.
        -14    1    4    4    0    0 -0.23002730963E+02  0.48723415652E+02  0.83059006142E+02  0.99004521947E+02  0.00000000000E+00 0.  1.
</event>
<event>
12    1  0.8331241E-002  0.2564597E+03  0.7818608E-02  0.1109363E+00
         21   -1    0    0  503  502  0.00000000000E+00  0.00000000000E+00  0.17236713676E+04  0.17236713676E+04  0.00000000000E+00 0. -1.
         21   -1    0    0  501  503 -0.00000000000E+00 -0.00000000000E+00 -0.38194978997E+02  0.38194978997E+02  0.00000000000E+00 0. -1.
          6    2    1    2  501    0 -0.12741402183E+03 -0.14057526217E+03  0.89050410540E+03  0.92669798349E+03  0.17255681264E+03 0.  0.
         24    2    3    3    0    0 -0.23580564062E+02 -0.68393819746E+01  0.38109317318E+03  0.38986629622E+03  0.78491414388E+02 0.  0.
         -6    2    1    2    0  502  0.12741402183E+03  0.14057526217E+03  0.79497228319E+03  0.83516836309E+03  0.17184157346E+03 0.  0.
        -24    2    5    5    0    0  0.78324600886E+02  0.55514580110E+02  0.22769782263E+03  0.25943622530E+03  0.79020534406E+02 0.  0.
          5    1    3    3  501    0 -0.10383345777E+03 -0.13373588019E+03  0.50941093221E+03  0.53683168727E+03  0.47000000000E+01 0. -1.
        -13    1    4    4    0    0  0.61516374777E+01 -0.23427580522E+02  0.31100000984E+03  0.31194182197E+03  0.00000000000E+00 0.  1.
         14    1    4    4    0    0 -0.29732201540E+02  0.16588198548E+02  0.70093163339E+02  0.77924474245E+02  0.00000000000E+00 0. -1.
         -5    1    5    5    0  502  0.49089420947E+02  0.85060682056E+02  0.56727446056E+03  0.57573213779E+03  0.47000000000E+01 0.  1.
         11    1    6    6    0    0  0.23279261241E+02  0.15645537331E+02  0.16368401809E+03  0.16606975830E+03  0.00000000000E+00 0. -1.
        -12    1    6    6    0    0  0.55045339645E+02  0.39869042780E+02  0.64013804539E+02  0.93366467002E+02  0.00000000000E+00 0.  1.
</event>
<event>
12    1  0.8331241E-002  0.2427287E+03  0.7818608E-02  0.1118214E+00
         21   -1    0    0  503  502  0.00000000000E+00  0.00000000000E+00  0.15939584542E+03  0.15939584542E+03  0.00000000000E+00 0. -1.
         21   -1    0    0  501  503 -0.00000000000E+00 -0.00000000000E+00 -0.38881418206E+03  0.38881418206E+03  0.00000000000E+00 0. -1.
          6    2    1    2  501    0  0.11303330963E+03  0.12632515075E+03 -0.17912751820E+03  0.30166851038E+03  0.17373154459E+03 0.  0.
         24    2    3    3    0    0 -0.75279759879E+01  0.55167994490E+02 -0.51038558153E+02  0.11186009076E+03  0.82507984143E+02 0.  0.
         -6    2    1    2    0  502 -0.11303330963E+03 -0.12632515075E+03 -0.50290818441E+02  0.24654151709E+03  0.17181088567E+03 0.  0.
        -24    2    5    5    0    0 -0.49485119356E+02 -0.14567252428E+03 -0.21775999499E+02  0.17409927632E+03  0.78530901525E+02 0.  0.
          5    1    3    3  501    0  0.12056128561E+03  0.71157156264E+02 -0.12808896004E+03  0.18980841963E+03  0.47000000000E+01 0. -1.
        -11    1    4    4    0    0  0.33505703436E+02  0.24391987242E+02 -0.29472024257E+01  0.41548612570E+02  0.00000000000E+00 0.  1.
         12    1    4    4    0    0 -0.41033679424E+02  0.30776007248E+02 -0.48091355727E+02  0.70311478187E+02  0.00000000000E+00 0. -1.
         -5    1    5    5    0  502 -0.63548190271E+02  0.19347373523E+02 -0.28514818942E+02  0.72442240773E+02  0.47000000000E+01 0.  1.
         11    1    6    6    0    0 -0.22564110711E+02 -0.61259593114E+02  0.29599522522E+02  0.71679903559E+02  0.00000000000E+00 0. -1.
        -12    1    6    6    0    0 -0.26921008645E+02 -0.84412931164E+02 -0.51375522021E+02  0.10241937276E+03  0.00000000000E+00 0.  1.
</event>
<event>
12    1  0.8331241E-002  0.1728352E+03  0.7818608E-02  0.1175344E+00
         21   -1    0    0  501  502  0.00000000000E+00  0.00000000000E+00  0.23458437600E+03  0.23458437600E+03  0.00000000000E+00 0. -1.
         21   -1    0    0  502  503 -0.00000000000E+00 -0.00000000000E+00 -0.13369249407E+03  0.13369249407E+03  0.00000000000E+00 0. -1.
         -6    2    1    2    0  503  0.50092859920E+01  0.17309735399E+02  0.94459373530E+02  0.19696340628E+03  0.17189325257E+03 0.  0.
        -24    2    3    3    0    0  0.67262582771E+02 -0.18400710408E+01  0.76096371271E+02  0.12912921211E+03  0.79724869375E+02 0.  0.
          6    2    1    2  501    0 -0.50092859920E+01 -0.17309735399E+02  0.64325083974E+01  0.17131346379E+03  0.17024161015E+03 0.  0.
         24    2    5    5    0    0 -0.16973252259E+02  0.25818476404E+02  0.57846990133E+02  0.10298544557E+03  0.79404299102E+02 0.  0.
          5    1    5    5  501    0  0.11963966267E+02 -0.43128211803E+02 -0.51414481736E+02  0.68328018223E+02  0.47000000000E+01 0. -1.
        -13    1    6    6    0    0 -0.13041749190E+02 -0.26155207899E+02  0.67518222938E+01  0.29996153528E+02  0.00000000000E+00 0.  1.
         14    1    6    6    0    0 -0.39315030690E+01  0.51973684303E+02  0.51095167839E+02  0.72989292043E+02  0.00000000000E+00 0. -1.
         -5    1    3    3    0  503 -0.62253296779E+02  0.19149806439E+02  0.18363002259E+02  0.67834194168E+02  0.47000000000E+01 0.  1.
         11    1    4    4    0    0  0.57929860897E+02  0.85606046748E+01  0.91308436808E+02  0.10847296146E+03  0.00000000000E+00 0. -1.
        -12    1    4    4    0    0  0.93327218737E+01 -0.10400675716E+02 -0.15212065537E+02  0.20656250648E+02  0.00000000000E+00 0.  1.
</event>
<event>
12    1  0.8331241E-002  0.2214290E+03  0.7818608E-02  0.1136586E+00
         21   -1    0    0  503  502  0.00000000000E+00  0.00000000000E+00  0.87334205546E+03  0.87334205546E+03  0.00000000000E+00 0.  1.
         21   -1    0    0  501  503 -0.00000000000E+00 -0.00000000000E+00 -0.59364282080E+02  0.59364282080E+02  0.00000000000E+00 0.  1.
          6    2    1    2  501    0  0.89580629928E+01 -0.10554491779E+03  0.56225884721E+03  0.59745533831E+03  0.17204038318E+03 0.  0.
         24    2    3    3    0    0  0.55846831805E+02 -0.55989321664E+02  0.46484825429E+03  0.47843757761E+03  0.81024338274E+02 0.  0.
         -6    2    1    2    0  502 -0.89580629928E+01  0.10554491779E+03  0.25171892617E+03  0.33525099923E+03  0.19445009162E+03 0.  0.
        -24    2    5    5    0    0  0.23340329206E+02  0.13190404947E+03  0.24831911149E+03  0.29316016054E+03  0.79605586267E+02 0.  0.
          5    1    3    3  501    0 -0.46888768812E+02 -0.49555596125E+02  0.97410592926E+02  0.11901776070E+03  0.47000000000E+01 0. -1.
        -11    1    4    4    0    0  0.28065599736E+00  0.15248802089E+02  0.24067440785E+02  0.28492919101E+02  0.00000000000E+00 0.  1.
         12    1    4    4    0    0  0.55566175808E+02 -0.71238123753E+02  0.44078081350E+03  0.44994465851E+03  0.00000000000E+00 0. -1.
         -5    1    5    5    0  502 -0.32298392199E+02 -0.26359131681E+02  0.33998146809E+01  0.42090838688E+02  0.47000000000E+01 0.  1.
         11    1    6    6    0    0  0.30756167925E+02  0.10343890592E+03  0.11945536210E+03  0.16098177740E+03  0.00000000000E+00 0. -1.
        -12    1    6    6    0    0 -0.74158387190E+01  0.28465143552E+02  0.12886374939E+03  0.13217838314E+03  0.00000000000E+00 0.  1.
</event>
<event>
12    1  0.8331241E-002  0.1885009E+03  0.7818608E-02  0.1161184E+00
         21   -1    0    0  501  502  0.00000000000E+00  0.00000000000E+00  0.51573499767E+02  0.51573499767E+02  0.00000000000E+00 0. -1.
         21   -1    0    0  502  503 -0.00000000000E+00 -0.00000000000E+00 -0.77384248822E+03  0.77384248822E+03  0.00000000000E+00 0. -1.
         -6    2    1    2    0  503  0.47804070935E+02 -0.34853529302E+02 -0.50907620046E+03  0.54083954092E+03  0.17276814939E+03 0.  0.
        -24    2    3    3    0    0  0.21960941220E+02 -0.84717523826E+02 -0.41056665709E+03  0.42734722647E+03  0.80008313808E+02 0.  0.
          6    2    1    2  501    0 -0.47804070935E+02  0.34853529302E+02 -0.21319278799E+03  0.28457644706E+03  0.17897651150E+03 0.  0.
         24    2    5    5    0    0 -0.63429605264E+02  0.85920607945E+02 -0.12420515145E+03  0.18068759636E+03  0.76258915131E+02 0.  0.
          5    1    5    5  501    0  0.15625534329E+02 -0.51067078643E+02 -0.88987636540E+02  0.10388885071E+03  0.47000000000E+01 0. -1.
        -11    1    6    6    0    0 -0.24848215508E+02  0.51082020379E+02 -0.11448555967E+03  0.12780356017E+03  0.00000000000E+00 0.  1.
         12    1    6    6    0    0 -0.38581389755E+02  0.34838587566E+02 -0.97195917840E+01  0.52884036188E+02  0.00000000000E+00 0. -1.
         -5    1    3    3    0  503  0.25843129715E+02  0.49863994523E+02 -0.98509543374E+02  0.11349231445E+03  0.47000000000E+01 0.  1.
         11    1    4    4    0    0 -0.17757055905E+02 -0.34209945100E+02 -0.27066830570E+03  0.27339891201E+03  0.00000000000E+00 0. -1.
        -12    1    4    4    0    0  0.39717997125E+02 -0.50507578726E+02 -0.13989835139E+03  0.15394831446E+03  0.00000000000E+00 0.  1.
</event>
<event>
12    1  0.8331241E-002  0.2061040E+03  0.7818608E-02  0.1144789E+00
         21   -1    0    0  503  502  0.00000000000E+00  0.00000000000E+00  0.16725737680E+03  0.16725737680E+03  0.00000000000E+00 0.  1.
         21   -1    0    0  501  503 -0.00000000000E+00 -0.00000000000E+00 -0.26651948990E+03  0.26651948990E+03  0.00000000000E+00 0.  1.
          6    2    1    2  501    0 -0.98222220461E+02  0.57399003111E+02 -0.13871061486E+01  0.20561380802E+03  0.17126839707E+03 0.  0.
         24    2    3    3    0    0 -0.12424252281E+03  0.41381391067E+02  0.31964099580E+02  0.16013839760E+03  0.86452175924E+02 0.  0.
         -6    2    1    2    0  502  0.98222220461E+02 -0.57399003111E+02 -0.97875006949E+02  0.22816305867E+03  0.17186219540E+03 0.  0.
        -24    2    5    5    0    0 -0.65506340324E+00 -0.38040460335E+02  0.59675355046E+00  0.87201191282E+02  0.78461365752E+02 0.  0.
          5    1    3    3  501    0  0.26020302348E+02  0.16017612044E+02 -0.33351205728E+02  0.45475410426E+02  0.47000000000E+01 0. -1.
        -11    1    4    4    0    0 -0.84477040259E+01  0.37192604245E+02 -0.51110923183E+01  0.38480862497E+02  0.00000000000E+00 0.  1.
         12    1    4    4    0    0 -0.11579481878E+03  0.41887868222E+01  0.37075191898E+02  0.12165753510E+03  0.00000000000E+00 0. -1.
         -5    1    5    5    0  502  0.98877283865E+02 -0.19358542776E+02 -0.98471760499E+02  0.14096186739E+03  0.47000000000E+01 0.  1.
         11    1    6    6    0    0  0.10559377867E+02  0.22909005128E+02  0.37334212854E+00  0.25228205668E+02  0.00000000000E+00 0. -1.
        -12    1    6    6    0    0 -0.11214441270E+02 -0.60949465463E+02  0.22341142191E+00  0.61972985614E+02  0.00000000000E+00 0.  1.
</event>
<event>
12    1  0.8331241E-002  0.2784305E+03  0.7818608E-02  0.1096631E+00
         21   -1    0    0  501  502  0.00000000000E+00  0.00000000000E+00  0.13979253762E+03  0.13979253762E+03  0.00000000000E+00 0.  1.
         21   -1    0    0  502  503 -0.00000000000E+00 -0.00000000000E+00 -0.11624678631E+04  0.11624678631E+04  0.00000000000E+00 0. -1.
         -6    2    1    2    0  503  0.89141563860E+02 -0.19964584332E+03 -0.98239836722E+03  0.10209317649E+04  0.17143638888E+03 0.  0.
        -24    2    3    3    0    0  0.90746077111E+02 -0.19768401805E+03 -0.67877482303E+03  0.71726126941E+03  0.80091489664E+02 0.  0.
          6    2    1    2  501    0 -0.89141563860E+02  0.19964584332E+03 -0.40276958246E+02  0.28132863585E+03  0.17239166691E+03 0.  0.
         24    2    5    5    0    0 -0.50715050580E+02  0.21103532843E+03 -0.54856189282E+02  0.23842221125E+03  0.82024527507E+02 0.  0.
          5    1    5    5  501    0 -0.38426513281E+02 -0.11389485114E+02  0.14579231036E+02  0.42906424596E+02  0.47000000000E+01 0. -1.
        -11    1    6    6    0    0 -0.73269450820E+02  0.15907496807E+03 -0.36725357536E+02  0.17894694682E+03  0.00000000000E+00 0.  1.
         12    1    6    6    0    0  0.22554400240E+02  0.51960360363E+02 -0.18130831746E+02  0.59475264431E+02  0.00000000000E+00 0. -1.
         -5    1    3    3    0  503 -0.16045132505E+01 -0.19618252686E+01 -0.30362354419E+03  0.30367049545E+03  0.47000000000E+01 0.  1.
         11    1    4    4    0    0 -0.93962153849E+01 -0.63296566714E+02 -0.20140368901E+03  0.21132484513E+03  0.00000000000E+00 0. -1.
        -12    1    4    4    0    0  0.10014229250E+03 -0.13438745134E+03 -0.47737113402E+03  0.50593642428E+03  0.00000000000E+00 0.  1.
</event>
<event>
12    1  0.8331241E-002  0.3990139E+03  0.7818608E-02  0.1044190E+00
         21   -1    0    0  501  502  0.00000000000E+00  0.00000000000E+00  0.23176462062E+03  0.23176462062E+03  0.00000000000E+00 0. -1.
         21   -1    0    0  502  503 -0.00000000000E+00 -0.00000000000E+00 -0.72847669158E+03  0.72847669158E+03  0.00000000000E+00 0.  1.
         -6    2    1    2    0  503 -0.24247487327E+03  0.26542357842E+03 -0.13210548554E+03  0.42031409329E+03  0.17311365503E+03 0.  0.
        -24    2    3    3    0    0 -0.25233677815E+03  0.27424837197E+03 -0.11549459405E+03  0.39856217693E+03  0.81405088832E+02 0.  0.
          6    2    1    2  501    0  0.24247487327E+03 -0.26542357842E+03 -0.36460658542E+03  0.53992721890E+03  0.17128835173E+03 0.  0.
         24    2    5    5    0    0  0.10270980289E+03 -0.55770000110E+02 -0.17037170678E+03  0.22174774773E+03  0.80535387448E+02 0.  0.
          5    1    5    5  501    0  0.13976507037E+03 -0.20965357831E+03 -0.19423487864E+03  0.31817947117E+03  0.47000000000E+01 0. -1.
        -13    1    6    6    0    0  0.11416380045E+03 -0.37201378334E+02 -0.14616800529E+03  0.18916236849E+03  0.00000000000E+00 0.  1.
         14    1    6    6    0    0 -0.11453997555E+02 -0.18568621775E+02 -0.24203701496E+02  0.32585379248E+02  0.00000000000E+00 0. -1.
         -5    1    3    3    0  503  0.98619048832E+01 -0.88247935501E+01 -0.16610891494E+02  0.21751916360E+02  0.47000000000E+01 0.  1.
         11    1    4    4    0    0 -0.76189174972E+02  0.57325466595E+02  0.21545473826E+01  0.95371073065E+02  0.00000000000E+00 0. -1.
        -12    1    4    4    0    0 -0.17614760318E+03  0.21692290537E+03 -0.11764914143E+03  0.30319110386E+03  0.00000000000E+00 0.  1.
</event>
<event>
12    1  0.8331241E-002  0.1958873E+03  0.7818608E-02  0.1153885E+00
         21   -1    0    0  503  502  0.00000000000E+00  0.00000000000E+00  0.20646204065E+03  0.20646204065E+03  0.00000000000E+00 0. -1.
         21   -1    0    0  501  503 -0.00000000000E+00 -0.00000000000E+00 -0.38662204516E+03  0.38662204516E+03  0.00000000000E+00 0. -1.
          6    2    1    2  501    0  0.90551395260E+02 -0.15868798163E+02 -0.30489719766E+03  0.36085318892E+03  0.16970960160E+03 0.  0.
         24    2    3    3    0    0 -0.14320927918E+02  0.14114608165E+02 -0.15818027577E+03  0.17797302600E+03  0.79051168233E+02 0.  0.
         -6    2    1    2    0  502 -0.90551395260E+02  0.15868798163E+02  0.12473719315E+03  0.23223089690E+03  0.17297528199E+03 0.  0.
        -24    2    5    5    0    0  0.20525700207E+02  0.16070903013E+02  0.80953380569E+02  0.11274334847E+03  0.74013745392E+02 0.  0.
          5    1    3    3  501    0  0.10487232318E+03 -0.29983406328E+02 -0.14671692189E+03  0.18288016293E+03  0.47000000000E+01 0. -1.
        -11    1    4    4    0    0 -0.25291885381E+02 -0.14264859804E+02 -0.17204967363E+02  0.33751690229E+02  0.00000000000E+00 0.  1.
         12    1    4    4    0    0  0.10970957463E+02  0.28379467968E+02 -0.14097530841E+03  0.14422133577E+03  0.00000000000E+00 0. -1.
         -5    1    5    5    0  502 -0.11107709547E+03 -0.20210484957E+00  0.43783812581E+02  0.11948754842E+03  0.47000000000E+01 0.  1.
         13    1    6    6    0    0 -0.12533810973E+02 -0.10856761961E+02  0.65219729309E+02  0.67294715906E+02  0.00000000000E+00 0. -1.
        -14    1    6    6    0    0  0.33059511180E+02  0.26927664973E+02  0.15733651261E+02  0.45448632569E+02  0.00000000000E+00 0.  1.
</event>
<event>
12    1  0.8331241E-002  0.1727173E+03  0.7818608E-02  0.1175047E+00
         21   -1    0    0  503  502  0.00000000000E+00  0.00000000000E+00  0.64600023202E+03  0.64600023202E+03  0.00000000000E+00 0. -1.
         21   -1    0    0  501  503 -0.00000000000E+00 -0.00000000000E+00 -0.68461167094E+02  0.68461167094E+02  0.00000000000E+00 0. -1.
          6    2    1    2  501    0 -0.67705548351E+00  0.17852091973E+02  0.84955786570E+02  0.19248051079E+03  0.17179087802E+03 0.  0.
         24    2    3    3    0    0  0.13770433638E+02  0.52571542260E+02 -0.32042391209E+01  0.96519840198E+02  0.79702073407E+02 0.  0.
         -6    2    1    2    0  502  0.67705548351E+00 -0.17852091973E+02  0.49258327836E+03  0.52198088833E+03  0.17177487031E+03 0.  0.
        -24    2    5    5    0    0  0.53383280222E+02 -0.38783457381E+02  0.38590387163E+03  0.40107326242E+03  0.87086350892E+02 0.  0.
          5    1    3    3  501    0 -0.14447489121E+02 -0.34719450287E+02  0.88160025691E+02  0.95960670590E+02  0.47000000000E+01 0. -1.
        -11    1    4    4    0    0  0.18405745900E+02  0.40233893015E+00  0.29499731798E+02  0.34773086359E+02  0.00000000000E+00 0.  1.
         12    1    4    4    0    0 -0.46353122626E+01  0.52169203330E+02 -0.32703970919E+02  0.61746753840E+02  0.00000000000E+00 0. -1.
         -5    1    5    5    0  502 -0.52706224739E+02  0.20931365408E+02  0.10667940672E+03  0.12090762591E+03  0.47000000000E+01 0.  1.
         13    1    6    6    0    0  0.15112815852E+02  0.27314591314E+02  0.14618506651E+03  0.14948096123E+03  0.00000000000E+00 0. -1.
        -14    1    6    6    0    0  0.38270464370E+02 -0.66098048694E+02  0.23971880513E+03  0.25159230119E+03  0.00000000000E+00 0.  1.
</event>
<event>
12    1  0.8331241E-002  0.1833432E+03  0.7818608E-02  0.1164664E+00
         21   -1    0    0  501  502  0.00000000000E+00  0.00000000000E+00  0.97311749040E+02  0.97311749040E+02  0.00000000000E+00 0.  1.
         21   -1    0    0  502  503 -0.00000000000E+00 -0.00000000000E+00 -0.37021167037E+03  0.37021167037E+03  0.00000000000E+00 0.  1.
         -6    2    1    2    0  503  0.37906736353E+02  0.50014815303E+02 -0.19756585784E+03  0.26953108533E+03  0.17226820764E+03 0.  0.
        -24    2    3    3    0    0  0.56851888010E+02  0.19625178824E+02 -0.38975120134E+02  0.10687943037E+03  0.79289771292E+02 0.  0.
          6    2    1    2  501    0 -0.37906736353E+02 -0.50014815303E+02 -0.75334063485E+02  0.19799233407E+03  0.17200971141E+03 0.  0.
         24    2    5    5    0    0 -0.16919656754E+02  0.26703669420E+02  0.50053762386E+01  0.84843321779E+02  0.78574644218E+02 0.  0.
          5    1    5    5  501    0 -0.20987079599E+02 -0.76718484723E+02 -0.80339439724E+02  0.11314901230E+03  0.47000000000E+01 0. -1.
        -13    1    6    6    0    0  0.16560974164E+02  0.26469896671E+02  0.29814454864E+02  0.43172016560E+02  0.00000000000E+00 0.  1.
         14    1    6    6    0    0 -0.33480630918E+02  0.23377274903E+00 -0.24809078625E+02  0.41671305218E+02  0.00000000000E+00 0. -1.
         -5    1    3    3    0  503 -0.18945151657E+02  0.30389636479E+02 -0.15859073771E+03  0.16265165497E+03  0.47000000000E+01 0.  1.
         13    1    4    4    0    0  0.37787361433E+02 -0.22032631816E+02 -0.42425891429E+02  0.60936670506E+02  0.00000000000E+00 0. -1.
        -14    1    4    4    0    0  0.19064526577E+02  0.41657810640E+02  0.34507712949E+01  0.45942759859E+02  0.00000000000E+00 0.  1.
</event>
<event>
12    1  0.8331241E-002  0.2063699E+03  0.7818608E-02  0.1144681E+00
         21   -1    0    0  503  502  0.00000000000E+00  0.00000000000E+00  0.32340876430E+03  0.32340876430E+03  0.00000000000E+00 0. -1.
         21   -1    0    0  501  503 -0.00000000000E+00 -0.00000000000E+00 -0.13597849201E+03  0.13597849201E+03  0.00000000000E+00 0. -1.
          6    2    1    2  501    0  0.65596348877E+02 -0.92078092955E+02  0.50146208904E+02  0.21237511321E+03  0.17264787938E+03 0.  0.
         24    2    3    3    0    0 -0.22649047666E+02 -0.37468596673E+02 -0.16772462525E+02  0.88804705421E+02  0.75419394780E+02 0.  0.
         -6    2    1    2    0  502 -0.65596348877E+02  0.92078092955E+02  0.13728406339E+03  0.24701214311E+03  0.17142586909E+03 0.  0.
        -24    2    5    5    0    0 -0.22301039623E+02  0.10087073038E+03  0.34462069343E+02  0.13500211349E+03  0.79785310722E+02 0.  0.
          5    1    3    3  501    0  0.88245396543E+02 -0.54609496282E+02  0.66918671429E+02  0.12357040779E+03  0.47000000000E+01 0. -1.
        -11    1    4    4    0    0 -0.45585146296E+02 -0.93850043387E+01  0.45125151944E+01  0.46759455329E+02  0.00000000000E+00 0.  1.
         12    1    4    4    0    0  0.22936098631E+02 -0.28083592334E+02 -0.21284977720E+02  0.42045250092E+02  0.00000000000E+00 0. -1.
         -5    1    5    5    0  502 -0.43295309254E+02 -0.87926374270E+01  0.10282199404E+03  0.11201002962E+03  0.47000000000E+01 0.  1.
         13    1    6    6    0    0  0.27056462536E+02  0.60608430996E+02  0.23242285416E+02  0.70325229499E+02  0.00000000000E+00 0. -1.
        -14    1    6    6    0    0 -0.49357502159E+02  0.40262299386E+02  0.11219783928E+02  0.64676883990E+02  0.00000000000E+00 0.  1.
</event>
<event>
12    1  0.8331241E-002  0.2375661E+03  0.7818608E-02  0.1121465E+00
         21   -1    0    0  503  502  0.00000000000E+00  0.00000000000E+00  0.18292369386E+03  0.18292369386E+03  0.00000000000E+00 0.  1.
         21   -1    0    0  501  503 -0.00000000000E+00 -0.00000000000E+00 -0.30860987248E+03  0.30860987248E+03  0.00000000000E+00 0. -1.
          6    2    1    2  501    0 -0.14311546953E+03  0.79435512796E+02 -0.71572294847E+02  0.24811339988E+03  0.17217905651E+03 0.  0.
         24    2    3    3    0    0 -0.89123390722E+02  0.29797879102E+02  0.29598357864E+02  0.12306688765E+03  0.73746211257E+02 0.  0.
         -6    2    1    2    0  502  0.14311546953E+03 -0.79435512796E+02 -0.54113883773E+02  0.24342016645E+03  0.17185175794E+03 0.  0.
        -24    2    5    5    0    0  0.16489150650E+03 -0.93541576921E+02 -0.62823915517E+02  0.21565091214E+03  0.81358687421E+02 0.  0.
          5    1    3    3  501    0 -0.53992078803E+02  0.49637633693E+02 -0.10117065271E+03  0.12504651223E+03  0.47000000000E+01 0. -1.
        -11    1    4    4    0    0 -0.98436154369E+02  0.32453502551E+02  0.13836029923E+02  0.10456740429E+03  0.00000000000E+00 0.  1.
         12    1    4    4    0    0  0.93127636470E+01 -0.26556234487E+01  0.15762327941E+02  0.18499483365E+02  0.00000000000E+00 0. -1.
         -5    1    5    5    0  502 -0.21776036976E+02  0.14106064126E+02  0.87100317436E+01  0.27769254302E+02  0.47000000000E+01 0.  1.
         11    1    6    6    0    0  0.70896196582E+02 -0.10392279173E+02 -0.54230693808E+02  0.89862329744E+02  0.00000000000E+00 0. -1.
        -12    1    6    6    0    0  0.93995309920E+02 -0.83149297749E+02 -0.85932217084E+01  0.12578858240E+03  0.00000000000E+00 0.  1.
</event>
<event>
12    1  0.8331241E-002  0.2180302E+03  0.7818608E-02  0.1136698E+00
         21   -1    0    0  503  502  0.00000000000E+00  0.00000000000E+00  0.49315098155E+03  0.49315098155E+03  0.00000000000E+00 0.  1.
         21   -1    0    0  501  503 -0.00000000000E+00 -0.00000000000E+00 -0.15895251690E+03  0.15895251690E+03  0.00000000000E+00 0.  1.
          6    2    1    2  501    0  0.94768321103E+02 -0.79286633655E+02 -0.40776658129E+02  0.22181053910E+03  0.17963789814E+03 0.  0.
         24    2    3    3    0    0  0.79918558699E+02 -0.11851281928E+03 -0.59770966351E+02  0.17552789844E+03  0.82493698870E+02 0.  0.
         -6    2    1    2    0  502 -0.94768321103E+02  0.79286633655E+02  0.37497512278E+03  0.43029295935E+03  0.17110898047E+03 0.  0.
        -24    2    5    5    0    0 -0.74341687986E+02  0.10559300237E+03  0.19603178104E+03  0.24821582753E+03  0.80660207904E+02 0.  0.
          5    1    3    3  501    0  0.14849762404E+02  0.39226185623E+02  0.18994308222E+02  0.46282640664E+02  0.47000000000E+01 0. -1.
        -11    1    4    4    0    0  0.82786593780E+01 -0.40485520858E+02 -0.55918928423E+02  0.69530857583E+02  0.00000000000E+00 0.  1.
         12    1    4    4    0    0  0.71639899321E+02 -0.78027298420E+02 -0.38520379275E+01  0.10599704085E+03  0.00000000000E+00 0. -1.
         -5    1    5    5    0  502 -0.20426633117E+02 -0.26306368717E+02  0.17894334174E+03  0.18207713181E+03  0.47000000000E+01 0.  1.
         13    1    6    6    0    0 -0.19509803740E+02  0.85244125245E+00  0.27705725338E+00  0.19530382966E+02  0.00000000000E+00 0. -1.
        -14    1    6    6    0    0 -0.54831884245E+02  0.10474056112E+03  0.19575472379E+03  0.22868544457E+03  0.00000000000E+00 0.  1.
</event>
<event>
12    1  0.8331241E-002  0.2245204E+03  0.7818608E-02  0.1130629E+00
         21   -1    0    0  503  502  0.00000000000E+00  0.00000000000E+00  0.30072899887E+03  0.30072899887E+03  0.00000000000E+00 0. -1.
         21   -1    0    0  501  503 -0.00000000000E+00 -0.00000000000E+00 -0.32363368032E+03  0.32363368032E+03  0.00000000000E+00 0. -1.
          6    2    1    2  501    0  0.39773191203E+02  0.13847587087E+03 -0.22839928131E+03  0.31999865233E+03  0.17168410595E+03 0.  0.
         24    2    3    3    0    0  0.65206249586E+02  0.87483488175E+02 -0.77332242685E+02  0.15847341061E+03  0.85019588474E+02 0.  0.
         -6    2    1    2    0  502 -0.39773191203E+02 -0.13847587087E+03  0.20549459987E+03  0.30436402686E+03  0.17219743529E+03 0.  0.
        -24    2    5    5    0    0  0.33342652297E+01 -0.15559076009E+03  0.14067904040E+03  0.22452469456E+03  0.80007150354E+02 0.  0.
          5    1    3    3  501    0 -0.25433058382E+02  0.50992382690E+02 -0.15106703863E+03  0.16152524171E+03  0.47000000000E+01 0. -1.
        -13    1    4    4    0    0  0.15057742556E+02  0.91619239465E+01 -0.61699686602E+02  0.64167965435E+02  0.00000000000E+00 0.  1.
         14    1    4    4    0    0  0.50148507029E+02  0.78321564228E+02 -0.15632556083E+02  0.94305445178E+02  0.00000000000E+00 0. -1.
         -5    1    5    5    0  502 -0.43107456433E+02  0.17114889227E+02  0.64815559465E+02  0.79839332300E+02  0.47000000000E+01 0.  1.
         11    1    6    6    0    0 -0.33658023498E+02 -0.71869394053E+02  0.41468611869E+02  0.89541711608E+02  0.00000000000E+00 0. -1.
        -12    1    6    6    0    0  0.36992288727E+02 -0.83721366039E+02  0.99210428533E+02  0.13498298295E+03  0.00000000000E+00 0.  1.
</event>
<event>
12    1  0.8331241E-002  0.1780447E+03  0.7818608E-02  0.1170470E+00
         21   -1    0    0  501  502  0.00000000000E+00  0.00000000000E+00  0.50255781819E+03  0.50255781819E+03  0.00000000000E+00 0. -1.
         21   -1    0    0  502  503 -0.00000000000E+00 -0.00000000000E+00 -0.20102169108E+03  0.20102169108E+03  0.00000000000E+00 0. -1.
         -6    2    1    2    0  503 -0.31167634504E+02  0.28643461443E+02 -0.14219251843E+03  0.22546337368E+03  0.16977382380E+03 0.  0.
        -24    2    3    3    0    0 -0.37629806790E+02  0.40404563977E+02 -0.16914685254E+03  0.19498864102E+03  0.79758267619E+02 0.  0.
          6    2    1    2  501    0  0.31167634504E+02 -0.28643461443E+02  0.44372864555E+03  0.47811613559E+03  0.17293946602E+03 0.  0.
         24    2    5    5    0    0 -0.49466440077E+02 -0.57896818215E+01  0.24464432022E+03  0.26205871771E+03  0.79645960386E+02 0.  0.
          5    1    5    5  501    0  0.80634074581E+02 -0.22853779622E+02  0.19908432533E+03  0.21605741787E+03  0.47000000000E+01 0. -1.
        -11    1    6    6    0    0 -0.56494825404E+01 -0.33245884825E+02  0.47549047470E+02  0.58293373775E+02  0.00000000000E+00 0.  1.
         12    1    6    6    0    0 -0.43816957537E+02  0.27456203004E+02  0.19709527275E+03  0.20376534394E+03  0.00000000000E+00 0. -1.
         -5    1    3    3    0  503  0.64621722866E+01 -0.11761102534E+02  0.26954334104E+02  0.30474732657E+02  0.47000000000E+01 0.  1.
         11    1    4    4    0    0 -0.46557586266E+02  0.32434381001E+02 -0.51170825780E+02  0.76407141819E+02  0.00000000000E+00 0. -1.
        -12    1    4    4    0    0  0.89277794757E+01  0.79701829759E+01 -0.11797602676E+03  0.11858149920E+03  0.00000000000E+00 0.  1.
</event>
<event>
12    1  0.8331241E-002  0.2228336E+03  0.7818608E-02  0.1132179E+00
         21   -1    0    0  503  502  0.00000000000E+00  0.00000000000E+00  0.32734810029E+03  0.32734810029E+03  0.00000000000E+00 0. -1.
         21   -1    0    0  501  503 -0.00000000000E+00 -0.00000000000E+00 -0.34516495761E+03  0.34516495761E+03  0.00000000000E+00 0. -1.
          6    2    1    2  501    0  0.67115226233E+02 -0.12295809871E+03 -0.26157670115E+03  0.34225000388E+03  0.17055657989E+03 0.  0.
         24    2    3    3    0    0  0.11047177532E+03 -0.96240618416E+02 -0.21850174690E+03  0.27538330226E+03  0.81404422410E+02 0.  0.
         -6    2    1    2    0  502 -0.67115226233E+02  0.12295809871E+03  0.24375984383E+03  0.33026305402E+03  0.17329649668E+03 0.  0.
        -24    2    5    5    0    0 -0.25104359899E+02 -0.68601390090E+01  0.67267507799E+02  0.10712784297E+03  0.79209637933E+02 0.  0.
          5    1    3    3  501    0 -0.43356549092E+02 -0.26717480291E+02 -0.43074954243E+02  0.66866701618E+02  0.47000000000E+01 0. -1.
        -11    1    4    4    0    0  0.72922581493E+02 -0.57871825422E+02 -0.67134070333E+02  0.11477732559E+03  0.00000000000E+00 0.  1.
         12    1    4    4    0    0  0.37549193832E+02 -0.38368792994E+02 -0.15136767657E+03  0.16060597668E+03  0.00000000000E+00 0. -1.
         -5    1    5    5    0  502 -0.42010866334E+02  0.12981823772E+03  0.17649233603E+03  0.22313521105E+03  0.47000000000E+01 0.  1.
         13    1    6    6    0    0  0.84187186942E+01  0.17741285320E+02  0.62214820313E+02  0.65240416123E+02  0.00000000000E+00 0. -1.
        -14    1    6    6    0    0 -0.33523078593E+02 -0.24601424329E+02  0.50526874861E+01  0.41887426851E+02  0.00000000000E+00 0.  1.
</event>
<event>
12    1  0.8331241E-002  0.2037174E+03  0.7818608E-02  0.1147132E+00
         21   -1    0    0  503  502  0.00000000000E+00  0.00000000000E+00  0.15079490020E+03  0.15079490020E+03  0.00000000000E+00 0.  1.
         21   -1    0    0  501  503 -0.00000000000E+00 -0.00000000000E+00 -0.46320115117E+03  0.46320115117E+03  0.00000000000E+00 0. -1.
          6    2    1    2  501    0 -0.78863589288E+02 -0.69478110829E+02 -0.35289537856E+03  0.40629397438E+03  0.17173517931E+03 0.  0.
         24    2    3    3    0    0  0.62289949798E+01  0.98910502481E+01 -0.11618388581E+03  0.14248602828E+03  0.81651329932E+02 0.  0.
         -6    2    1    2    0  502  0.78863589288E+02  0.69478110829E+02  0.40489127588E+02  0.20770207700E+03  0.17451105906E+03 0.  0.
        -24    2    5    5    0    0  0.12215453798E+03  0.64550202827E+02  0.31045017799E+02  0.16287271468E+03  0.80469051330E+02 0.  0.
          5    1    3    3  501    0 -0.85092584268E+02 -0.79369161077E+02 -0.23671149274E+03  0.26380794610E+03  0.47000000000E+01 0. -1.
        -13    1    4    4    0    0  0.29122856833E+01 -0.21254092568E+02 -0.10800443423E+03  0.11011437541E+03  0.00000000000E+00 0.  1.
         14    1    4    4    0    0  0.33167092966E+01  0.31145142816E+02 -0.81794515861E+01  0.32371652874E+02  0.00000000000E+00 0. -1.
         -5    1    5    5    0  502 -0.43290948694E+02  0.49279080021E+01  0.94441097894E+01  0.44829362318E+02  0.47000000000E+01 0.  1.
         13    1    6    6    0    0  0.10436366897E+02 -0.12979069004E+02 -0.11671343318E+02  0.20337016524E+02  0.00000000000E+00 0. -1.
        -14    1    6    6    0    0  0.11171817108E+03  0.77529271832E+02  0.42716361117E+02  0.14253569815E+03  0.00000000000E+00 0.  1.
</event>
<event>
12    1  0.8331241E-002  0.2123320E+03  0.7818608E-02  0.1140131E+00
         21   -1    0    0  503  502  0.00000000000E+00  0.00000000000E+00  0.11170338248E+04  0.11170338248E+04  0.00000000000E+00 0.  1.
         21   -1    0    0  501  503 -0.00000000000E+00 -0.00000000000E+00 -0.64758802814E+02  0.64758802814E+02  0.00000000000E+00 0.  1.
          6    2    1    2  501    0 -0.11846316335E+03 -0.25277582881E+02  0.15903988202E+03  0.26366742600E+03  0.17191378709E+03 0.  0.
         24    2    3    3    0    0 -0.68744256981E+02  0.45079264778E+02  0.50720492368E+02  0.12518552885E+03  0.79629989994E+02 0.  0.
         -6    2    1    2    0  502  0.11846316335E+03  0.25277582881E+02  0.89323514001E+03  0.91812520166E+03  0.17439149437E+03 0.  0.
        -24    2    5    5    0    0  0.10183130843E+03 -0.48753259739E+02  0.63728336277E+03  0.65112223065E+03  0.71299222079E+02 0.  0.
          5    1    3    3  501    0 -0.49718906371E+02 -0.70356847660E+02  0.10831938965E+03  0.13848189715E+03  0.47000000000E+01 0. -1.
        -11    1    4    4    0    0 -0.29896286914E+02  0.11272724409E+02  0.64409770780E+02  0.71899101933E+02  0.00000000000E+00 0.  1.
         12    1    4    4    0    0 -0.38847970067E+02  0.33806540370E+02 -0.13689278412E+02  0.53286426916E+02  0.00000000000E+00 0. -1.
         -5    1    5    5    0  502  0.16631854921E+02  0.74030842620E+02  0.25595177723E+03  0.26700297101E+03  0.47000000000E+01 0.  1.
         13    1    6    6    0    0  0.84871824817E+01 -0.32297722412E+01  0.49997207670E+01  0.10366335078E+02  0.00000000000E+00 0. -1.
        -14    1    6    6    0    0  0.93344125949E+02 -0.45523487497E+02  0.63228364201E+03  0.64075589557E+03  0.00000000000E+00 0.  1.
</event>
<event>
12    1  0.8331241E-002  0.1971815E+03  0.7818608E-02  0.1152193E+00
         21   -1    0    0  501  502  0.00000000000E+00  0.00000000000E+00  0.37091710131E+02  0.37091710131E+02  0.00000000000E+00 0.  1.
         21   -1    0    0  502  503 -0.00000000000E+00 -0.00000000000E+00 -0.13434301509E+04  0.13434301509E+04  0.00000000000E+00 0.  1.
         -6    2    1    2    0  503 -0.81491780042E+02 -0.40910506613E+02 -0.97780188273E+03  0.99748537117E+03  0.17483124451E+03 0.  0.
        -24    2    3    3    0    0 -0.12016863801E+03 -0.41467716478E+02 -0.64613377914E+03  0.66353622719E+03  0.81433354194E+02 0.  0.
          6    2    1    2  501    0  0.81491780042E+02  0.40910506613E+02 -0.32853655802E+03  0.38303648984E+03  0.17454541767E+03 0.  0.
         24    2    5    5    0    0 -0.15964479461E+02  0.24348937190E+02 -0.85146290951E+02  0.12029532405E+03  0.79833193468E+02 0.  0.
          5    1    5    5  501    0  0.97456259504E+02  0.16561569424E+02 -0.24339026707E+03  0.26274116579E+03  0.47000000000E+01 0. -1.
        -13    1    6    6    0    0 -0.48439829309E+02  0.10513309655E+02 -0.52721851042E+02  0.72363943512E+02  0.00000000000E+00 0.  1.
         14    1    6    6    0    0  0.32475349848E+02  0.13835627535E+02 -0.32424439909E+02  0.47931380540E+02  0.00000000000E+00 0. -1.
         -5    1    3    3    0  503  0.38676857965E+02  0.55720986459E+00 -0.33166810358E+03  0.33394914397E+03  0.47000000000E+01 0.  1.
         13    1    4    4    0    0 -0.23292111746E+02 -0.44688068559E+02 -0.15695553684E+03  0.16484716099E+03  0.00000000000E+00 0. -1.
        -14    1    4    4    0    0 -0.96876526262E+02  0.32203520811E+01 -0.48917824230E+03  0.49868906620E+03  0.00000000000E+00 0.  1.
</event>
<event>
12    1  0.8331241E-002  0.1758229E+03  0.7818608E-02  0.1172621E+00
         21   -1    0    0  503  502  0.00000000000E+00  0.00000000000E+00  0.34531008571E+03  0.34531008571E+03  0.00000000000E+00 0.  1.
         21   -1    0    0  501  503 -0.00000000000E+00 -0.00000000000E+00 -0.15591907108E+03  0.15591907108E+03  0.00000000000E+00 0.  1.
          6    2    1    2  501    0  0.13063771534E+02 -0.12629102246E+01 -0.70165969938E+02  0.18930654727E+03  0.17533239413E+03 0.  0.
         24    2    3    3    0    0 -0.20915618402E+02  0.63587298153E+02 -0.34192691191E+02  0.10759782527E+03  0.76989247898E+02 0.  0.
         -6    2    1    2    0  502 -0.13063771534E+02  0.12629102246E+01  0.25955698457E+03  0.31192260952E+03  0.17249240280E+03 0.  0.
        -24    2    5    5    0    0  0.30122743720E+01 -0.33046098320E+02  0.49374281744E+02  0.98300499507E+02  0.78256310254E+02 0.  0.
          5    1    3    3  501    0  0.33979389936E+02 -0.64850208378E+02 -0.35973278747E+02  0.81708722000E+02  0.47000000000E+01 0. -1.
        -11    1    4    4    0    0  0.96506853279E+01  0.28444877446E+02 -0.50071298446E+02  0.58389911014E+02  0.00000000000E+00 0.  1.
         12    1    4    4    0    0 -0.30566303730E+02  0.35142420707E+02  0.15878607254E+02  0.49207914254E+02  0.00000000000E+00 0. -1.
         -5    1    5    5    0  502 -0.16076045906E+02  0.34309008544E+02  0.21018270283E+03  0.21362211002E+03  0.47000000000E+01 0.  1.
         13    1    6    6    0    0  0.56100078260E+01  0.25568191990E+02  0.17987893104E+02  0.31761122898E+02  0.00000000000E+00 0. -1.
        -14    1    6    6    0    0 -0.25977334540E+01 -0.58614290309E+02  0.31386388640E+02  0.66539376608E+02  0.00000000000E+00 0.  1.
</event>
<event>
12    1  0.8331241E-002  0.2537910E+03  0.7818608E-02  0.1110972E+00
         21   -1    0    0  501  502  0.00000000000E+00  0.00000000000E+00  0.38628277507E+03  0.38628277507E+03  0.00000000000E+00 0. -1.
         21   -1    0    0  502  503 -0.00000000000E+00 -0.00000000000E+00 -0.27753632437E+03  0.27753632437E+03  0.00000000000E+00 0. -1.
         -6    2    1    2    0  503  0.18498554558E+03  0.23887377750E+02 -0.15551053131E+03  0.29742909138E+03  0.17172734250E+03 0.  0.
        -24    2    3    3    0    0  0.18737763565E+03 -0.14324764800E+02 -0.15893737584E+03  0.25870283160E+03  0.79689951732E+02 0.  0.
          6    2    1    2  501    0 -0.18498554558E+03 -0.23887377750E+02  0.26425698200E+03  0.36639000806E+03  0.17210353448E+03 0.  0.
         24    2    5    5    0    0 -0.36605197336E+02  0.40901242950E+01  0.37290637893E+02  0.93745037956E+02  0.77723039558E+02 0.  0.
          5    1    5    5  501    0 -0.14838034824E+03 -0.27977502045E+02  0.22696634411E+03  0.27264497011E+03  0.47000000000E+01 0. -1.
        -13    1    6    6    0    0  0.15845878031E+01 -0.31567678348E+02  0.24399307266E+02  0.39929380535E+02  0.00000000000E+00 0.  1.
         14    1    6    6    0    0 -0.38189785140E+02  0.35657802643E+02  0.12891330627E+02  0.53815657421E+02  0.00000000000E+00 0. -1.
         -5    1    3    3    0  503 -0.23920900713E+01  0.38212142551E+02  0.34268445343E+01  0.38726259782E+02  0.47000000000E+01 0.  1.
         11    1    4    4    0    0  0.13951793334E+03 -0.16914847802E+02 -0.68488586484E+02  0.15633954164E+03  0.00000000000E+00 0. -1.
        -12    1    4    4    0    0  0.47859702310E+02  0.25900830018E+01 -0.90448789359E+02  0.10236328996E+03  0.00000000000E+00 0.  1.
</event>
<event>
12    1  0.8331241E-002  0.1751028E+03  0.7818608E-02  0.1173671E+00
         21   -1    0    0  501  502  0.00000000000E+00  0.00000000000E+00  0.22972304685E+03  0.22972304685E+03  0.00000000000E+00 0.  1.
         21   -1    0    0  502  503 -0.00000000000E+00 -0.00000000000E+00 -0.14186839467E+03  0.14186839467E+03  0.00000000000E+00 0.  1.
         -6    2    1    2    0  503  0.10382299754E+02  0.21270865838E+02 -0.94685778737E+01  0.17125974909E+03  0.16935172219E+03 0.  0.
        -24    2    3    3    0    0 -0.38820560599E+02  0.25207736116E+02  0.17716314932E+02  0.11471305324E+03  0.10345410037E+03 0.  0.
          6    2    1    2  501    0 -0.10382299754E+02 -0.21270865838E+02  0.97323230055E+02  0.20033169244E+03  0.17349563108E+03 0.  0.
         24    2    5    5    0    0  0.22628697495E+02 -0.51366136321E+02  0.11526505087E+03  0.15196382936E+03  0.81586981617E+02 0.  0.
          5    1    5    5  501    0 -0.33010997249E+02  0.30095270483E+02 -0.17941820815E+02  0.48367863080E+02  0.47000000000E+01 0. -1.
        -13    1    6    6    0    0 -0.21932099706E+02 -0.47671135847E+02  0.76607237837E+02  0.92855926464E+02  0.00000000000E+00 0.  1.
         14    1    6    6    0    0  0.44560797201E+02 -0.36950004744E+01  0.38657813033E+02  0.59107902891E+02  0.00000000000E+00 0. -1.
         -5    1    3    3    0  503  0.49202860353E+02 -0.39368702774E+01 -0.27184892806E+02  0.56546695848E+02  0.47000000000E+01 0.  1.
         11    1    4    4    0    0  0.22710429099E+02  0.30081181614E+02  0.34126198812E+02  0.50845240903E+02  0.00000000000E+00 0. -1.
        -12    1    4    4    0    0 -0.61530989698E+02 -0.48734454985E+01 -0.16409883880E+02  0.63867812340E+02  0.00000000000E+00 0.  1.
</event>
<event>
12    1  0.8331241E-002  0.2803546E+03  0.7818608E-02  0.1095545E+00
         21   -1    0    0  501  502  0.00000000000E+00  0.00000000000E+00  0.54279178335E+03  0.54279178335E+03  0.00000000000E+00 0. -1.
         21   -1    0    0  502  503 -0.00000000000E+00 -0.00000000000E+00 -0.15450710789E+03  0.15450710789E+03  0.00000000000E+00 0.  1.
         -6    2    1    2    0  503 -0.16169189981E+03 -0.15169628300E+03  0.10581625999E+03  0.29932010730E+03  0.17099535964E+03 0.  0.
        -24    2    3    3    0    0 -0.11611103196E+02 -0.24001536435E+02  0.29746636825E+02  0.88040975864E+02  0.78456736869E+02 0.  0.
          6    2    1    2  501    0  0.16169189981E+03  0.15169628300E+03  0.28246841546E+03  0.39797878394E+03  0.17158867675E+03 0.  0.
         24    2    5    5    0    0  0.16725799088E+03  0.17567011984E+03  0.25134114163E+03  0.35801976244E+03  0.78552875872E+02 0.  0.
          5    1    5    5  501    0 -0.55660910650E+01 -0.23973836838E+02  0.31127273835E+02  0.39959021496E+02  0.47000000000E+01 0. -1.
        -13    1    6    6    0    0  0.25983103974E+02  0.34802028077E+02  0.94110845857E+01  0.44439524789E+02  0.00000000000E+00 0.  1.
         14    1    6    6    0    0  0.14127488690E+03  0.14086809176E+03  0.24193005704E+03  0.31358023765E+03  0.00000000000E+00 0. -1.
         -5    1    3    3    0  503 -0.15008079661E+03 -0.12769474657E+03  0.76069623169E+02  0.21127913144E+03  0.47000000000E+01 0.  1.
         13    1    4    4    0    0  0.12457901728E+02  0.11647618468E+02  0.40292530446E+02  0.43753335200E+02  0.00000000000E+00 0. -1.
        -14    1    4    4    0    0 -0.24069004924E+02 -0.35649154903E+02 -0.10545893621E+02  0.44287640664E+02  0.00000000000E+00 0.  1.
</event>
<event>
12    1  0.8331241E-002  0.2037934E+03  0.7818608E-02  0.1147602E+00
         21   -1    0    0  503  502  0.00000000000E+00  0.00000000000E+00  0.98414671749E+03  0.98414671749E+03  0.00000000000E+00 0.  1.
         21   -1    0    0  501  503 -0.00000000000E+00 -0.00000000000E+00 -0.69384667965E+02  0.69384667965E+02  0.00000000000E+00 0.  1.
          6    2    1    2  501    0 -0.94214497389E+02  0.34758390409E+02  0.11829084016E+03  0.23140113655E+03  0.17166608841E+03 0.  0.
         24    2    3    3    0    0 -0.42726296349E+02 -0.38200923415E+02  0.22827244341E+02  0.10059790858E+03  0.79460739852E+02 0.  0.
         -6    2    1    2    0  502  0.94214497389E+02 -0.34758390409E+02  0.79647120936E+03  0.82213024890E+03  0.17733370123E+03 0.  0.
        -24    2    5    5    0    0  0.96484070608E+02 -0.15687288690E+02  0.37123050263E+03  0.39643011202E+03  0.98941804719E+02 0.  0.
          5    1    3    3  501    0 -0.51488201040E+02  0.72959313823E+02  0.95463595819E+02  0.13080322797E+03  0.47000000000E+01 0. -1.
        -11    1    4    4    0    0 -0.38968002106E+02  0.16983520085E+02  0.12712890965E+02  0.44368488134E+02  0.00000000000E+00 0.  1.
         12    1    4    4    0    0 -0.37582942435E+01 -0.55184443500E+02  0.10114353376E+02  0.56229420450E+02  0.00000000000E+00 0. -1.
         -5    1    5    5    0  502 -0.22695732186E+01 -0.19071101719E+02  0.42524070673E+03  0.42570013688E+03  0.47000000000E+01 0.  1.
         13    1    6    6    0    0 -0.13361771009E+02  0.11689653562E+02  0.17116387242E+02  0.24660811769E+02  0.00000000000E+00 0. -1.
        -14    1    6    6    0    0  0.10984584162E+03 -0.27376942253E+02  0.35411411539E+03  0.37176930025E+03  0.00000000000E+00 0.  1.
</event>
<event>
12    1  0.8331241E-002  0.3541572E+03  0.7818608E-02  0.1060948E+00
         21   -1    0    0  501  502  0.00000000000E+00  0.00000000000E+00  0.21012587437E+03  0.21012587437E+03  0.00000000000E+00 0. -1.
         21   -1    0    0  502  503 -0.00000000000E+00 -0.00000000000E+00 -0.59899235920E+03  0.59899235920E+03  0.00000000000E+00 0.  1.
         -6    2    1    2    0  503  0.28922304279E+03 -0.11035794953E+03 -0.16813658333E+03  0.39180662269E+03  0.17150414986E+03 0.  0.
        -24    2    3    3    0    0  0.18219481314E+03 -0.68585668308E+02 -0.17874426188E+03  0.27633117826E+03  0.80687453133E+02 0.  0.
          6    2    1    2  501    0 -0.28922304279E+03  0.11035794953E+03 -0.22072990150E+03  0.41731161088E+03  0.17204198805E+03 0.  0.
         24    2    5    5    0    0 -0.23684492560E+03  0.20583215442E+02 -0.15554424723E+03  0.29453445680E+03  0.77700359439E+02 0.  0.
          5    1    5    5  501    0 -0.52378117195E+02  0.89774734086E+02 -0.65185654269E+02  0.12277715408E+03  0.47000000000E+01 0. -1.
        -11    1    6    6    0    0 -0.18392613740E+03 -0.16620862446E+02 -0.10497501190E+03  0.21242605822E+03  0.00000000000E+00 0.  1.
         12    1    6    6    0    0 -0.52918788200E+02  0.37204077888E+02 -0.50569235324E+02  0.82108398580E+02  0.00000000000E+00 0. -1.
         -5    1    3    3    0  503  0.10702822966E+03 -0.41772281220E+02  0.10607678545E+02  0.11547544443E+03  0.47000000000E+01 0.  1.
         13    1    4    4    0    0  0.10080422495E+03 -0.56914129630E+02 -0.56007442799E+02  0.12859838089E+03  0.00000000000E+00 0. -1.
        -14    1    4    4    0    0  0.81390588191E+02 -0.11671538678E+02 -0.12273681908E+03  0.14773279737E+03  0.00000000000E+00 0.  1.
</event>
<event>
12    1  0.8331241E-002  0.1982982E+03  0.7818608E-02  0.1151412E+00
         21   -1    0    0  501  502  0.00000000000E+00  0.00000000000E+00  0.76450618565E+03  0.76450618565E+03  0.00000000000E+00 0. -1.
         21   -1    0    0  502  503 -0.00000000000E+00 -0.00000000000E+00 -0.90361577192E+02  0.90361577192E+02  0.00000000000E+00 0. -1.
         -6    2    1    2    0  503 -0.53948311580E+02 -0.83604214655E+02  0.56046335955E+02  0.20606637670E+03  0.17152864135E+03 0.  0.
        -24    2    3    3    0    0 -0.94249540699E+02 -0.95068565217E+02  0.41579445364E+02  0.16149058366E+03  0.80183229657E+02 0.  0.
          6    2    1    2  501    0  0.53948311580E+02  0.83604214655E+02  0.61809827251E+03  0.64880138614E+03  0.17028704929E+03 0.  0.
         24    2    5    5    0    0 -0.81477617076E+01  0.59583105507E+02  0.52333199032E+03  0.53288903028E+03  0.80484868252E+02 0.  0.
          5    1    5    5  501    0  0.62096073287E+02  0.24021109147E+02  0.94766282186E+02  0.11591235586E+03  0.47000000000E+01 0. -1.
        -13    1    6    6    0    0 -0.20523878442E+02 -0.14619015688E+02  0.13837175693E+03  0.14064739002E+03  0.00000000000E+00 0.  1.
         14    1    6    6    0    0  0.12376116734E+02  0.74202121195E+02  0.38496023339E+03  0.39224164026E+03  0.00000000000E+00 0. -1.
         -5    1    3    3    0  503  0.40301229119E+02  0.11464350563E+02  0.14466890591E+02  0.44575793046E+02  0.47000000000E+01 0.  1.
         11    1    4    4    0    0 -0.45193620601E+02 -0.16266041345E+01  0.32247014896E+02  0.55542588648E+02  0.00000000000E+00 0. -1.
        -12    1    4    4    0    0 -0.49055920098E+02 -0.93441961083E+02  0.93324304678E+01  0.10594799501E+03  0.00000000000E+00 0.  1.
</event>
<event>
12    1  0.8331241E-002  0.1762496E+03  0.7818608E-02  0.1171553E+00
         21   -1    0    0  503  502  0.00000000000E+00  0.00000000000E+00  0.12466100969E+03  0.12466100969E+03  0.00000000000E+00 0. -1.
         21   -1    0    0  501  503 -0.00000000000E+00 -0.00000000000E+00 -0.57641183232E+03  0.57641183232E+03  0.00000000000E+00 0. -1.
          6    2    1    2  501    0 -0.28987212450E+02  0.17769243353E+02 -0.49022551632E+03  0.52094623968E+03  0.17293907395E+03 0.  0.
         24    2    3    3    0    0  0.49026766412E+01  0.66838823120E+02 -0.21213897190E+03  0.23649841595E+03  0.80231495275E+02 0.  0.
         -6    2    1    2    0  502  0.28987212450E+02 -0.17769243353E+02  0.38474693688E+02  0.18012660232E+03  0.17265366001E+03 0.  0.
        -24    2    5    5    0    0  0.50260048461E+02  0.32242225057E+02  0.66463187060E+02  0.11881488822E+03  0.78319786012E+02 0.  0.
          5    1    3    3  501    0 -0.33889889091E+02 -0.49069579767E+02 -0.27808654442E+03  0.28444782374E+03  0.47000000000E+01 0. -1.
        -13    1    4    4    0    0 -0.34276383332E+02  0.42179199392E+02 -0.14582516414E+03  0.15562433554E+03  0.00000000000E+00 0.  1.
         14    1    4    4    0    0  0.39179059973E+02  0.24659623728E+02 -0.66313807762E+02  0.80874080413E+02  0.00000000000E+00 0. -1.
         -5    1    5    5    0  502 -0.21272836011E+02 -0.50011468410E+02 -0.27988493371E+02  0.61311714098E+02  0.47000000000E+01 0.  1.
         13    1    6    6    0    0  0.51216493469E+02  0.52337842361E+02  0.34265626270E+02  0.80848698753E+02  0.00000000000E+00 0. -1.
        -14    1    6    6    0    0 -0.95644500851E+00 -0.20095617304E+02  0.32197560790E+02  0.37966189468E+02  0.00000000000E+00 0.  1.
</event>
<event>
12    1  0.8331241E-002  0.1927320E+03  0.7818608E-02  0.1159036E+00
         21   -1    0    0  501  502  0.00000000000E+00  0.00000000000E+00  0.14180910808E+03  0.14180910808E+03  0.00000000000E+00 0. -1.
         21   -1    0    0  502  503 -0.00000000000E+00 -0.00000000000E+00 -0.36934177311E+03  0.36934177311E+03  0.00000000000E+00 0. -1.
         -6    2    1    2    0  503  0.31560901263E+02  0.85059184460E+02 -0.26499982486E+03  0.32767441206E+03  0.17004251760E+03 0.  0.
        -24    2    3    3    0    0  0.66054591204E+01 -0.10431895656E+02 -0.18008010456E+03  0.19738715493E+03  0.79877333060E+02 0.  0.
          6    2    1    2  501    0 -0.31560901263E+02 -0.85059184460E+02  0.37467159830E+02  0.18347646913E+03  0.15501184249E+03 0.  0.
         24    2    5    5    0    0  0.21576054619E+02 -0.61173873463E+02 -0.15402347863E+02  0.10466454741E+03  0.80682502676E+02 0.  0.
          5    1    5    5  501    0 -0.53136955881E+02 -0.23885310996E+02  0.52869507693E+02  0.78811921721E+02  0.47000000000E+01 0. -1.
        -11    1    6    6    0    0  0.40041112176E+02 -0.45272221351E+00 -0.68185140634E+01  0.40620041307E+02  0.00000000000E+00 0.  1.
         12    1    6    6    0    0 -0.18465057558E+02 -0.60721151250E+02 -0.85838337991E+01  0.64044506106E+02  0.00000000000E+00 0. -1.
         -5    1    3    3    0  503  0.24955442142E+02  0.95491080116E+02 -0.84919720303E+02  0.13028725713E+03  0.47000000000E+01 0.  1.
         13    1    4    4    0    0  0.31224055480E+02 -0.34287001564E+02 -0.97125252377E+02  0.10762831768E+03  0.00000000000E+00 0. -1.
        -14    1    4    4    0    0 -0.24618596360E+02  0.23855105908E+02 -0.82954852180E+02  0.89758837252E+02  0.00000000000E+00 0.  1.
</event>
<event>
12    1  0.8331241E-002  0.1945923E+03  0.7818608E-02  0.1155296E+00
         21   -1    0    0  503  502  0.00000000000E+00  0.00000000000E+00  0.90214054671E+03  0.90214054671E+03  0.00000000000E+00 0. -1.
         21   -1    0    0  501  503 -0.00000000000E+00 -0.00000000000E+00 -0.42486828198E+02  0.42486828198E+02  0.00000000000E+00 0. -1.
          6    2    1    2  501    0  0.31937960928E+02  0.82815572317E+02  0.33967666611E+03  0.38943162791E+03  0.16851796034E+03 0.  0.
         24    2    3    3    0    0  0.85402254294E+02  0.52494002141E+02  0.24266131961E+03  0.27448861709E+03  0.80064471357E+02 0.  0.
         -6    2    1    2    0  502 -0.31937960928E+02 -0.82815572317E+02  0.51997705240E+03  0.55519574699E+03  0.17316965694E+03 0.  0.
        -24    2    5    5    0    0  0.36102485608E+02 -0.89139546619E+02  0.35708621922E+03  0.37848975232E+03  0.80589555280E+02 0.  0.
          5    1    3    3  501    0 -0.53464293366E+02  0.30321570175E+02  0.97015346493E+02  0.11494301083E+03  0.47000000000E+01 0. -1.
        -13    1    4    4    0    0  0.81883653309E+02  0.58978913630E+02  0.24636631168E+03  0.26623261345E+03  0.00000000000E+00 0.  1.
         14    1    4    4    0    0  0.35186009850E+01 -0.64849114883E+01 -0.37049920648E+01  0.82560036399E+01  0.00000000000E+00 0. -1.
         -5    1    5    5    0  502 -0.68040446535E+02  0.63239743021E+01  0.16289083318E+03  0.17670599467E+03  0.47000000000E+01 0.  1.
         13    1    6    6    0    0 -0.12550715672E+02 -0.72463902000E+02  0.22650099844E+03  0.23814121829E+03  0.00000000000E+00 0. -1.
        -14    1    6    6    0    0  0.48653201280E+02 -0.16675644619E+02  0.13058522078E+03  0.14034853403E+03  0.00000000000E+00 0.  1.
</event>
<event>
12    1  0.8331241E-002  0.3041115E+03  0.7818608E-02  0.1083295E+00
         21   -1    0    0  501  502  0.00000000000E+00  0.00000000000E+00  0.60089882932E+03  0.60089882932E+03  0.00000000000E+00 0. -1.
         21   -1    0    0  502  503 -0.00000000000E+00 -0.00000000000E+00 -0.23895597045E+03  0.23895597045E+03  0.00000000000E+00 0.  1.
         -6    2    1    2    0  503  0.24553137598E+03  0.42845570073E+02  0.43190604447E+03  0.52779924875E+03  0.17293876448E+03 0.  0.
        -24    2    3    3    0    0  0.20549220488E+03  0.69439243455E+02  0.25424408123E+03  0.34368998263E+03  0.80211573508E+02 0.  0.
          6    2    1    2  501    0 -0.24553137598E+03 -0.42845570073E+02 -0.69963185596E+02  0.31205555102E+03  0.17424815672E+03 0.  0.
         24    2    5    5    0    0 -0.24322891898E+03 -0.68899145452E+02 -0.34557516939E+02  0.26778658366E+03  0.81289809558E+02 0.  0.
          5    1    5    5  501    0 -0.23024569992E+01  0.26053575379E+02 -0.35405668657E+02  0.44268967362E+02  0.47000000000E+01 0. -1.
        -13    1    6    6    0    0 -0.15099450255E+03 -0.82890535663E+02 -0.21456147918E+02  0.17358152836E+03  0.00000000000E+00 0.  1.
         14    1    6    6    0    0 -0.92234416435E+02  0.13991390211E+02 -0.13101369022E+02  0.94205055307E+02  0.00000000000E+00 0. -1.
         -5    1    3    3    0  503  0.40039171108E+02 -0.26593673382E+02  0.17766196324E+03  0.18410926612E+03  0.47000000000E+01 0.  1.
         13    1    4    4    0    0  0.15657500989E+03  0.37026257755E+02  0.22885392468E+03  0.27975131157E+03  0.00000000000E+00 0. -1.
        -14    1    4    4    0    0  0.48917194987E+02  0.32412985700E+02  0.25390156553E+02  0.63938671062E+02  0.00000000000E+00 0.  1.
</event>
<event>
12    1  0.8331241E-002  0.1945356E+03  0.7818608E-02  0.1155137E+00
         21   -1    0    0  503  502  0.00000000000E+00  0.00000000000E+00  0.30364077060E+03  0.30364077060E+03  0.00000000000E+00 0. -1.
         21   -1    0    0  501  503 -0.00000000000E+00 -0.00000000000E+00 -0.17553858714E+03  0.17553858714E+03  0.00000000000E+00 0. -1.
          6    2    1    2  501    0 -0.28788213293E+02 -0.79776547325E+02 -0.67892455490E+02  0.20303088192E+03  0.17151995444E+03 0.  0.
         24    2    3    3    0    0 -0.70256802350E+02 -0.47605852857E+02 -0.89596683802E+02  0.14604175148E+03  0.78091561168E+02 0.  0.
         -6    2    1    2    0  502  0.28788213293E+02  0.79776547325E+02  0.19599463896E+03  0.27614847582E+03  0.17507433699E+03 0.  0.
        -24    2    5    5    0    0  0.62972876060E+02  0.10828705145E+03  0.16899496964E+03  0.22387503939E+03  0.76609822258E+02 0.  0.
          5    1    3    3  501    0  0.41468589058E+02 -0.32170694468E+02  0.21704228312E+02  0.56989130434E+02  0.47000000000E+01 0. -1.
        -11    1    4    4    0    0 -0.36692232636E+02  0.11774440813E+02 -0.74170614076E+01  0.39242453952E+02  0.00000000000E+00 0.  1.
         12    1    4    4    0    0 -0.33564569714E+02 -0.59380293670E+02 -0.82179622395E+02  0.10679929753E+03  0.00000000000E+00 0. -1.
         -5    1    5    5    0  502 -0.34184662767E+02 -0.28510504122E+02  0.26999669314E+02  0.52273436436E+02  0.47000000000E+01 0.  1.
         13    1    6    6    0    0  0.89971926065E+01  0.53615635529E+01 -0.72660222263E+01  0.12747192535E+02  0.00000000000E+00 0. -1.
        -14    1    6    6    0    0  0.53975683453E+02  0.10292548789E+03  0.17626099187E+03  0.21112784685E+03  0.00000000000E+00 0.  1.
</event>
<event>
12    1  0.8331241E-002  0.1858778E+03  0.7818608E-02  0.1162365E+00
         21   -1    0    0  503  502  0.00000000000E+00  0.00000000000E+00  0.59790489736E+03  0.59790489736E+03  0.00000000000E+00 0.  1.
         21   -1    0    0  501  503 -0.00000000000E+00 -0.00000000000E+00 -0.66535796183E+02  0.66535796183E+02  0.00000000000E+00 0.  1.
          6    2    1    2  501    0 -0.39717189693E+02 -0.59652729004E+02  0.14434823081E+03  0.23534440009E+03  0.17150706015E+03 0.  0.
         24    2    3    3    0    0 -0.84176812767E+02 -0.75354651328E+02  0.10860004593E+03  0.17598758775E+03  0.80084966021E+02 0.  0.
         -6    2    1    2    0  502  0.39717189693E+02  0.59652729004E+02  0.38702087036E+03  0.42909629345E+03  0.17088759968E+03 0.  0.
        -24    2    5    5    0    0  0.15924757816E+02 -0.36295282508E+02  0.17477619313E+03  0.19491261823E+03  0.76637233874E+02 0.  0.
          5    1    3    3  501    0  0.44459623073E+02  0.15701922323E+02  0.35748184885E+02  0.59356812339E+02  0.47000000000E+01 0. -1.
        -11    1    4    4    0    0 -0.29112494750E+02 -0.57805664949E+01 -0.67710299753E+01  0.30443376069E+02  0.00000000000E+00 0.  1.
         12    1    4    4    0    0 -0.55064318017E+02 -0.69574084833E+02  0.11537107591E+03  0.14554421168E+03  0.00000000000E+00 0. -1.
         -5    1    5    5    0  502  0.23792431878E+02  0.95948011512E+02  0.21224467722E+03  0.23418367522E+03  0.47000000000E+01 0.  1.
         13    1    6    6    0    0  0.45157037504E+02 -0.16869312744E+02  0.75122964376E+02  0.89259125725E+02  0.00000000000E+00 0. -1.
        -14    1    6    6    0    0 -0.29232279688E+02 -0.19425969764E+02  0.99653228758E+02  0.10565349251E+03  0.00000000000E+00 0.  1.
</event>
<event>
12    1  0.8331241E-002  0.3663301E+03  0.7818608E-02  0.1056174E+00
         21   -1    0    0  501  502  0.00000000000E+00  0.00000000000E+00  0.40349252263E+03  0.40349252263E+03  0.00000000000E+00 0.  1.
         21   -1    0    0  502  503 -0.00000000000E+00 -0.00000000000E+00 -0.37653108750E+03  0.37653108750E+03  0.00000000000E+00 0. -1.
         -6    2    1    2    0  503 -0.21715339416E+03 -0.23911698020E+03 -0.12071046946E+03  0.38570555561E+03  0.17281559934E+03 0.  0.
        -24    2    3    3    0    0 -0.96742606991E+02 -0.20505956432E+03 -0.74032557125E+02  0.25206580574E+03  0.81534005072E+02 0.  0.
          6    2    1    2  501    0  0.21715339416E+03  0.23911698020E+03  0.14767190459E+03  0.39431805453E+03  0.17131027380E+03 0.  0.
         24    2    5    5    0    0  0.23032653390E+03  0.17600265204E+03  0.11328562687E+03  0.32109608976E+03  0.79005188828E+02 0.  0.
          5    1    5    5  501    0 -0.13173139733E+02  0.63114328162E+02  0.34386277724E+02  0.73221964775E+02  0.47000000000E+01 0. -1.
        -13    1    6    6    0    0  0.16700011523E+03  0.81223529141E+02  0.59083621434E+02  0.19487733192E+03  0.00000000000E+00 0.  1.
         14    1    6    6    0    0  0.63326418666E+02  0.94779122894E+02  0.54202005432E+02  0.12621875784E+03  0.00000000000E+00 0. -1.
         -5    1    3    3    0  503 -0.12041078717E+03 -0.34057415873E+02 -0.46677912333E+02  0.13363974986E+03  0.47000000000E+01 0.  1.
         13    1    4    4    0    0  0.13287872919E+02 -0.39450843348E+02 -0.19011954961E+02  0.45764517249E+02  0.00000000000E+00 0. -1.
        -14    1    4    4    0    0 -0.11003047991E+03 -0.16560872098E+03 -0.55020602164E+02  0.20630128850E+03  0.00000000000E+00 0.  1.
</event>
<event>
12    1  0.8331241E-002  0.1906097E+03  0.7818608E-02  0.1158110E+00
         21   -1    0    0  503  502  0.00000000000E+00  0.00000000000E+00  0.20078107638E+03  0.20078107638E+03  0.00000000000E+00 0.  1.
         21   -1    0    0  501  503 -0.00000000000E+00 -0.00000000000E+00 -0.47812940165E+03  0.47812940165E+03  0.00000000000E+00 0.  1.
          6    2    1    2  501    0  0.33726209942E+02 -0.74750698814E+02 -0.40678675605E+03  0.44922992584E+03  0.17206666488E+03 0.  0.
         24    2    3    3    0    0  0.24232206206E+02 -0.20646548003E+02 -0.37862999217E+03  0.38732444471E+03  0.75140366886E+02 0.  0.
         -6    2    1    2    0  502 -0.33726209942E+02  0.74750698814E+02  0.12943843078E+03  0.22968055219E+03  0.17109565886E+03 0.  0.
        -24    2    5    5    0    0  0.47120820295E+02  0.36322452149E+02  0.89296884469E+02  0.13146443243E+03  0.75955718572E+02 0.  0.
          5    1    3    3  501    0  0.94940037363E+01 -0.54104150812E+02 -0.28156763877E+02  0.61905481131E+02  0.47000000000E+01 0. -1.
        -11    1    4    4    0    0  0.22725347840E+02 -0.35018773832E+02 -0.10058376770E+03  0.10890293973E+03  0.00000000000E+00 0.  1.
         12    1    4    4    0    0  0.15068583665E+01  0.14372225830E+02 -0.27804622447E+03  0.27842150499E+03  0.00000000000E+00 0. -1.
         -5    1    5    5    0  502 -0.80847030238E+02  0.38428246665E+02  0.40141546308E+02  0.98216119756E+02  0.47000000000E+01 0.  1.
         13    1    6    6    0    0  0.55964800938E+00 -0.17724369887E+02  0.74024610449E+00  0.17748646655E+02  0.00000000000E+00 0. -1.
        -14    1    6    6    0    0  0.46561172286E+02  0.54046822037E+02  0.88556638364E+02  0.11371578578E+03  0.00000000000E+00 0.  1.
</event>
<event>
12    1  0.8331241E-002  0.1826553E+03  0.7818608E-02  0.1166164E+00
         21   -1    0    0  503  502  0.00000000000E+00  0.00000000000E+00  0.15804832914E+03  0.15804832914E+03  0.00000000000E+00 0.  1.
         21   -1    0    0  501  503 -0.00000000000E+00 -0.00000000000E+00 -0.22618501841E+03  0.22618501841E+03  0.00000000000E+00 0. -1.
          6    2    1    2  501    0  0.19474506057E+02  0.56054150550E+02 -0.90700841568E+02  0.20393531413E+03  0.17274734588E+03 0.  0.
         24    2    3    3    0    0  0.45745105953E+02  0.15488202323E+02  0.51440419719E+01  0.96491969642E+02  0.83377094623E+02 0.  0.
         -6    2    1    2    0  502 -0.19474506057E+02 -0.56054150550E+02  0.22564152288E+02  0.18029803342E+03  0.16875104653E+03 0.  0.
        -24    2    5    5    0    0 -0.65106647811E+02 -0.74880353157E+02  0.13215685165E+02  0.12983812752E+03  0.82688222532E+02 0.  0.
          5    1    3    3  501    0 -0.26270599896E+02  0.40565948227E+02 -0.95844883540E+02  0.10744334449E+03  0.47000000000E+01 0. -1.
        -13    1    4    4    0    0  0.32430218272E+02  0.46611632998E+02 -0.12756289935E+02  0.58198679717E+02  0.00000000000E+00 0.  1.
         14    1    4    4    0    0  0.13314887682E+02 -0.31123430675E+02  0.17900331907E+02  0.38293289926E+02  0.00000000000E+00 0. -1.
         -5    1    5    5    0  502  0.45632141754E+02  0.18826202607E+02  0.93484671233E+01  0.50459905897E+02  0.47000000000E+01 0.  1.
         11    1    6    6    0    0 -0.38535918520E+02  0.36966154498E+00 -0.19976209147E+02  0.43407402569E+02  0.00000000000E+00 0. -1.
        -12    1    6    6    0    0 -0.26570729291E+02 -0.75250014702E+02  0.33191894312E+02  0.86430724952E+02  0.00000000000E+00 0.  1.
</event>
<event>
12    1  0.8331241E-002  0.3172120E+03  0.7818608E-02  0.1077008E+00
         21   -1    0    0  503  502  0.00000000000E+00  0.00000000000E+00  0.10042789380E+04  0.10042789380E+04  0.00000000000E+00 0. -1.
         21   -1    0    0  501  503 -0.00000000000E+00 -0.00000000000E+00 -0.16756119580E+03  0.16756119580E+03  0.00000000000E+00 0.  1.
          6    2    1    2  501    0  0.17601295095E+03  0.19915930283E+03  0.46109397967E+02  0.31996867307E+03  0.17207233467E+03 0.  0.
         24    2    3    3    0    0  0.12280933977E+03  0.83032396972E+02 -0.30556270611E+02  0.17091902615E+03  0.79392159226E+02 0.  0.
         -6    2    1    2    0  502 -0.17601295095E+03 -0.19915930283E+03  0.79060834428E+03  0.85187146078E+03  0.17314284518E+03 0.  0.
        -24    2    5    5    0    0 -0.58512270799E+02 -0.10364170018E+03  0.22740560540E+03  0.26864814392E+03  0.79329868343E+02 0.  0.
          5    1    3    3  501    0  0.53203611182E+02  0.11612690586E+03  0.76665668577E+02  0.14904964692E+03  0.47000000000E+01 0. -1.
        -13    1    4    4    0    0 -0.87415422677E+01 -0.16366596707E+01  0.53898586436E+01  0.10399220754E+02  0.00000000000E+00 0.  1.
         14    1    4    4    0    0  0.13155088204E+03  0.84669056643E+02 -0.35946129254E+02  0.16051980540E+03  0.00000000000E+00 0. -1.
         -5    1    5    5    0  502 -0.11750068015E+03 -0.95517602654E+02  0.56320273888E+03  0.58322331686E+03  0.47000000000E+01 0.  1.
         11    1    6    6    0    0 -0.25679051658E+02 -0.10179527532E+03  0.19983877469E+03  0.22573707635E+03  0.00000000000E+00 0. -1.
        -12    1    6    6    0    0 -0.32833219141E+02 -0.18464248598E+01  0.27566830718E+02  0.42911067567E+02  0.00000000000E+00 0.  1.
</event>
<event>
12    1  0.8331241E-002  0.1787184E+03  0.7818608E-02  0.1169892E+00
         21   -1    0    0  503  502  0.00000000000E+00  0.00000000000E+00  0.26817257143E+02  0.26817257143E+02  0.00000000000E+00 0. -1.
         21   -1    0    0  501  503 -0.00000000000E+00 -0.00000000000E+00 -0.25553403749E+04  0.25553403749E+04  0.00000000000E+00 0. -1.
          6    2    1    2  501    0  0.25179267664E+02  0.30480443137E+02 -0.22209874260E+04  0.22281663799E+04  0.17429061086E+03 0.  0.
         24    2    3    3    0    0 -0.27090173320E+02 -0.86615632160E+01 -0.61525194364E+03  0.62109677328E+03  0.80108348285E+02 0.  0.
         -6    2    1    2    0  502 -0.25179267664E+02 -0.30480443137E+02 -0.30753569179E+03  0.35399125219E+03  0.17078803229E+03 0.  0.
        -24    2    5    5    0    0 -0.57087831584E+02 -0.50288901423E+01 -0.91752391160E+02  0.13433137686E+03  0.79637348495E+02 0.  0.
          5    1    3    3  501    0  0.52269440984E+02  0.39142006353E+02 -0.16057354823E+04  0.16070696066E+04  0.47000000000E+01 0. -1.
        -13    1    4    4    0    0 -0.88415182085E+01  0.11026951747E+02 -0.16427549448E+02  0.21670959598E+02  0.00000000000E+00 0.  1.
         14    1    4    4    0    0 -0.18248655111E+02 -0.19688514963E+02 -0.59882439419E+03  0.59942581368E+03  0.00000000000E+00 0. -1.
         -5    1    5    5    0  502  0.31908563920E+02 -0.25451552994E+02 -0.21578330063E+03  0.21965987533E+03  0.47000000000E+01 0.  1.
         11    1    6    6    0    0 -0.12824851926E+01 -0.29508482641E+02 -0.77192007182E+01  0.30528370015E+02  0.00000000000E+00 0. -1.
        -12    1    6    6    0    0 -0.55805346392E+02  0.24479592499E+02 -0.84033190442E+02  0.10380300685E+03  0.00000000000E+00 0.  1.
</event>
<event>
12    1  0.8331241E-002  0.1911262E+03  0.7818608E-02  0.1157485E+00
         21   -1    0    0  501  502  0.00000000000E+00  0.00000000000E+00  0.83737047522E+02  0.83737047522E+02  0.00000000000E+00 0.  1.
         21   -1    0    0  502  503 -0.00000000000E+00 -0.00000000000E+00 -0.45577816576E+03  0.45577816576E+03  0.00000000000E+00 0. -1.
         -6    2    1    2    0  503  0.72674569759E+02  0.39982704821E+02 -0.24231168673E+03  0.30851961367E+03  0.17201508283E+03 0.  0.
        -24    2    3    3    0    0  0.11073450608E+03  0.47011678248E+02 -0.22144882415E+03  0.26430067819E+03  0.79643192102E+02 0.  0.
          6    2    1    2  501    0 -0.72674569759E+02 -0.39982704821E+02 -0.12972943152E+03  0.23099559962E+03  0.17218894234E+03 0.  0.
         24    2    5    5    0    0  0.53129710624E+00 -0.18383155059E+02 -0.41665779233E+01  0.83979411065E+02  0.81834946354E+02 0.  0.
          5    1    5    5  501    0 -0.73205866865E+02 -0.21599549762E+02 -0.12556285359E+03  0.14701618855E+03  0.47000000000E+01 0. -1.
        -11    1    6    6    0    0  0.33876599776E+02 -0.29702048860E+02 -0.14416410293E+02  0.47304001993E+02  0.00000000000E+00 0.  1.
         12    1    6    6    0    0 -0.33345302669E+02  0.11318893801E+02  0.10249832369E+02  0.36675409072E+02  0.00000000000E+00 0. -1.
         -5    1    3    3    0  503 -0.38059936318E+02 -0.70289734273E+01 -0.20862862579E+02  0.44218935479E+02  0.47000000000E+01 0.  1.
         11    1    4    4    0    0  0.38622774485E+01 -0.23172508011E+01 -0.80674766034E+02  0.80800400450E+02  0.00000000000E+00 0. -1.
        -12    1    4    4    0    0  0.10687222863E+03  0.49328929049E+02 -0.14077405811E+03  0.18350027774E+03  0.00000000000E+00 0.  1.
</event>
<event>
12    1  0.8331241E-002  0.1733707E+03  0.7818608E-02  0.1175139E+00
         21   -1    0    0  501  502  0.00000000000E+00  0.00000000000E+00  0.66447716280E+02  0.66447716280E+02  0.00000000000E+00 0.  1.
         21   -1    0    0  502  503 -0.00000000000E+00 -0.00000000000E+00 -0.66239639611E+03  0.66239639611E+03  0.00000000000E+00 0.  1.
         -6    2    1    2    0  503  0.74698526899E+01  0.79335352189E+01 -0.50864089375E+03  0.53737599896E+03  0.17302793353E+03 0.  0.
        -24    2    3    3    0    0 -0.33879964794E+02  0.49976535621E+02 -0.20608992454E+03  0.22909593106E+03  0.79789614032E+02 0.  0.
          6    2    1    2  501    0 -0.74698526899E+01 -0.79335352189E+01 -0.87307786080E+02  0.19146811343E+03  0.17005484195E+03 0.  0.
         24    2    5    5    0    0 -0.34389076625E+02  0.35905750016E+02 -0.45823786473E+00  0.90416336740E+02  0.75518689688E+02 0.  0.
          5    1    5    5  501    0  0.26919223935E+02 -0.43839285235E+02 -0.86849548216E+02  0.10105177669E+03  0.47000000000E+01 0. -1.
        -13    1    6    6    0    0  0.11228252891E+02  0.38844977440E+02  0.13486073902E+02  0.42624876827E+02  0.00000000000E+00 0.  1.
         14    1    6    6    0    0 -0.45617329515E+02 -0.29392274231E+01 -0.13944311766E+02  0.47791459913E+02  0.00000000000E+00 0. -1.
         -5    1    3    3    0  503  0.41349817484E+02 -0.42043000403E+02 -0.30255096922E+03  0.30828006790E+03  0.47000000000E+01 0.  1.
         11    1    4    4    0    0 -0.37030348306E+02  0.60902558350E+02 -0.10228428147E+03  0.12466933282E+03  0.00000000000E+00 0. -1.
        -12    1    4    4    0    0  0.31503835115E+01 -0.10926022729E+02 -0.10380564306E+03  0.10442659824E+03  0.00000000000E+00 0.  1.
</event>
<event>
12    1  0.8331241E-002  0.2110774E+03  0.7818608E-02  0.1140875E+00
         21   -1    0    0  501  502  0.00000000000E+00  0.00000000000E+00  0.31631044506E+03  0.31631044506E+03  0.00000000000E+00 0. -1.
         21   -1    0    0  502  503 -0.00000000000E+00 -0.00000000000E+00 -0.16545081884E+03  0.16545081884E+03  0.00000000000E+00 0. -1.
         -6    2    1    2    0  503  0.88420744714E+02  0.83369789555E+02 -0.18578873785E+02  0.21108975080E+03  0.17159533337E+03 0.  0.
        -24    2    3    3    0    0  0.10170206978E+03  0.53253652408E+02  0.39023937031E+02  0.14457998365E+03  0.78747961996E+02 0.  0.
          6    2    1    2  501    0 -0.88420744714E+02 -0.83369789555E+02  0.16943850000E+03  0.27067151310E+03  0.17258306062E+03 0.  0.
         24    2    5    5    0    0 -0.12000467051E+03 -0.97644608142E+02  0.15366702107E+03  0.23230297960E+03  0.80097006970E+02 0.  0.
          5    1    5    5  501    0  0.31583925799E+02  0.14274818587E+02  0.15771478938E+02  0.38368533494E+02  0.47000000000E+01 0. -1.
        -13    1    6    6    0    0 -0.25250857755E+01 -0.81741891527E+01 -0.91281321571E+01  0.12510644394E+02  0.00000000000E+00 0.  1.
         14    1    6    6    0    0 -0.11747958474E+03 -0.89470418989E+02  0.16279515322E+03  0.21979233521E+03  0.00000000000E+00 0. -1.
         -5    1    3    3    0  503 -0.13281325065E+02  0.30116137147E+02 -0.57602810817E+02  0.66509767148E+02  0.47000000000E+01 0.  1.
         13    1    4    4    0    0  0.71904235783E+01  0.32202113130E+02  0.34364312005E+02  0.47640153451E+02  0.00000000000E+00 0. -1.
        -14    1    4    4    0    0  0.94511646201E+02  0.21051539278E+02  0.46596250264E+01  0.96939830199E+02  0.00000000000E+00 0.  1.
</event>
<event>
12    1  0.8331241E-002  0.2612332E+03  0.7818608E-02  0.1106670E+00
         21   -1    0    0  501  502  0.00000000000E+00  0.00000000000E+00  0.85990268819E+03  0.85990268819E+03  0.00000000000E+00 0. -1.
         21   -1    0    0  502  503 -0.00000000000E+00 -0.00000000000E+00 -0.79849345617E+02  0.79849345617E+02  0.00000000000E+00 0.  1.
         -6    2    1    2    0  503 -0.18989660742E+03  0.47882220068E+02  0.33807287315E+03  0.42724235851E+03  0.17288532858E+03 0.  0.
        -24    2    3    3    0    0 -0.20495485431E+03  0.59621058215E+02  0.25298799640E+03  0.33991494373E+03  0.77318042922E+02 0.  0.
          6    2    1    2  501    0  0.18989660742E+03 -0.47882220068E+02  0.44198046942E+03  0.51250967530E+03  0.17019401696E+03 0.  0.
         24    2    5    5    0    0  0.62906827552E+02 -0.41415919391E+02  0.10454565993E+03  0.15188167043E+03  0.80409573250E+02 0.  0.
          5    1    5    5  501    0  0.12698977987E+03 -0.64663006774E+01  0.33743480950E+03  0.36062800487E+03  0.47000000000E+01 0. -1.
        -13    1    6    6    0    0  0.44004600220E+02 -0.39643957268E+02  0.11561635316E+03  0.12990453921E+03  0.00000000000E+00 0.  1.
         14    1    6    6    0    0  0.18902227332E+02 -0.17719621225E+01 -0.11070693235E+02  0.21977131218E+02  0.00000000000E+00 0. -1.
         -5    1    3    3    0  503  0.15058246890E+02 -0.11738838146E+02  0.85084876756E+02  0.87327414784E+02  0.47000000000E+01 0.  1.
         13    1    4    4    0    0 -0.22899465660E+02 -0.10411271076E+00  0.43141586542E+00  0.22903765774E+02  0.00000000000E+00 0. -1.
        -14    1    4    4    0    0 -0.18205538865E+03  0.59725170925E+02  0.25255658053E+03  0.31701117796E+03  0.00000000000E+00 0.  1.
</event>
<event>
12    1  0.8331241E-002  0.2831599E+03  0.7818608E-02  0.1094004E+00
         21   -1    0    0  503  502  0.00000000000E+00  0.00000000000E+00  0.25857738083E+03  0.25857738083E+03  0.00000000000E+00 0. -1.
         21   -1    0    0  501  503 -0.00000000000E+00 -0.00000000000E+00 -0.77692949025E+03  0.77692949025E+03  0.00000000000E+00 0.  1.
          6    2    1    2  501    0  0.20739394556E+03 -0.85528189063E+02 -0.66058544255E+03  0.71863174168E+03  0.17242718304E+03 0.  0.
         24    2    3    3    0    0  0.22195895217E+03 -0.50043886371E+02 -0.52722694263E+03  0.57978702750E+03  0.80091080670E+02 0.  0.
         -6    2    1    2    0  502 -0.20739394556E+03  0.85528189063E+02  0.14223333313E+03  0.31687512940E+03  0.17277791177E+03 0.  0.
        -24    2    5    5    0    0 -0.20243690018E+03  0.28548759599E+02  0.82982284870E+02  0.23438874021E+03  0.79096723729E+02 0.  0.
          5    1    3    3  501    0 -0.14565006606E+02 -0.35484302691E+02 -0.13335849992E+03  0.13884471418E+03  0.47000000000E+01 0. -1.
        -11    1    4    4    0    0  0.92921561734E+02 -0.39760275283E+02 -0.31876037272E+03  0.33440016648E+03  0.00000000000E+00 0.  1.
         12    1    4    4    0    0  0.12903739044E+03 -0.10283611088E+02 -0.20846656991E+03  0.24538686101E+03  0.00000000000E+00 0. -1.
         -5    1    5    5    0  502 -0.49570453822E+01  0.56979429464E+02  0.59251048264E+02  0.82486389188E+02  0.47000000000E+01 0.  1.
         13    1    6    6    0    0 -0.65662189658E+02  0.12142148550E+02 -0.10934618113E+02  0.67664767755E+02  0.00000000000E+00 0. -1.
        -14    1    6    6    0    0 -0.13677471052E+03  0.16406611049E+02  0.93916902983E+02  0.16672397245E+03  0.00000000000E+00 0.  1.
</event>
<event>
12    1  0.8331241E-002  0.2202881E+03  0.7818608E-02  0.1133806E+00
         21   -1    0    0  501  502  0.00000000000E+00  0.00000000000E+00  0.61970892188E+02  0.61970892188E+02  0.00000000000E+00 0.  1.
         21   -1    0    0  502  503 -0.00000000000E+00 -0.00000000000E+00 -0.85876623230E+03  0.85876623230E+03  0.00000000000E+00 0.  1.
         -6    2    1    2    0  503 -0.13495894203E+03  0.22738905977E+02 -0.53804028090E+03  0.58138988629E+03  0.17261483751E+03 0.  0.
        -24    2    3    3    0    0  0.20499011545E+01 -0.30729750646E+01 -0.16442784182E+03  0.18258414292E+03  0.79289399086E+02 0.  0.
          6    2    1    2  501    0  0.13495894203E+03 -0.22738905977E+02 -0.25875505921E+03  0.33934723819E+03  0.17167234350E+03 0.  0.
         24    2    5    5    0    0  0.10547404513E+02 -0.36958263169E+02 -0.73527227163E+02  0.11571392102E+03  0.80661622997E+02 0.  0.
          5    1    5    5  501    0  0.12441153752E+03  0.14219357192E+02 -0.18522783205E+03  0.22363331718E+03  0.47000000000E+01 0. -1.
        -13    1    6    6    0    0  0.23305763999E+02 -0.55702020442E+01  0.97024865267E+01  0.25851963778E+02  0.00000000000E+00 0.  1.
         14    1    6    6    0    0 -0.12758359486E+02 -0.31388061125E+02 -0.83229713690E+02  0.89861957239E+02  0.00000000000E+00 0. -1.
         -5    1    3    3    0  503 -0.13700884319E+03  0.25811881042E+02 -0.37361243908E+03  0.39880574337E+03  0.47000000000E+01 0.  1.
         13    1    4    4    0    0  0.17937575894E+02 -0.17206367097E+02 -0.15859969371E+03  0.16053559899E+03  0.00000000000E+00 0. -1.
        -14    1    4    4    0    0 -0.15887674739E+02  0.14133392032E+02 -0.58281481140E+01  0.22048543929E+02  0.00000000000E+00 0.  1.
</event>
<event>
12    1  0.8331241E-002  0.2256189E+03  0.7818608E-02  0.1130366E+00
         21   -1    0    0  503  502  0.00000000000E+00  0.00000000000E+00  0.22718738457E+03  0.22718738457E+03  0.00000000000E+00 0. -1.
         21   -1    0    0  501  503 -0.00000000000E+00 -0.00000000000E+00 -0.36073723286E+03  0.36073723286E+03  0.00000000000E+00 0. -1.
          6    2    1    2  501    0 -0.20766910201E+01 -0.13974491459E+03  0.11663039897E+03  0.25103585183E+03  0.17286814380E+03 0.  0.
         24    2    3    3    0    0 -0.13356618724E+02 -0.87458080646E+00  0.61229043391E+02  0.10102383040E+03  0.79231650228E+02 0.  0.
         -6    2    1    2    0  502  0.20766910201E+01  0.13974491459E+03 -0.25018024726E+03  0.33688876560E+03  0.17711840804E+03 0.  0.
        -24    2    5    5    0    0 -0.55621022532E+02  0.12605927587E+03 -0.21595766289E+03  0.26826225369E+03  0.79638466900E+02 0.  0.
          5    1    3    3  501    0  0.11279927703E+02 -0.13887033379E+03  0.55401355575E+02  0.15001202143E+03  0.47000000000E+01 0. -1.
        -11    1    4    4    0    0 -0.26705619147E+02 -0.54514658959E+01  0.75913148200E+02  0.80658010415E+02  0.00000000000E+00 0.  1.
         12    1    4    4    0    0  0.13349000423E+02  0.45768850895E+01 -0.14684104809E+02  0.20365819980E+02  0.00000000000E+00 0. -1.
         -5    1    5    5    0  502  0.57697713552E+02  0.13685638721E+02 -0.34222584368E+02  0.68626511911E+02  0.47000000000E+01 0.  1.
         13    1    6    6    0    0  0.17046975698E+02  0.53703842956E+02 -0.83908601929E+02  0.10107104237E+03  0.00000000000E+00 0. -1.
        -14    1    6    6    0    0 -0.72667998230E+02  0.72355432916E+02 -0.13204906096E+03  0.16719121131E+03  0.00000000000E+00 0.  1.
</event>
<event>
12    1  0.8331241E-002  0.2318097E+03  0.7818608E-02  0.1125810E+00
         21   -1    0    0  503  502  0.00000000000E+00  0.00000000000E+00  0.10689370066E+04  0.10689370066E+04  0.00000000000E+00 0. -1.
         21   -1    0    0  501  503 -0.00000000000E+00 -0.00000000000E+00 -0.51719462931E+02  0.51719462931E+02  0.00000000000E+00 0.  1.
          6    2    1    2  501    0  0.14842729110E+03  0.40261703622E+02  0.39606964370E+03  0.45766292485E+03  0.17009563368E+03 0.  0.
         24    2    3    3    0    0  0.31964354032E+02 -0.88694699028E+01  0.24573511120E+03  0.26119397161E+03  0.82074103750E+02 0.  0.
         -6    2    1    2    0  502 -0.14842729110E+03 -0.40261703622E+02  0.62114789997E+03  0.66299354469E+03  0.17344757460E+03 0.  0.
        -24    2    5    5    0    0 -0.92305052061E+02  0.39775280611E+02  0.27492109352E+03  0.30320094323E+03  0.79037388158E+02 0.  0.
          5    1    3    3  501    0  0.11646293707E+03  0.49131173525E+02  0.15033453250E+03  0.19646895324E+03  0.47000000000E+01 0. -1.
        -11    1    4    4    0    0  0.41567485123E+02 -0.14995762668E+02  0.57036473039E+02  0.72151839714E+02  0.00000000000E+00 0.  1.
         12    1    4    4    0    0 -0.96031310905E+01  0.61262927650E+01  0.18869863816E+03  0.18904213190E+03  0.00000000000E+00 0. -1.
         -5    1    5    5    0  502 -0.56122239040E+02 -0.80036984233E+02  0.34622680645E+03  0.35979260146E+03  0.47000000000E+01 0.  1.
         11    1    6    6    0    0  0.83896639610E+01 -0.10871687144E+02  0.46477667951E+02  0.48463941863E+02  0.00000000000E+00 0. -1.
        -12    1    6    6    0    0 -0.10069471602E+03  0.50646967755E+02  0.22844342557E+03  0.25473700136E+03  0.00000000000E+00 0.  1.
</event>
<event>
12    1  0.8331241E-002  0.1946564E+03  0.7818608E-02  0.1155455E+00
         21   -1    0    0  501  502  0.00000000000E+00  0.00000000000E+00  0.55327006883E+03  0.55327006883E+03  0.00000000000E+00 0. -1.
         21   -1    0    0  502  503 -0.00000000000E+00 -0.00000000000E+00 -0.10165297872E+03  0.10165297872E+03  0.00000000000E+00 0.  1.
         -6    2    1    2    0  503 -0.47110514079E+02  0.79219908410E+02  0.31856989809E+02  0.19222482026E+03  0.16565119769E+03 0.  0.
        -24    2    3    3    0    0 -0.49969444958E+02 -0.59913073617E+01 -0.13049163905E+02  0.95747997026E+02  0.80402469257E+02 0.  0.
          6    2    1    2  501    0  0.47110514079E+02 -0.79219908410E+02  0.41976010031E+03  0.46269822729E+03  0.17145236454E+03 0.  0.
         24    2    5    5    0    0  0.86366105771E+02 -0.34492390060E+02  0.19931094477E+03  0.23430936471E+03  0.80791066872E+02 0.  0.
          5    1    5    5  501    0 -0.39255591693E+02 -0.44727518350E+02  0.22044915554E+03  0.22838886259E+03  0.47000000000E+01 0. -1.
        -13    1    6    6    0    0  0.60990876030E+02 -0.25083338108E+02  0.50512241609E+02  0.83069533296E+02  0.00000000000E+00 0.  1.
         14    1    6    6    0    0  0.25375229741E+02 -0.94090519521E+01  0.14879870316E+03  0.15123983141E+03  0.00000000000E+00 0. -1.
         -5    1    3    3    0  503  0.28589308792E+01  0.85211215772E+02  0.44906153713E+02  0.96476823229E+02  0.47000000000E+01 0.  1.
         11    1    4    4    0    0 -0.64245250972E+02 -0.90591938155E+00  0.13054303101E+02  0.65564378986E+02  0.00000000000E+00 0. -1.
        -12    1    4    4    0    0  0.14275806015E+02 -0.50853879801E+01 -0.26103467005E+02  0.30183618040E+02  0.00000000000E+00 0.  1.
</event>
<event>
12    1  0.8331241E-002  0.1821258E+03  0.7818608E-02  0.1166251E+00
         21   -1    0    0  501  502  0.00000000000E+00  0.00000000000E+00  0.34135947808E+02  0.34135947808E+02  0.00000000000E+00 0. -1.
         21   -1    0    0  502  503 -0.00000000000E+00 -0.00000000000E+00 -0.12317709281E+04  0.12317709281E+04  0.00000000000E+00 0. -1.
         -6    2    1    2    0  503 -0.54434146382E+02  0.66264615850E+01 -0.89829766672E+03  0.91657433644E+03  0.17367449411E+03 0.  0.
        -24    2    3    3    0    0 -0.26905865260E+02 -0.54788837036E+02 -0.70005990447E+03  0.70717055054E+03  0.79250081781E+02 0.  0.
          6    2    1    2  501    0  0.54434146382E+02 -0.66264615850E+01 -0.29933731354E+03  0.34933253943E+03  0.17153253203E+03 0.  0.
         24    2    5    5    0    0  0.97975844415E+02 -0.29950471788E+02 -0.19641214112E+03  0.23507156605E+03  0.78642324098E+02 0.  0.
          5    1    5    5  501    0 -0.43541698033E+02  0.23324010203E+02 -0.10292517242E+03  0.11426097338E+03  0.47000000000E+01 0. -1.
        -11    1    6    6    0    0 -0.29736037386E+01 -0.12346700467E+02 -0.75574568970E+02  0.76634188236E+02  0.00000000000E+00 0.  1.
         12    1    6    6    0    0  0.10094944815E+03 -0.17603771322E+02 -0.12083757215E+03  0.15843737782E+03  0.00000000000E+00 0. -1.
         -5    1    3    3    0  503 -0.27528281122E+02  0.61415298621E+02 -0.19823776225E+03  0.20940378590E+03  0.47000000000E+01 0.  1.
         13    1    4    4    0    0 -0.93663262594E+01 -0.46442656836E+02 -0.66805228995E+03  0.66973017743E+03  0.00000000000E+00 0. -1.
        -14    1    4    4    0    0 -0.17539539001E+02 -0.83461802003E+01 -0.32007614514E+02  0.37440373117E+02  0.00000000000E+00 0.  1.
</event>
<event>
12    1  0.8331241E-002  0.1804454E+03  0.7818608E-02  0.1168261E+00
         21   -1    0    0  501  502  0.00000000000E+00  0.00000000000E+00  0.20527988237E+03  0.20527988237E+03  0.00000000000E+00 0.  1.
         21   -1    0    0  502  503 -0.00000000000E+00 -0.00000000000E+00 -0.15668874157E+03  0.15668874157E+03  0.00000000000E+00 0.  1.
         -6    2    1    2    0  503  0.19513167072E+02 -0.42491368289E+02  0.83215321433E+01  0.18063716755E+03  0.17428212282E+03 0.  0.
        -24    2    3    3    0    0 -0.43406792189E+02 -0.14420095546E+02  0.43608163024E+02  0.10308619111E+03  0.81443244977E+02 0.  0.
          6    2    1    2  501    0 -0.19513167072E+02  0.42491368289E+02  0.40269608653E+02  0.18133145639E+03  0.17050857934E+03 0.  0.
         24    2    5    5    0    0  0.34511045411E+02 -0.23337698538E+02 -0.12925062141E+02  0.80813574528E+02  0.68030259211E+02 0.  0.
          5    1    5    5  501    0 -0.54024212483E+02  0.65829066827E+02  0.53194670794E+02  0.10051788187E+03  0.47000000000E+01 0. -1.
        -13    1    6    6    0    0 -0.40344445451E+01 -0.51872718806E+00 -0.31906156245E+02  0.32164399995E+02  0.00000000000E+00 0.  1.
         14    1    6    6    0    0  0.38545489956E+02 -0.22818971350E+02  0.18981094104E+02  0.48649174534E+02  0.00000000000E+00 0. -1.
         -5    1    3    3    0  503  0.62919959261E+02 -0.28071272743E+02 -0.35286630881E+02  0.77550976433E+02  0.47000000000E+01 0.  1.
         11    1    4    4    0    0 -0.41033827367E+02 -0.40585119506E+02  0.49645692330E+02  0.76128980557E+02  0.00000000000E+00 0. -1.
        -12    1    4    4    0    0 -0.23729648218E+01  0.26165023960E+02 -0.60375293060E+01  0.26957210557E+02  0.00000000000E+00 0.  1.
</event>
<event>
12    1  0.8331241E-002  0.1766725E+03  0.7818608E-02  0.1171614E+00
         21   -1    0    0  503  502  0.00000000000E+00  0.00000000000E+00  0.32652834165E+03  0.32652834165E+03  0.00000000000E+00 0. -1.
         21   -1    0    0  501  503 -0.00000000000E+00 -0.00000000000E+00 -0.18066712395E+03  0.18066712395E+03  0.00000000000E+00 0. -1.
          6    2    1    2  501    0  0.16269492390E+02  0.22805307287E+02 -0.10254445357E+03  0.20237004721E+03  0.17220189495E+03 0.  0.
         24    2    3    3    0    0 -0.39377519337E+02  0.51646297831E+02 -0.27383128250E+02  0.10439195030E+03  0.77005937863E+02 0.  0.
         -6    2    1    2    0  502 -0.16269492390E+02 -0.22805307287E+02  0.24840567126E+03  0.30482541839E+03  0.17443732330E+03 0.  0.
        -24    2    5    5    0    0 -0.52282190149E+02  0.25399532224E+02  0.21434677664E+03  0.23552376434E+03  0.78411346546E+02 0.  0.
          5    1    3    3  501    0  0.55647011727E+02 -0.28840990544E+02 -0.75161325317E+02  0.97978096905E+02  0.47000000000E+01 0. -1.
        -13    1    4    4    0    0  0.13224607714E+02  0.24132427011E+02 -0.35021231434E+02  0.44539318964E+02  0.00000000000E+00 0.  1.
         14    1    4    4    0    0 -0.52602127051E+02  0.27513870819E+02  0.76381031838E+01  0.59852631337E+02  0.00000000000E+00 0. -1.
         -5    1    5    5    0  502  0.36012697759E+02 -0.48204839512E+02  0.34058894616E+02  0.69301654055E+02  0.47000000000E+01 0.  1.
         13    1    6    6    0    0 -0.71790541565E+02  0.24259543233E+02  0.14676987267E+03  0.16517809425E+03  0.00000000000E+00 0. -1.
        -14    1    6    6    0    0  0.19508351416E+02  0.11399889912E+01  0.67576903974E+02  0.70345670092E+02  0.00000000000E+00 0.  1.
</event>
<event>
12    1  0.8331241E-002  0.1876666E+03  0.7818608E-02  0.1160841E+00
         21   -1    0    0  501  502  0.00000000000E+00  0.00000000000E+00  0.70696755040E+02  0.70696755040E+02  0.00000000000E+00 0.  1.
         21   -1    0    0  502  503 -0.00000000000E+00 -0.00000000000E+00 -0.62546685019E+03  0.62546685019E+03  0.00000000000E+00 0.  1.
         -6    2    1    2    0  503  0.70757893364E+02  0.22349217196E+02 -0.43689900059E+03  0.47549918492E+03  0.17237334816E+03 0.  0.
        -24    2    3    3    0    0  0.59980298305E+02  0.60913309931E+01 -0.11238244341E+03  0.15036296531E+03  0.79652164126E+02 0.  0.
          6    2    1    2  501    0 -0.70757893364E+02 -0.22349217196E+02 -0.11787109455E+03  0.22066442031E+03  0.17115205075E+03 0.  0.
         24    2    5    5    0    0 -0.49621853863E+02  0.36150367223E+02 -0.16468064557E+02  0.10161149915E+03  0.79274978266E+02 0.  0.
          5    1    5    5  501    0 -0.21136039501E+02 -0.58499584419E+02 -0.10140303000E+03  0.11905292115E+03  0.47000000000E+01 0. -1.
        -11    1    6    6    0    0 -0.23632064946E+02 -0.21823265446E+02 -0.20175296371E+02  0.37970672789E+02  0.00000000000E+00 0.  1.
         12    1    6    6    0    0 -0.25989788917E+02  0.57973632669E+02  0.37072318143E+01  0.63640826366E+02  0.00000000000E+00 0. -1.
         -5    1    3    3    0  503  0.10777595059E+02  0.16257886203E+02 -0.32451655718E+03  0.32513621961E+03  0.47000000000E+01 0.  1.
         13    1    4    4    0    0  0.19814816093E+02 -0.10278354428E+02  0.69610829276E+01  0.23382219357E+02  0.00000000000E+00 0. -1.
        -14    1    4    4    0    0  0.40165482212E+02  0.16369685421E+02 -0.11934352634E+03  0.12698074595E+03  0.00000000000E+00 0.  1.
</event>
<event>
12    1  0.8331241E-002  0.1866649E+03  0.7818608E-02  0.1161979E+00
         21   -1    0    0  501  502  0.00000000000E+00  0.00000000000E+00  0.84118735747E+03  0.84118735747E+03  0.00000000000E+00 0. -1.
         21   -1    0    0  502  503 -0.00000000000E+00 -0.00000000000E+00 -0.57896374209E+02  0.57896374209E+02  0.00000000000E+00 0. -1.
         -6    2    1    2    0  503  0.67988140203E+02  0.26276944149E+02  0.14704678412E+03  0.23602230643E+03  0.16961989095E+03 0.  0.
        -24    2    3    3    0    0  0.11244712713E+02  0.25422600181E+02  0.43147794727E+01  0.82350377893E+02  0.77396480884E+02 0.  0.
          6    2    1    2  501    0 -0.67988140203E+02 -0.26276944149E+02  0.63624419913E+03  0.66306142525E+03  0.17184559268E+03 0.  0.
         24    2    5    5    0    0 -0.27353551077E+02  0.24487157130E+02  0.16355235571E+03  0.18589496305E+03  0.80372424423E+02 0.  0.
          5    1    5    5  501    0 -0.40634589127E+02 -0.50764101279E+02  0.47269184343E+03  0.47716646220E+03  0.47000000000E+01 0. -1.
        -13    1    6    6    0    0  0.12809975380E+02  0.35923969533E+02  0.11840224022E+03  0.12439339832E+03  0.00000000000E+00 0.  1.
         14    1    6    6    0    0 -0.40163526457E+02 -0.11436812402E+02  0.45150115491E+02  0.61501564730E+02  0.00000000000E+00 0. -1.
         -5    1    3    3    0  503  0.56743427490E+02  0.85434396726E+00  0.14273200465E+03  0.15367192853E+03  0.47000000000E+01 0.  1.
         11    1    4    4    0    0  0.64100857527E+00  0.29577108036E+02  0.37211267027E+02  0.47538348788E+02  0.00000000000E+00 0. -1.
        -12    1    4    4    0    0  0.10603704138E+02 -0.41545078544E+01 -0.32896487555E+02  0.34812029105E+02  0.00000000000E+00 0.  1.
</event>
<event>
12    1  0.8331241E-002  0.2105119E+03  0.7818608E-02  0.1141441E+00
         21   -1    0    0  503  502  0.00000000000E+00  0.00000000000E+00  0.15919952495E+04  0.15919952495E+04  0.00000000000E+00 0.  1.
         21   -1    0    0  501  503 -0.00000000000E+00 -0.00000000000E+00 -0.79413358828E+02  0.79413358828E+02  0.00000000000E+00 0. -1.
          6    2    1    2  501    0 -0.98339927726E+02  0.70357082088E+02  0.80693891322E+02  0.22412891085E+03  0.17059133682E+03 0.  0.
         24    2    3    3    0    0 -0.25211069483E+02  0.89747118705E+02  0.82790946824E+02  0.14829823718E+03  0.80298710656E+02 0.  0.
         -6    2    1    2    0  502  0.98339927726E+02 -0.70357082088E+02  0.14318879993E+04  0.14472796975E+04  0.17232068844E+03 0.  0.
        -24    2    5    5    0    0  0.12699416834E+02  0.10681994116E+02  0.38007221378E+03  0.38886571148E+03  0.80537405551E+02 0.  0.
          5    1    3    3  501    0 -0.73128858243E+02 -0.19390036617E+02 -0.20970555018E+01  0.75830673673E+02  0.47000000000E+01 0. -1.
        -13    1    4    4    0    0 -0.26209027347E+02  0.59342251977E+02  0.95400218196E+02  0.11536731606E+03  0.00000000000E+00 0.  1.
         14    1    4    4    0    0  0.99795786462E+00  0.30404866728E+02 -0.12609271372E+02  0.32930921111E+02  0.00000000000E+00 0. -1.
         -5    1    5    5    0  502  0.85640510892E+02 -0.81039076205E+02  0.10518157855E+04  0.10584139860E+04  0.47000000000E+01 0.  1.
         13    1    6    6    0    0  0.38246222424E+02 -0.18845551512E+02  0.17591317826E+03  0.18100655963E+03  0.00000000000E+00 0. -1.
        -14    1    6    6    0    0 -0.25546805590E+02  0.29527545628E+02  0.20415903552E+03  0.20785915186E+03  0.00000000000E+00 0.  1.
</event>
<event>
12    1  0.8331241E-002  0.2113981E+03  0.7818608E-02  0.1140636E+00
         21   -1    0    0  503  502  0.00000000000E+00  0.00000000000E+00  0.15276685812E+03  0.15276685812E+03  0.00000000000E+00 0. -1.
         21   -1    0    0  501  503 -0.00000000000E+00 -0.00000000000E+00 -0.29405853720E+03  0.29405853720E+03  0.00000000000E+00 0.  1.
          6    2    1    2  501    0  0.14077130618E+02  0.12107021661E+03 -0.49236502341E+02  0.21705621385E+03  0.17272233164E+03 0.  0.
         24    2    3    3    0    0 -0.40268108798E+02  0.80479614955E+02 -0.81009395680E+02  0.14200550604E+03  0.74192671802E+02 0.  0.
         -6    2    1    2    0  502 -0.14077130618E+02 -0.12107021661E+03 -0.92055176739E+02  0.22976918148E+03  0.17164952151E+03 0.  0.
        -24    2    5    5    0    0 -0.14790076329E+02  0.15217767478E+01 -0.68070623545E+02  0.10476256597E+03  0.78233773254E+02 0.  0.
          5    1    3    3  501    0  0.54345239416E+02  0.40590601660E+02  0.31772893340E+02  0.75050707802E+02  0.47000000000E+01 0. -1.
        -11    1    4    4    0    0 -0.15240120154E+02  0.79916032840E+02 -0.32869453088E+02  0.87745282002E+02  0.00000000000E+00 0.  1.
         12    1    4    4    0    0 -0.25027988644E+02  0.56358211413E+00 -0.48139942593E+02  0.54260224043E+02  0.00000000000E+00 0. -1.
         -5    1    5    5    0  502  0.71294571074E+00 -0.12259199336E+03 -0.23984553194E+02  0.12500661551E+03  0.47000000000E+01 0.  1.
         13    1    6    6    0    0  0.33414612444E+01  0.35201418800E+02 -0.12920735068E+02  0.37646389515E+02  0.00000000000E+00 0. -1.
        -14    1    6    6    0    0 -0.18131537573E+02 -0.33679642053E+02 -0.55149888477E+02  0.67116176459E+02  0.00000000000E+00 0.  1.
</event>
<event>
12    1  0.8331241E-002  0.2131845E+03  0.7818608E-02  0.1139293E+00
         21   -1    0    0  503  502  0.00000000000E+00  0.00000000000E+00  0.77371902409E+03  0.77371902409E+03  0.00000000000E+00 0.  1.
         21   -1    0    0  501  503 -0.00000000000E+00 -0.00000000000E+00 -0.72002230315E+02  0.72002230315E+02  0.00000000000E+00 0.  1.
          6    2    1    2  501    0  0.10477659782E+03 -0.68954781683E+02  0.53527645079E+03  0.57616709955E+03  0.17237966952E+03 0.  0.
         24    2    3    3    0    0  0.67588477190E+02 -0.10008245643E+03  0.28333449471E+03  0.31955703021E+03  0.85167830380E+02 0.  0.
         -6    2    1    2    0  502 -0.10477659782E+03  0.68954781683E+02  0.16644034299E+03  0.26955415486E+03  0.17095074512E+03 0.  0.
        -24    2    5    5    0    0 -0.13004628924E+03  0.60081089702E+02  0.96401380868E+02  0.19442196516E+03  0.89358265542E+02 0.  0.
          5    1    3    3  501    0  0.37188120635E+02  0.31127674744E+02  0.25194195609E+03  0.25661006934E+03  0.47000000000E+01 0. -1.
        -13    1    4    4    0    0  0.37343156317E+02  0.55457030026E+01  0.78923507445E+02  0.87488205907E+02  0.00000000000E+00 0.  1.
         14    1    4    4    0    0  0.30245320874E+02 -0.10562815943E+03  0.20441098726E+03  0.23206882430E+03  0.00000000000E+00 0. -1.
         -5    1    5    5    0  502  0.25269691413E+02  0.88736919811E+01  0.70038962117E+02  0.75132189693E+02  0.47000000000E+01 0.  1.
         13    1    6    6    0    0 -0.84111101385E+01 -0.94503179468E+01 -0.11876043137E+02  0.17352108911E+02  0.00000000000E+00 0. -1.
        -14    1    6    6    0    0 -0.12163517910E+03  0.69531407648E+02  0.10827742401E+03  0.17706985625E+03  0.00000000000E+00 0.  1.
</event>
<event>
12    1  0.8331241E-002  0.1992802E+03  0.7818608E-02  0.1150365E+00
         21   -1    0    0  501  502  0.00000000000E+00  0.00000000000E+00  0.21682440682E+03  0.21682440682E+03  0.00000000000E+00 0.  1.
         21   -1    0    0  502  503 -0.00000000000E+00 -0.00000000000E+00 -0.19271244160E+03  0.19271244160E+03  0.00000000000E+00 0.  1.
         -6    2    1    2    0  503  0.44269652983E+02  0.89342538910E+02 -0.33719829728E+02  0.20211286248E+03  0.17254185240E+03 0.  0.
        -24    2    3    3    0    0  0.61730585811E+01 -0.78398304259E+00  0.26751979599E+02  0.86990882879E+02  0.82541044396E+02 0.  0.
          6    2    1    2  501    0 -0.44269652983E+02 -0.89342538910E+02  0.57831794952E+02  0.20742398594E+03  0.17244796897E+03 0.  0.
         24    2    5    5    0    0 -0.27465753712E+02 -0.27861034213E+02  0.97099411164E+02  0.13241477228E+03  0.81084964173E+02 0.  0.
          5    1    5    5  501    0 -0.16803899271E+02 -0.61481504697E+02 -0.39267616212E+02  0.75009213657E+02  0.47000000000E+01 0. -1.
        -13    1    6    6    0    0 -0.11577610984E+02 -0.51028597843E+02  0.31554775363E+02  0.61103704652E+02  0.00000000000E+00 0.  1.
         14    1    6    6    0    0 -0.15888142728E+02  0.23167563630E+02  0.65544635801E+02  0.71311067627E+02  0.00000000000E+00 0. -1.
         -5    1    3    3    0  503  0.38096594402E+02  0.90126521952E+02 -0.60471809327E+02  0.11512197960E+03  0.47000000000E+01 0.  1.
         11    1    4    4    0    0 -0.15061492683E+02  0.30400493253E+02  0.34597134870E+02  0.48456168783E+02  0.00000000000E+00 0. -1.
        -12    1    4    4    0    0  0.21234551265E+02 -0.31184476296E+02 -0.78451552708E+01  0.38534714096E+02  0.00000000000E+00 0.  1.
</event>
<event>
12    1  0.8331241E-002  0.2163541E+03  0.7818608E-02  0.1137101E+00
         21   -1    0    0  501  502  0.00000000000E+00  0.00000000000E+00  0.23624454963E+03  0.23624454963E+03  0.00000000000E+00 0.  1.
         21   -1    0    0  502  503 -0.00000000000E+00 -0.00000000000E+00 -0.59912286455E+03  0.59912286455E+03  0.00000000000E+00 0.  1.
         -6    2    1    2    0  503 -0.62825885173E+02 -0.11013784754E+03 -0.52375884865E+03  0.56575357395E+03  0.17226821411E+03 0.  0.
        -24    2    3    3    0    0  0.30729070636E+02 -0.52362553498E+02 -0.30166806587E+03  0.31788885247E+03  0.79772098953E+02 0.  0.
          6    2    1    2  501    0  0.62825885173E+02  0.11013784754E+03  0.16088053373E+03  0.26961384023E+03  0.17530441923E+03 0.  0.
         24    2    5    5    0    0  0.19241531394E+02 -0.76893585958E+01  0.27352096900E+02  0.86215967173E+02  0.79092939158E+02 0.  0.
          5    1    5    5  501    0  0.43584353779E+02  0.11782720613E+03  0.13352843683E+03  0.18339787305E+03  0.47000000000E+01 0. -1.
        -13    1    6    6    0    0  0.28654348281E+02  0.22032447637E+02  0.38777851060E+02  0.53011528530E+02  0.00000000000E+00 0.  1.
         14    1    6    6    0    0 -0.94128168871E+01 -0.29721806233E+02 -0.11425754159E+02  0.33204438643E+02  0.00000000000E+00 0. -1.
         -5    1    3    3    0  503 -0.93554955809E+02 -0.57775294038E+02 -0.22209078278E+03  0.24786472148E+03  0.47000000000E+01 0.  1.
         13    1    4    4    0    0  0.18006756364E+02 -0.10111851998E+01 -0.21900332200E+03  0.21974467188E+03  0.00000000000E+00 0. -1.
        -14    1    4    4    0    0  0.12722314272E+02 -0.51351368298E+02 -0.82664743864E+02  0.98144180595E+02  0.00000000000E+00 0.  1.
</event>
<event>
12    1  0.8331241E-002  0.1814005E+03  0.7818608E-02  0.1167598E+00
         21   -1    0    0  503  502  0.00000000000E+00  0.00000000000E+00  0.44081069557E+03  0.44081069557E+03  0.00000000000E+00 0. -1.
         21   -1    0    0  501  503 -0.00000000000E+00 -0.00000000000E+00 -0.41865021944E+03  0.41865021944E+03  0.00000000000E+00 0. -1.
          6    2    1    2  501    0 -0.39020895304E+02 -0.17065249273E+02 -0.37951530941E+03  0.42064001162E+03  0.17633007769E+03 0.  0.
         24    2    3    3    0    0  0.21204752084E+01 -0.68151047907E+02 -0.29576093193E+03  0.31415406449E+03  0.81050512851E+02 0.  0.
         -6    2    1    2    0  502  0.39020895304E+02  0.17065249273E+02  0.40167578554E+03  0.43882090340E+03  0.17148322241E+03 0.  0.
        -24    2    5    5    0    0  0.25613217041E+02  0.77571945143E+02  0.24741737346E+03  0.27251223321E+03  0.79838067360E+02 0.  0.
          5    1    3    3  501    0 -0.41141370512E+02  0.51085798634E+02 -0.83754377480E+02  0.10648594713E+03  0.47000000000E+01 0. -1.
        -13    1    4    4    0    0  0.23727401182E+02 -0.33096805569E+02 -0.47790888864E+02  0.62788192872E+02  0.00000000000E+00 0.  1.
         14    1    4    4    0    0 -0.21606925974E+02 -0.35054242338E+02 -0.24797004307E+03  0.25136587162E+03  0.00000000000E+00 0. -1.
         -5    1    5    5    0  502  0.13407678263E+02 -0.60506695870E+02  0.15425841208E+03  0.16630867019E+03  0.47000000000E+01 0.  1.
         11    1    6    6    0    0  0.41454203059E+02  0.62806641304E+02  0.23665135964E+03  0.24832839379E+03  0.00000000000E+00 0. -1.
        -12    1    6    6    0    0 -0.15840986018E+02  0.14765303840E+02  0.10766013816E+02  0.24183839418E+02  0.00000000000E+00 0.  1.
</event>
<event>
12    1  0.8331241E-002  0.2064085E+03  0.7818608E-02  0.1144734E+00
         21   -1    0    0  501  502  0.00000000000E+00  0.00000000000E+00  0.15688352451E+03  0.15688352451E+03  0.00000000000E+00 0. -1.
         21   -1    0    0  502  503 -0.00000000000E+00 -0.00000000000E+00 -0.26969278089E+03  0.26969278089E+03  0.00000000000E+00 0.  1.
         -6    2    1    2    0  503  0.85202711335E+02 -0.75616844166E+02 -0.57950492081E+02  0.21438919183E+03  0.17212511990E+03 0.  0.
        -24    2    3    3    0    0  0.70395151346E+02 -0.10034966510E+03  0.97442298983E+01  0.14066238770E+03  0.68303914067E+02 0.  0.
          6    2    1    2  501    0 -0.85202711335E+02  0.75616844166E+02 -0.54858764305E+02  0.21218711357E+03  0.17040093310E+03 0.  0.
         24    2    5    5    0    0 -0.62139052096E+02  0.73949571293E+02 -0.10083297689E+03  0.16051090629E+03  0.79162244278E+02 0.  0.
          5    1    5    5  501    0 -0.23063659239E+02  0.16672728733E+01  0.45974212583E+02  0.51676207281E+02  0.47000000000E+01 0. -1.
        -13    1    6    6    0    0 -0.59190567741E+02  0.53808938173E+02 -0.27787328159E+02  0.84682115839E+02  0.00000000000E+00 0.  1.
         14    1    6    6    0    0 -0.29484843545E+01  0.20140633120E+02 -0.73045648729E+02  0.75828790448E+02  0.00000000000E+00 0. -1.
         -5    1    3    3    0  503  0.14807559989E+02  0.24732820938E+02 -0.67694721979E+02  0.73726804136E+02  0.47000000000E+01 0.  1.
         11    1    4    4    0    0  0.75275790275E+01 -0.38168031168E+01  0.23192620032E+02  0.24680560285E+02  0.00000000000E+00 0. -1.
        -12    1    4    4    0    0  0.62867572319E+02 -0.96532861987E+02 -0.13448390134E+02  0.11598182741E+03  0.00000000000E+00 0.  1.
</event>
<event>
12    1  0.8331241E-002  0.1945797E+03  0.7818608E-02  0.1155222E+00
         21   -1    0    0  501  502  0.00000000000E+00  0.00000000000E+00  0.10571227926E+03  0.10571227926E+03  0.00000000000E+00 0. -1.
         21   -1    0    0  502  503 -0.00000000000E+00 -0.00000000000E+00 -0.37168190035E+03  0.37168190035E+03  0.00000000000E+00 0. -1.
         -6    2    1    2    0  503 -0.52491546044E+02 -0.74418687997E+02 -0.19010843861E+03  0.27203397765E+03  0.17195279304E+03 0.  0.
        -24    2    3    3    0    0 -0.52406375593E+02 -0.11993236914E+03 -0.14923725853E+03  0.21068215790E+03  0.70604609989E+02 0.  0.
          6    2    1    2  501    0  0.52491546044E+02  0.74418687997E+02 -0.75861182479E+02  0.20536020196E+03  0.16770327967E+03 0.  0.
         24    2    5    5    0    0 -0.15253220126E+01  0.12546025781E+02 -0.91145182924E+02  0.12168380723E+03  0.79622705318E+02 0.  0.
          5    1    5    5  501    0  0.54016868057E+02  0.61872662216E+02  0.15284000446E+02  0.83676394724E+02  0.47000000000E+01 0. -1.
        -13    1    6    6    0    0  0.82900525437E+01 -0.31628533847E+02 -0.23369711182E+02  0.40189955527E+02  0.00000000000E+00 0.  1.
         14    1    6    6    0    0 -0.98153745563E+01  0.44174559628E+02 -0.67775471742E+02  0.81493851706E+02  0.00000000000E+00 0. -1.
         -5    1    3    3    0  503 -0.85170451085E-01  0.45513681145E+02 -0.40871180082E+02  0.61351819751E+02  0.47000000000E+01 0.  1.
         11    1    4    4    0    0  0.14524595218E+02 -0.22813399523E+02 -0.48673789652E+02  0.55682608264E+02  0.00000000000E+00 0. -1.
        -12    1    4    4    0    0 -0.66930970811E+02 -0.97118969619E+02 -0.10056346888E+03  0.15499954963E+03  0.00000000000E+00 0.  1.
</event>
<event>
12    1  0.8331241E-002  0.1914103E+03  0.7818608E-02  0.1157488E+00
         21   -1    0    0  501  502  0.00000000000E+00  0.00000000000E+00  0.10678788904E+03  0.10678788904E+03  0.00000000000E+00 0.  1.
         21   -1    0    0  502  503 -0.00000000000E+00 -0.00000000000E+00 -0.43376030838E+03  0.43376030838E+03  0.00000000000E+00 0. -1.
         -6    2    1    2    0  503  0.78987059894E+02 -0.25692228811E+02 -0.28819617052E+03  0.34524971446E+03  0.17100083738E+03 0.  0.
        -24    2    3    3    0    0 -0.24018910805E+02 -0.16106158941E+01 -0.14468531820E+03  0.16690283668E+03  0.79644293147E+02 0.  0.
          6    2    1    2  501    0 -0.78987059894E+02  0.25692228811E+02 -0.38776248828E+02  0.19529848295E+03  0.17244956863E+03 0.  0.
         24    2    5    5    0    0 -0.50472084839E+02 -0.46985373594E+02 -0.46284540935E+02  0.11672620957E+03  0.82022512717E+02 0.  0.
          5    1    5    5  501    0 -0.28514975055E+02  0.72677602404E+02  0.75082921068E+01  0.78572273379E+02  0.47000000000E+01 0. -1.
        -13    1    6    6    0    0  0.12176246729E+02 -0.79546901879E+01 -0.40099336752E+02  0.42655537605E+02  0.00000000000E+00 0.  1.
         14    1    6    6    0    0 -0.62648331568E+02 -0.39030683406E+02 -0.61852041828E+01  0.74070671970E+02  0.00000000000E+00 0. -1.
         -5    1    3    3    0  503  0.10300597070E+03 -0.24081612917E+02 -0.14351085232E+03  0.17834687778E+03  0.47000000000E+01 0.  1.
         13    1    4    4    0    0 -0.11492935575E+02  0.38800691268E+02 -0.62301194649E+02  0.74290107455E+02  0.00000000000E+00 0. -1.
        -14    1    4    4    0    0 -0.12525975230E+02 -0.40411307162E+02 -0.82384123549E+02  0.92612729227E+02  0.00000000000E+00 0.  1.
</event>
<event>
12    1  0.8331241E-002  0.2257090E+03  0.7818608E-02  0.1129713E+00
         21   -1    0    0  503  502  0.00000000000E+00  0.00000000000E+00  0.28027690583E+03  0.28027690583E+03  0.00000000000E+00 0.  1.
         21   -1    0    0  501  503 -0.00000000000E+00 -0.00000000000E+00 -0.18678668971E+03  0.18678668971E+03  0.00000000000E+00 0.  1.
          6    2    1    2  501    0 -0.14622924553E+03  0.11499370303E+02  0.81693379978E+01  0.22576666460E+03  0.17143109694E+03 0.  0.
         24    2    3    3    0    0 -0.16567939431E+03 -0.18865044982E+01 -0.24698556101E+02  0.18502505940E+03  0.78555924864E+02 0.  0.
         -6    2    1    2    0  502  0.14622924553E+03 -0.11499370303E+02  0.85320878128E+02  0.24129693094E+03  0.17154978540E+03 0.  0.
        -24    2    5    5    0    0  0.12534734957E+03 -0.39554019918E+02  0.11674683624E+03  0.19404444119E+03  0.82139776296E+02 0.  0.
          5    1    3    3  501    0  0.19450148789E+02  0.13385874802E+02  0.32867894099E+02  0.40741605204E+02  0.47000000000E+01 0. -1.
        -13    1    4    4    0    0 -0.33441931438E+02 -0.11919017280E+02 -0.37683643597E+02  0.51773378739E+02  0.00000000000E+00 0.  1.
         14    1    4    4    0    0 -0.13223746288E+03  0.10032512782E+02  0.12985087496E+02  0.13325168066E+03  0.00000000000E+00 0. -1.
         -5    1    5    5    0  502  0.20881895959E+02  0.28054649614E+02 -0.31425958112E+02  0.47252489745E+02  0.47000000000E+01 0.  1.
         13    1    6    6    0    0  0.33718458805E+01 -0.10277435887E+02  0.51551655672E+02  0.52674170478E+02  0.00000000000E+00 0. -1.
        -14    1    6    6    0    0  0.12197550369E+03 -0.29276584031E+02  0.65195180568E+02  0.14137027071E+03  0.00000000000E+00 0.  1.
</event>
<event>
12    1  0.8331241E-002  0.2246433E+03  0.7818608E-02  0.1130568E+00
         21   -1    0    0  501  502  0.00000000000E+00  0.00000000000E+00  0.32442445801E+03  0.32442445801E+03  0.00000000000E+00 0. -1.
         21   -1    0    0  502  503 -0.00000000000E+00 -0.00000000000E+00 -0.27452702948E+03  0.27452702948E+03  0.00000000000E+00 0. -1.
         -6    2    1    2    0  503  0.54142239215E+02 -0.13375534360E+03 -0.17250174508E+03  0.28323395161E+03  0.17217068647E+03 0.  0.
        -24    2    3    3    0    0  0.96916596462E+02 -0.85542337019E+02 -0.14828564497E+03  0.21422200231E+03  0.84806342194E+02 0.  0.
          6    2    1    2  501    0 -0.54142239215E+02  0.13375534360E+03  0.22239917361E+03  0.31571753588E+03  0.17144764808E+03 0.  0.
         24    2    5    5    0    0 -0.25855621560E+02  0.10004394713E+03  0.53023475211E+02  0.14065523783E+03  0.79341681875E+02 0.  0.
          5    1    5    5  501    0 -0.28286617655E+02  0.33711396472E+02  0.16937569839E+03  0.17506229805E+03  0.47000000000E+01 0. -1.
        -11    1    6    6    0    0  0.16281230584E+02  0.74966196016E+02  0.49912378651E+02  0.91521880209E+02  0.00000000000E+00 0.  1.
         12    1    6    6    0    0 -0.42136852144E+02  0.25077751113E+02  0.31110965600E+01  0.49133357623E+02  0.00000000000E+00 0. -1.
         -5    1    3    3    0  503 -0.42774357247E+02 -0.48213006583E+02 -0.24216100109E+02  0.69011949300E+02  0.47000000000E+01 0.  1.
         11    1    4    4    0    0  0.33546135529E+02  0.12609912744E+02 -0.50174313570E+02  0.61658858655E+02  0.00000000000E+00 0. -1.
        -12    1    4    4    0    0  0.63370460933E+02 -0.98152249763E+02 -0.98111331398E+02  0.15256314365E+03  0.00000000000E+00 0.  1.
</event>
<event>
12    1  0.8331241E-002  0.2236326E+03  0.7818608E-02  0.1131691E+00
         21   -1    0    0  503  502  0.00000000000E+00  0.00000000000E+00  0.29333804737E+04  0.29333804737E+04  0.00000000000E+00 0. -1.
         21   -1    0    0  501  503 -0.00000000000E+00 -0.00000000000E+00 -0.61335537929E+02  0.61335537929E+02  0.00000000000E+00 0. -1.
          6    2    1    2  501    0  0.54718734486E+02  0.12887701396E+03  0.15842934576E+03  0.27190109089E+03  0.17095882837E+03 0.  0.
         24    2    3    3    0    0  0.13271509849E+02  0.81227226804E+02  0.17206006369E+03  0.20712253644E+03  0.80753230497E+02 0.  0.
         -6    2    1    2    0  502 -0.54718734486E+02 -0.12887701396E+03  0.27136155900E+04  0.27228149207E+04  0.17437917769E+03 0.  0.
        -24    2    5    5    0    0 -0.62741083396E+02 -0.79946604083E+02  0.98251270824E+03  0.99099569797E+03  0.80083384548E+02 0.  0.
          5    1    3    3  501    0  0.41447224636E+02  0.47649787157E+02 -0.13630717926E+02  0.64778554455E+02  0.47000000000E+01 0. -1.
        -11    1    4    4    0    0  0.37638446387E+01 -0.95283205719E+01  0.67796630424E+02  0.68566307442E+02  0.00000000000E+00 0.  1.
         12    1    4    4    0    0  0.95076652106E+01  0.90755547376E+02  0.10426343327E+03  0.13855622900E+03  0.00000000000E+00 0. -1.
         -5    1    5    5    0  502  0.80223489108E+01 -0.48930409878E+02  0.17311028818E+04  0.17318192228E+04  0.47000000000E+01 0.  1.
         13    1    6    6    0    0 -0.85502404036E+01 -0.28419886228E+02  0.78948133105E+02  0.84342185559E+02  0.00000000000E+00 0. -1.
        -14    1    6    6    0    0 -0.54190842993E+02 -0.51526717855E+02  0.90356457514E+03  0.90665351241E+03  0.00000000000E+00 0.  1.
</event>
<event>
12    1  0.8331241E-002  0.1805341E+03  0.7818608E-02  0.1171689E+00
         21   -1    0    0  501  502  0.00000000000E+00  0.00000000000E+00  0.11737008507E+03  0.11737008507E+03  0.00000000000E+00 0.  1.
         21   -1    0    0  502  503 -0.00000000000E+00 -0.00000000000E+00 -0.25268114101E+03  0.25268114101E+03  0.00000000000E+00 0.  1.
         -6    2    1    2    0  503  0.78548823754E+01  0.30799698807E+01 -0.82520906535E+02  0.19850004897E+03  0.18033686266E+03 0.  0.
        -24    2    3    3    0    0  0.45964769844E+02  0.22545296622E+02  0.12533479801E+02  0.94151168624E+02  0.78014767645E+02 0.  0.
          6    2    1    2  501    0 -0.78548823754E+01 -0.30799698807E+01 -0.52790149405E+02  0.17155117711E+03  0.16300865346E+03 0.  0.
         24    2    5    5    0    0 -0.17521461916E+02 -0.54515194085E+02 -0.64292434094E+02  0.11776067979E+03  0.80343964360E+02 0.  0.
          5    1    5    5  501    0  0.96665795402E+01  0.51435224204E+02  0.11502284689E+02  0.53790497321E+02  0.47000000000E+01 0. -1.
        -13    1    6    6    0    0 -0.16611242515E+02 -0.30296144523E+02  0.12878560425E+02  0.36873392433E+02  0.00000000000E+00 0.  1.
         14    1    6    6    0    0 -0.91021940061E+00 -0.24219049562E+02 -0.77170994519E+02  0.80887287357E+02  0.00000000000E+00 0. -1.
         -5    1    3    3    0  503 -0.38109887469E+02 -0.19465326742E+02 -0.95054386336E+02  0.10434888035E+03  0.47000000000E+01 0.  1.
         11    1    4    4    0    0 -0.19288715156E+02 -0.69359964197E+01  0.92043719925E+01  0.22469602633E+02  0.00000000000E+00 0. -1.
        -12    1    4    4    0    0  0.65253485000E+02  0.29481293042E+02  0.33291078085E+01  0.71681565991E+02  0.00000000000E+00 0.  1.
</event>
<event>
12    1  0.8331241E-002  0.2221624E+03  0.7818608E-02  0.1132369E+00
         21   -1    0    0  503  502  0.00000000000E+00  0.00000000000E+00  0.70463733060E+03  0.70463733060E+03  0.00000000000E+00 0. -1.
         21   -1    0    0  501  503 -0.00000000000E+00 -0.00000000000E+00 -0.78320709339E+02  0.78320709339E+02  0.00000000000E+00 0. -1.
          6    2    1    2  501    0  0.51974959140E+02 -0.13089728674E+03  0.18445680627E+03  0.28839134175E+03  0.17120092455E+03 0.  0.
         24    2    3    3    0    0 -0.82225068078E+01 -0.16070192171E+02  0.26164583827E+02  0.83726947588E+02  0.77458089384E+02 0.  0.
         -6    2    1    2    0  502 -0.51974959140E+02  0.13089728674E+03  0.44185981499E+03  0.49456669819E+03  0.17181567681E+03 0.  0.
        -24    2    5    5    0    0 -0.14360981883E+02  0.15500487488E+03  0.37521824373E+03  0.41419769849E+03  0.80859470513E+02 0.  0.
          5    1    3    3  501    0  0.60197465948E+02 -0.11482709457E+03  0.15829222244E+03  0.20466439417E+03  0.47000000000E+01 0. -1.
        -11    1    4    4    0    0 -0.37166207479E+02 -0.26846210124E+02  0.26272506951E+02  0.52842129006E+02  0.00000000000E+00 0.  1.
         12    1    4    4    0    0  0.28943700671E+02  0.10776017953E+02 -0.10792312357E+00  0.30884818582E+02  0.00000000000E+00 0. -1.
         -5    1    5    5    0  502 -0.37613977257E+02 -0.24107588146E+02  0.66641571261E+02  0.80368999692E+02  0.47000000000E+01 0.  1.
         13    1    6    6    0    0 -0.37911634429E+01  0.11526367127E+03  0.34326456917E+03  0.36211966431E+03  0.00000000000E+00 0. -1.
        -14    1    6    6    0    0 -0.10569818440E+02  0.39741203611E+02  0.31953674564E+02  0.52078034183E+02  0.00000000000E+00 0.  1.
</event>
<event>
12    1  0.8331241E-002  0.1763587E+03  0.7818608E-02  0.1171934E+00
         21   -1    0    0  501  502  0.00000000000E+00  0.00000000000E+00  0.25130644954E+03  0.25130644954E+03  0.00000000000E+00 0.  1.
         21   -1    0    0  502  503 -0.00000000000E+00 -0.00000000000E+00 -0.31368356035E+03  0.31368356035E+03  0.00000000000E+00 0.  1.
         -6    2    1    2    0  503  0.23600512401E+02  0.40550215971E+02 -0.25182547532E+03  0.30615977545E+03  0.16767955713E+03 0.  0.
        -24    2    3    3    0    0 -0.10597158975E+02  0.57468054411E+01 -0.39995815217E+02  0.88732424333E+02  0.78284432310E+02 0.  0.
          6    2    1    2  501    0 -0.23600512401E+02 -0.40550215971E+02  0.18944836451E+03  0.25883023444E+03  0.17000324480E+03 0.  0.
         24    2    5    5    0    0 -0.71059403540E+02  0.66518446394E+01  0.12443930075E+03  0.16540299406E+03  0.82336656499E+02 0.  0.
          5    1    5    5  501    0  0.47458891139E+02 -0.47202060611E+02  0.65009063757E+02  0.93427240378E+02  0.47000000000E+01 0. -1.
        -13    1    6    6    0    0 -0.53977940816E+02 -0.28662979058E+00  0.13412308014E+03  0.14457766382E+03  0.00000000000E+00 0.  1.
         14    1    6    6    0    0 -0.17081462724E+02  0.69384744299E+01 -0.96837793850E+01  0.20825330235E+02  0.00000000000E+00 0. -1.
         -5    1    3    3    0  503  0.34197671376E+02  0.34803410530E+02 -0.21182966010E+03  0.21742735111E+03  0.47000000000E+01 0.  1.
         11    1    4    4    0    0  0.21330253270E+02  0.29922587979E+02 -0.83332090196E+01  0.37680012586E+02  0.00000000000E+00 0. -1.
        -12    1    4    4    0    0 -0.31927412245E+02 -0.24175782538E+02 -0.31662606197E+02  0.51052411747E+02  0.00000000000E+00 0.  1.
</event>
<event>
12    1  0.8331241E-002  0.2017436E+03  0.7818608E-02  0.1152070E+00
         21   -1    0    0  503  502  0.00000000000E+00  0.00000000000E+00  0.68452601046E+02  0.68452601046E+02  0.00000000000E+00 0.  1.
         21   -1    0    0  501  503 -0.00000000000E+00 -0.00000000000E+00 -0.54968429889E+03  0.54968429889E+03  0.00000000000E+00 0.  1.
          6    2    1    2  501    0  0.10568572072E+03 -0.11415287179E+02 -0.28109592046E+03  0.34599911093E+03  0.17146628801E+03 0.  0.
         24    2    3    3    0    0  0.12950139158E+03  0.17403211459E+02 -0.26225202479E+03  0.30386985214E+03  0.80543654900E+02 0.  0.
         -6    2    1    2    0  502 -0.10568572072E+03  0.11415287179E+02 -0.20013577739E+03  0.27213778901E+03  0.15068134081E+03 0.  0.
        -24    2    5    5    0    0 -0.15099121511E+02  0.33725129603E+02 -0.11641660254E+03  0.14669995077E+03  0.81256891222E+02 0.  0.
          5    1    3    3  501    0 -0.23815670862E+02 -0.28818498638E+02 -0.18843895666E+02  0.42129258790E+02  0.47000000000E+01 0. -1.
        -11    1    4    4    0    0  0.49620597262E+02  0.46443317978E+02 -0.12922200920E+03  0.14600518182E+03  0.00000000000E+00 0.  1.
         12    1    4    4    0    0  0.79880794315E+02 -0.29040106519E+02 -0.13303001559E+03  0.15786467032E+03  0.00000000000E+00 0. -1.
         -5    1    5    5    0  502 -0.90586599204E+02 -0.22309842425E+02 -0.83719174850E+02  0.12543783824E+03  0.47000000000E+01 0.  1.
         11    1    6    6    0    0  0.19252869645E+02 -0.16380402084E+02 -0.17958537665E+02  0.31008057616E+02  0.00000000000E+00 0. -1.
        -12    1    6    6    0    0 -0.34351991156E+02  0.50105531688E+02 -0.98458064878E+02  0.11569189315E+03  0.00000000000E+00 0.  1.
</event>
<event>
12    1  0.8331241E-002  0.2173920E+03  0.7818608E-02  0.1136014E+00
         21   -1    0    0  501  502  0.00000000000E+00  0.00000000000E+00  0.14619116205E+03  0.14619116205E+03  0.00000000000E+00 0.  1.
         21   -1    0    0  502  503 -0.00000000000E+00 -0.00000000000E+00 -0.37824183948E+03  0.37824183948E+03  0.00000000000E+00 0.  1.
         -6    2    1    2    0  503  0.12563041363E+03  0.40404350863E+02 -0.21740673989E+03  0.30744914388E+03  0.17275350394E+03 0.  0.
        -24    2    3    3    0    0  0.37133896285E+02  0.75384263531E+02 -0.86343650571E+02  0.14541565582E+03  0.81417280235E+02 0.  0.
          6    2    1    2  501    0 -0.12563041363E+03 -0.40404350863E+02 -0.14643937532E+02  0.21698385765E+03  0.17161595840E+03 0.  0.
         24    2    5    5    0    0 -0.86110732829E+02  0.17313109000E+01  0.52207264467E+02  0.12850565484E+03  0.79812587466E+02 0.  0.
          5    1    5    5  501    0 -0.39519680798E+02 -0.42135661763E+02 -0.66851201999E+02  0.88478202803E+02  0.47000000000E+01 0. -1.
        -11    1    6    6    0    0 -0.95786004873E+02 -0.82270616462E+01  0.59257161071E+02  0.11293384971E+03  0.00000000000E+00 0.  1.
         12    1    6    6    0    0  0.96752720439E+01  0.99583725462E+01 -0.70498966047E+01  0.15571805131E+02  0.00000000000E+00 0. -1.
         -5    1    3    3    0  503  0.88496517342E+02 -0.34979912668E+02 -0.13106308932E+03  0.16203348807E+03  0.47000000000E+01 0.  1.
         11    1    4    4    0    0  0.19008011559E+02  0.21778761490E+02  0.12520784219E+02  0.31502206160E+02  0.00000000000E+00 0. -1.
        -12    1    4    4    0    0  0.18125884726E+02  0.53605502041E+02 -0.98864434790E+02  0.11391344966E+03  0.00000000000E+00 0.  1.
</event>
<event>
12    1  0.8331241E-002  0.1856945E+03  0.7818608E-02  0.1162544E+00
         21   -1    0    0  503  502  0.00000000000E+00  0.00000000000E+00  0.37021093075E+03  0.37021093075E+03  0.00000000000E+00 0. -1.
         21   -1    0    0  501  503 -0.00000000000E+00 -0.00000000000E+00 -0.19110777102E+03  0.19110777102E+03  0.00000000000E+00 0. -1.
          6    2    1    2  501    0  0.36068319779E+02 -0.60837381063E+02 -0.11177413873E+03  0.21622153744E+03  0.17104439347E+03 0.  0.
         24    2    3    3    0    0  0.73777975611E+02  0.61549650686E+01 -0.69801751761E+02  0.12850743452E+03  0.78490782247E+02 0.  0.
         -6    2    1    2    0  502 -0.36068319779E+02  0.60837381063E+02  0.29087729845E+03  0.34509716434E+03  0.17169839676E+03 0.  0.
        -24    2    5    5    0    0  0.33368897720E+02 -0.64375438286E+01  0.15273764596E+03  0.17641967240E+03  0.81487342653E+02 0.  0.
          5    1    3    3  501    0 -0.37709655832E+02 -0.66992346132E+02 -0.41972386965E+02  0.87714102918E+02  0.47000000000E+01 0. -1.
        -11    1    4    4    0    0  0.67663484978E-01  0.25030146899E+02  0.32394756764E+00  0.25032334572E+02  0.00000000000E+00 0.  1.
         12    1    4    4    0    0  0.73710312126E+02 -0.18875181830E+02 -0.70125699329E+02  0.10347509995E+03  0.00000000000E+00 0. -1.
         -5    1    5    5    0  502 -0.69437217499E+02  0.67274924891E+02  0.13813965250E+03  0.16867749193E+03  0.47000000000E+01 0.  1.
         13    1    6    6    0    0 -0.19521748583E+02  0.17731513560E+02  0.26272904981E+02  0.37225942258E+02  0.00000000000E+00 0. -1.
        -14    1    6    6    0    0  0.52890646303E+02 -0.24169057389E+02  0.12646474098E+03  0.13919373015E+03  0.00000000000E+00 0.  1.
</event>
<event>
12    1  0.8331241E-002  0.1729258E+03  0.7818608E-02  0.1175078E+00
         21   -1    0    0  503  502  0.00000000000E+00  0.00000000000E+00  0.27932439477E+03  0.27932439477E+03  0.00000000000E+00 0. -1.
         21   -1    0    0  501  503 -0.00000000000E+00 -0.00000000000E+00 -0.11536361116E+03  0.11536361116E+03  0.00000000000E+00 0. -1.
          6    2    1    2  501    0  0.40188250888E+01 -0.59895732944E+01  0.13702522486E+03  0.22063376756E+03  0.17277534893E+03 0.  0.
         24    2    3    3    0    0 -0.21246849546E+02  0.18713903608E+01  0.45799209337E+01  0.85489409202E+02  0.82659135566E+02 0.  0.
         -6    2    1    2    0  502 -0.40188250888E+01  0.59895732944E+01  0.26935558748E+02  0.17405423838E+03  0.17180607564E+03 0.  0.
        -24    2    5    5    0    0 -0.23719464500E+02  0.42424310585E+02 -0.26886167056E+02  0.10597727132E+03  0.90254534143E+02 0.  0.
          5    1    3    3  501    0  0.25265674635E+02 -0.78609636552E+01  0.13244530393E+03  0.13514435836E+03  0.47000000000E+01 0. -1.
        -11    1    4    4    0    0 -0.24879239793E+02  0.30887493169E+02  0.27560995916E+02  0.48297228728E+02  0.00000000000E+00 0.  1.
         12    1    4    4    0    0  0.36323902471E+01 -0.29016102808E+02 -0.22981074982E+02  0.37192180474E+02  0.00000000000E+00 0. -1.
         -5    1    5    5    0  502  0.19700639411E+02 -0.36434737290E+02  0.53821725804E+02  0.68076967053E+02  0.47000000000E+01 0.  1.
         11    1    6    6    0    0 -0.48569831350E+02  0.10977193726E+02  0.10810185845E+02  0.50954758536E+02  0.00000000000E+00 0. -1.
        -12    1    6    6    0    0  0.24850366850E+02  0.31447116859E+02 -0.37696352901E+02  0.55022512787E+02  0.00000000000E+00 0.  1.
</event>
<event>
12    1  0.8331241E-002  0.2252025E+03  0.7818608E-02  0.1131891E+00
         21   -1    0    0  501  502  0.00000000000E+00  0.00000000000E+00  0.11247342988E+03  0.11247342988E+03  0.00000000000E+00 0.  1.
         21   -1    0    0  502  503 -0.00000000000E+00 -0.00000000000E+00 -0.43465855348E+03  0.43465855348E+03  0.00000000000E+00 0.  1.
         -6    2    1    2    0  503 -0.46214507455E+01  0.14617509058E+03 -0.18846071388E+03  0.29365560408E+03  0.17125319914E+03 0.  0.
        -24    2    3    3    0    0  0.56383028813E+01  0.33412002871E+00 -0.38217104778E+02  0.83965157676E+02  0.74549973241E+02 0.  0.
          6    2    1    2  501    0  0.46214507455E+01 -0.14617509058E+03 -0.13372440973E+03  0.25347637928E+03  0.15804917648E+03 0.  0.
         24    2    5    5    0    0  0.46637822926E+02 -0.84858874522E+02 -0.35500799093E+02  0.13020829108E+03  0.79484446390E+02 0.  0.
          5    1    5    5  501    0 -0.42016372180E+02 -0.61316216059E+02 -0.98223610633E+02  0.12326808820E+03  0.47000000000E+01 0. -1.
        -11    1    6    6    0    0  0.79564916441E+01 -0.86196276417E+02 -0.23846645632E+02  0.89787339505E+02  0.00000000000E+00 0.  1.
         12    1    6    6    0    0  0.38681331282E+02  0.13374018946E+01 -0.11654153461E+02  0.40420951578E+02  0.00000000000E+00 0. -1.
         -5    1    3    3    0  503 -0.10259753627E+02  0.14584097055E+03 -0.15024360910E+03  0.20969044640E+03  0.47000000000E+01 0.  1.
         13    1    4    4    0    0 -0.23812817672E+02  0.26070718496E+01 -0.47334871715E+02  0.53051269442E+02  0.00000000000E+00 0. -1.
        -14    1    4    4    0    0  0.29451120554E+02 -0.22729518209E+01  0.91177669363E+01  0.30913888234E+02  0.00000000000E+00 0.  1.
</event>
<event>
12    1  0.8331241E-002  0.1715657E+03  0.7818608E-02  0.1176464E+00
         21   -1    0    0  501  502  0.00000000000E+00  0.00000000000E+00  0.17530701221E+03  0.17530701221E+03  0.00000000000E+00 0. -1.
         21   -1    0    0  502  503 -0.00000000000E+00 -0.00000000000E+00 -0.51699693314E+03  0.51699693314E+03  0.00000000000E+00 0. -1.
         -6    2    1    2    0  503  0.30488044736E+01 -0.13120010152E+02 -0.45550571858E+03  0.48641845264E+03  0.17010591270E+03 0.  0.
        -24    2    3    3    0    0  0.32173378843E+02 -0.64484070992E+02 -0.30877956489E+03  0.32818709748E+03  0.84667759760E+02 0.  0.
          6    2    1    2  501    0 -0.30488044736E+01  0.13120010152E+02  0.11381579764E+03  0.20588549271E+03  0.17103616706E+03 0.  0.
         24    2    5    5    0    0  0.54320168249E+02  0.40443424611E+02  0.49307651651E+02  0.11521488607E+03  0.79100405743E+02 0.  0.
          5    1    5    5  501    0 -0.57368972723E+02 -0.27323414459E+02  0.64508145991E+02  0.90670606638E+02  0.47000000000E+01 0. -1.
        -11    1    6    6    0    0 -0.12630443232E+01  0.25061775296E+02 -0.14680287029E+02  0.29072301064E+02  0.00000000000E+00 0.  1.
         12    1    6    6    0    0  0.55583212572E+02  0.15381649315E+02  0.63987938680E+02  0.86142585009E+02  0.00000000000E+00 0. -1.
         -5    1    3    3    0  503 -0.29124574369E+02  0.51364060841E+02 -0.14672615369E+03  0.15823135516E+03  0.47000000000E+01 0.  1.
         13    1    4    4    0    0  0.13913251771E+02 -0.16665320084E+02 -0.24702350593E+03  0.24797565194E+03  0.00000000000E+00 0. -1.
        -14    1    4    4    0    0  0.18260127072E+02 -0.47818750909E+02 -0.61756058953E+02  0.80211445546E+02  0.00000000000E+00 0.  1.
</event>
<event>
12    1  0.8331241E-002  0.2289232E+03  0.7818608E-02  0.1128495E+00
         21   -1    0    0  501  502  0.00000000000E+00  0.00000000000E+00  0.16845762450E+03  0.16845762450E+03  0.00000000000E+00 0.  1.
         21   -1    0    0  502  503 -0.00000000000E+00 -0.00000000000E+00 -0.33345315739E+03  0.33345315739E+03  0.00000000000E+00 0. -1.
         -6    2    1    2    0  503 -0.62767964605E+01 -0.14925650800E+03 -0.15749035734E+03  0.27286456608E+03  0.16533286247E+03 0.  0.
        -24    2    3    3    0    0  0.58379347105E+02 -0.74160028963E+02 -0.84120767233E+02  0.14947459559E+03  0.79740160413E+02 0.  0.
          6    2    1    2  501    0  0.62767964605E+01  0.14925650800E+03 -0.75051755574E+01  0.22904621581E+03  0.17346163254E+03 0.  0.
         24    2    5    5    0    0  0.57635751098E+02  0.56820531906E+02  0.28975261834E+02  0.11708611484E+03  0.79493017550E+02 0.  0.
          5    1    5    5  501    0 -0.51358954638E+02  0.92435976094E+02 -0.36480437391E+02  0.11196010097E+03  0.47000000000E+01 0. -1.
        -13    1    6    6    0    0  0.65657262751E+02  0.46915300981E+02 -0.49473454174E+01  0.80847992212E+02  0.00000000000E+00 0.  1.
         14    1    6    6    0    0 -0.80215116528E+01  0.99052309258E+01  0.33922607251E+02  0.36238122628E+02  0.00000000000E+00 0. -1.
         -5    1    3    3    0  503 -0.64656143565E+02 -0.75096479038E+02 -0.73369590104E+02  0.12338997049E+03  0.47000000000E+01 0.  1.
         11    1    4    4    0    0  0.42710040688E+02  0.48476367700E+01 -0.27807134095E+02  0.51194568701E+02  0.00000000000E+00 0. -1.
        -12    1    4    4    0    0  0.15669306416E+02 -0.79007665733E+02 -0.56313633138E+02  0.98280026889E+02  0.00000000000E+00 0.  1.
</event>
<event>
12    1  0.8331241E-002  0.1800231E+03  0.7818608E-02  0.1169102E+00
         21   -1    0    0  501  502  0.00000000000E+00  0.00000000000E+00  0.11260300911E+03  0.11260300911E+03  0.00000000000E+00 0.  1.
         21   -1    0    0  502  503 -0.00000000000E+00 -0.00000000000E+00 -0.17232505362E+04  0.17232505362E+04  0.00000000000E+00 0.  1.
         -6    2    1    2    0  503  0.27442426569E+02  0.15650159307E+01 -0.16435882603E+04  0.16528415167E+04  0.17247369022E+03 0.  0.
        -24    2    3    3    0    0  0.50476132263E+01  0.52169283461E+01 -0.16105268727E+04  0.16124681408E+04  0.78765491640E+02 0.  0.
          6    2    1    2  501    0 -0.27442426569E+02 -0.15650159307E+01  0.32940733171E+02  0.18301202868E+03  0.17791226683E+03 0.  0.
         24    2    5    5    0    0  0.51557914395E+02  0.17885037526E+02  0.11880621947E+02  0.98839724819E+02  0.81547832101E+02 0.  0.
          5    1    5    5  501    0 -0.79000340964E+02 -0.19450053457E+02  0.21060111224E+02  0.84172303857E+02  0.47000000000E+01 0. -1.
        -11    1    6    6    0    0 -0.61296534535E+01 -0.10170031874E+02  0.29931241124E+02  0.32200642773E+02  0.00000000000E+00 0.  1.
         12    1    6    6    0    0  0.57687567848E+02  0.28055069401E+02 -0.18050619176E+02  0.66639082046E+02  0.00000000000E+00 0. -1.
         -5    1    3    3    0  503  0.22394813343E+02 -0.36519124153E+01 -0.33061387540E+02  0.40373375819E+02  0.47000000000E+01 0.  1.
         11    1    4    4    0    0  0.31834575650E+01 -0.63873035913E+01 -0.12467918845E+02  0.14365968452E+02  0.00000000000E+00 0. -1.
        -12    1    4    4    0    0  0.18641556613E+01  0.11604231937E+02 -0.15980589539E+04  0.15981021724E+04  0.00000000000E+00 0.  1.
</event>
<event>
12    1  0.8331241E-002  0.2353916E+03  0.7818608E-02  0.1124913E+00
         21   -1    0    0  503  502  0.00000000000E+00  0.00000000000E+00  0.27617865257E+03  0.27617865257E+03  0.00000000000E+00 0. -1.
         21   -1    0    0  501  503 -0.00000000000E+00 -0.00000000000E+00 -0.19103078764E+03  0.19103078764E+03  0.00000000000E+00 0. -1.
          6    2    1    2  501    0  0.14400098372E+03 -0.10434217191E+01  0.45538871040E+02  0.22850859767E+03  0.17147891530E+03 0.  0.
         24    2    3    3    0    0  0.42898221454E+02  0.34079807536E+02 -0.24893638101E+02  0.10029690509E+03  0.80237679841E+02 0.  0.
         -6    2    1    2    0  502 -0.14400098372E+03  0.10434217191E+01  0.39608993892E+02  0.23870084254E+03  0.18620378028E+03 0.  0.
        -24    2    5    5    0    0 -0.64096018491E+02  0.34557568699E+02 -0.44268385771E+02  0.11801320301E+03  0.81638844704E+02 0.  0.
          5    1    3    3  501    0  0.10110276227E+03 -0.35123229255E+02  0.70432509142E+02  0.12821169259E+03  0.47000000000E+01 0. -1.
        -11    1    4    4    0    0 -0.19017734601E+02  0.67163134039E+00  0.10292390181E+02  0.21634662319E+02  0.00000000000E+00 0.  1.
         12    1    4    4    0    0  0.61915956054E+02  0.33408176196E+02 -0.35186028282E+02  0.78662242767E+02  0.00000000000E+00 0. -1.
         -5    1    5    5    0  502 -0.79904965233E+02 -0.33514146980E+02  0.83877379663E+02  0.12068763953E+03  0.47000000000E+01 0.  1.
         11    1    6    6    0    0 -0.42726192608E+02 -0.13259680221E+02 -0.47862794491E+02  0.65514836113E+02  0.00000000000E+00 0. -1.
        -12    1    6    6    0    0 -0.21369825883E+02  0.47817248920E+02  0.35944087203E+01  0.52498366895E+02  0.00000000000E+00 0.  1.
</event>
<event>
12    1  0.8331241E-002  0.2120593E+03  0.7818608E-02  0.1141713E+00
         21   -1    0    0  501  502  0.00000000000E+00  0.00000000000E+00  0.19551907572E+04  0.19551907572E+04  0.00000000000E+00 0.  1.
         21   -1    0    0  502  503 -0.00000000000E+00 -0.00000000000E+00 -0.57802489519E+02  0.57802489519E+02  0.00000000000E+00 0.  1.
         -6    2    1    2    0  503 -0.22553613610E+02 -0.12212786669E+03  0.14950242405E+03  0.25229052824E+03  0.16085911392E+03 0.  0.
        -24    2    3    3    0    0  0.99670923509E+01 -0.74831766560E+02  0.16003625513E+03  0.19374508434E+03  0.78907658254E+02 0.  0.
          6    2    1    2  501    0  0.22553613610E+02  0.12212786669E+03  0.17478858436E+04  0.17607027185E+04  0.17188734448E+03 0.  0.
         24    2    5    5    0    0  0.34783571140E+02  0.12654322434E+03  0.17343014869E+04  0.17413199428E+04  0.84678281313E+02 0.  0.
          5    1    5    5  501    0 -0.12229957530E+02 -0.44153576540E+01  0.13584356696E+02  0.19382775633E+02  0.47000000000E+01 0. -1.
        -11    1    6    6    0    0 -0.15747514834E+02  0.94706170602E+02  0.10035266988E+04  0.10081086639E+04  0.00000000000E+00 0.  1.
         12    1    6    6    0    0  0.50531085974E+02  0.31837053743E+02  0.73077478812E+03  0.73321127896E+03  0.00000000000E+00 0. -1.
         -5    1    3    3    0  503 -0.32520705961E+02 -0.47296100130E+02 -0.10533831088E+02  0.58545443897E+02  0.47000000000E+01 0.  1.
         11    1    4    4    0    0  0.42611400525E+02 -0.57007127840E+02  0.93342159284E+02  0.11738101541E+03  0.00000000000E+00 0. -1.
        -12    1    4    4    0    0 -0.32644308174E+02 -0.17824638720E+02  0.66694095851E+02  0.76364068926E+02  0.00000000000E+00 0.  1.
</event>
<event>
12    1  0.8331241E-002  0.1785343E+03  0.7818608E-02  0.1173392E+00
         21   -1    0    0  503  502  0.00000000000E+00  0.00000000000E+00  0.13656220053E+04  0.13656220053E+04  0.00000000000E+00 0. -1.
         21   -1    0    0  501  503 -0.00000000000E+00 -0.00000000000E+00 -0.21423259137E+02  0.21423259137E+02  0.00000000000E+00 0. -1.
          6    2    1    2  501    0 -0.12457329604E+02  0.44495374857E+02  0.69843035813E+03  0.71705173957E+03  0.15563806931E+03 0.  0.
         24    2    3    3    0    0 -0.93301052056E+01  0.62041065919E+02  0.26521677854E+03  0.28344624335E+03  0.77882530322E+02 0.  0.
         -6    2    1    2    0  502  0.12457329604E+02 -0.44495374857E+02  0.64576838808E+03  0.66999352492E+03  0.17245141037E+03 0.  0.
        -24    2    5    5    0    0  0.56861857433E+02  0.36641486807E+01  0.24610288872E+03  0.26496796624E+03  0.79966833631E+02 0.  0.
          5    1    3    3  501    0 -0.31272243982E+01 -0.17545691063E+02  0.43321357959E+03  0.43360549622E+03  0.47000000000E+01 0. -1.
        -11    1    4    4    0    0 -0.73438953307E+01 -0.17659063273E+02  0.36072148424E+02  0.40828607694E+02  0.00000000000E+00 0.  1.
         12    1    4    4    0    0 -0.19862098749E+01  0.79700129192E+02  0.22914463011E+03  0.24261763566E+03  0.00000000000E+00 0. -1.
         -5    1    5    5    0  502 -0.44404527829E+02 -0.48159523538E+02  0.39966549937E+03  0.40502555868E+03  0.47000000000E+01 0.  1.
         11    1    6    6    0    0 -0.86546743825E+01 -0.24416380100E+02  0.50001985200E+02  0.56313955018E+02  0.00000000000E+00 0. -1.
        -12    1    6    6    0    0  0.65516531815E+02  0.28080528781E+02  0.19610090352E+03  0.20865401122E+03  0.00000000000E+00 0.  1.
</event>
<event>
12    1  0.8331241E-002  0.2006997E+03  0.7818608E-02  0.1149402E+00
         21   -1    0    0  503  502  0.00000000000E+00  0.00000000000E+00  0.21090883148E+03  0.21090883148E+03  0.00000000000E+00 0.  1.
         21   -1    0    0  501  503 -0.00000000000E+00 -0.00000000000E+00 -0.22403160645E+03  0.22403160645E+03  0.00000000000E+00 0. -1.
          6    2    1    2  501    0 -0.69003845340E+02  0.73729667957E+02  0.78402020244E+02  0.21435677085E+03  0.17205915792E+03 0.  0.
         24    2    3    3    0    0 -0.18270257326E+02  0.13364212024E+02  0.10413729346E+03  0.13127681232E+03  0.76659122720E+02 0.  0.
         -6    2    1    2    0  502  0.69003845340E+02 -0.73729667957E+02 -0.91524795210E+02  0.22058366707E+03  0.17344385672E+03 0.  0.
        -24    2    5    5    0    0  0.25331307407E+02 -0.79093841110E+02  0.38262148254E+01  0.11546482938E+03  0.80124753153E+02 0.  0.
          5    1    3    3  501    0 -0.50733588015E+02  0.60365455934E+02 -0.25735273218E+02  0.83079958537E+02  0.47000000000E+01 0. -1.
        -13    1    4    4    0    0 -0.43756028051E+02 -0.79528161338E+00  0.87183039099E+02  0.97550524193E+02  0.00000000000E+00 0.  1.
         14    1    4    4    0    0  0.25485770725E+02  0.14159493637E+02  0.16954254363E+02  0.33726288123E+02  0.00000000000E+00 0. -1.
         -5    1    5    5    0  502  0.43672537933E+02  0.53641731531E+01 -0.95351010035E+02  0.10511883769E+03  0.47000000000E+01 0.  1.
         11    1    6    6    0    0  0.42759982945E+01 -0.86258834823E+02 -0.13314659372E+02  0.87385072528E+02  0.00000000000E+00 0. -1.
        -12    1    6    6    0    0  0.21055309113E+02  0.71649937129E+01  0.17140874198E+02  0.28079756854E+02  0.00000000000E+00 0.  1.
</event>
<event>
12    1  0.8331241E-002  0.1775323E+03  0.7818608E-02  0.1172010E+00
         21   -1    0    0  501  502  0.00000000000E+00  0.00000000000E+00  0.88192701771E+03  0.88192701771E+03  0.00000000000E+00 0.  1.
         21   -1    0    0  502  503 -0.00000000000E+00 -0.00000000000E+00 -0.45494292656E+02  0.45494292656E+02  0.00000000000E+00 0.  1.
         -6    2    1    2    0  503  0.19788270904E+02  0.20852895049E+02  0.64157170714E+03  0.66381452716E+03  0.16795550651E+03 0.  0.
        -24    2    3    3    0    0 -0.45086261277E+02 -0.16218255739E+02  0.28650198651E+03  0.30093772760E+03  0.78640478418E+02 0.  0.
          6    2    1    2  501    0 -0.19788270904E+02 -0.20852895049E+02  0.19486101792E+03  0.26360678321E+03  0.17518932888E+03 0.  0.
         24    2    5    5    0    0  0.14557963202E+02 -0.45608567222E+02  0.33679025812E+02  0.96890762143E+02  0.77210538869E+02 0.  0.
          5    1    5    5  501    0 -0.34346234105E+02  0.24755672173E+02  0.16118199210E+03  0.16671602107E+03  0.47000000000E+01 0. -1.
        -13    1    6    6    0    0  0.42972024296E+02 -0.80025561899E+01  0.15715390530E+02  0.46450072951E+02  0.00000000000E+00 0.  1.
         14    1    6    6    0    0 -0.28414061095E+02 -0.37606011032E+02  0.17963635282E+02  0.50440689192E+02  0.00000000000E+00 0. -1.
         -5    1    3    3    0  503  0.64874532181E+02  0.37071150788E+02  0.35506972063E+03  0.36287679955E+03  0.47000000000E+01 0.  1.
         11    1    4    4    0    0 -0.24051409946E+02  0.20911426098E+01  0.15911494235E+02  0.28913990500E+02  0.00000000000E+00 0. -1.
        -12    1    4    4    0    0 -0.21034851330E+02 -0.18309398349E+02  0.27059049227E+03  0.27202373710E+03  0.00000000000E+00 0.  1.
</event>
<event>
12    1  0.8331241E-002  0.2339775E+03  0.7818608E-02  0.1124212E+00
         21   -1    0    0  503  502  0.00000000000E+00  0.00000000000E+00  0.43446437896E+02  0.43446437896E+02  0.00000000000E+00 0.  1.
         21   -1    0    0  501  503 -0.00000000000E+00 -0.00000000000E+00 -0.14983290937E+04  0.14983290937E+04  0.00000000000E+00 0.  1.
          6    2    1    2  501    0 -0.12732788369E+03  0.93901433113E+02 -0.10390349256E+04  0.10646227210E+04  0.16970000716E+03 0.  0.
         24    2    3    3    0    0 -0.56944119461E+02 -0.16084697232E+02 -0.42986726346E+03  0.44159932362E+03  0.81992366722E+02 0.  0.
         -6    2    1    2    0  502  0.12732788369E+03 -0.93901433113E+02 -0.41584773026E+03  0.47715281061E+03  0.17238213598E+03 0.  0.
        -24    2    5    5    0    0  0.14936500857E+02 -0.66422036417E+02 -0.12231583994E+03  0.16160566546E+03  0.80748005725E+02 0.  0.
          5    1    3    3  501    0 -0.70383764234E+02  0.10998613034E+03 -0.60916766213E+03  0.62302339741E+03  0.47000000000E+01 0. -1.
        -13    1    4    4    0    0 -0.35946866759E+02 -0.14797502332E+02 -0.41247860763E+03  0.41430634204E+03  0.00000000000E+00 0.  1.
         14    1    4    4    0    0 -0.20997252702E+02 -0.12871948999E+01 -0.17388655829E+02  0.27292981575E+02  0.00000000000E+00 0. -1.
         -5    1    5    5    0  502  0.11239138284E+03 -0.27479396696E+02 -0.29353189032E+03  0.31554714516E+03  0.47000000000E+01 0.  1.
         11    1    6    6    0    0 -0.23809374488E+02 -0.81305104036E+01 -0.69520499943E+02  0.73933019858E+02  0.00000000000E+00 0. -1.
        -12    1    6    6    0    0  0.38745875345E+02 -0.58291526013E+02 -0.52795339995E+02  0.87672645600E+02  0.00000000000E+00 0.  1.
</event>
<event>
12    1  0.8331241E-002  0.1857621E+03  0.7818608E-02  0.1162684E+00
         21   -1    0    0  501  502  0.00000000000E+00  0.00000000000E+00  0.12662070424E+03  0.12662070424E+03  0.00000000000E+00 0.  1.
         21   -1    0    0  502  503 -0.00000000000E+00 -0.00000000000E+00 -0.47959081253E+03  0.47959081253E+03  0.00000000000E+00 0.  1.
         -6    2    1    2    0  503  0.46449306149E+02  0.54144540855E+02 -0.37628769637E+03  0.41899163350E+03  0.16991877223E+03 0.  0.
        -24    2    3    3    0    0  0.16253836430E+02  0.95448929130E+02 -0.20730658775E+03  0.24237191786E+03  0.79958989305E+02 0.  0.
          6    2    1    2  501    0 -0.46449306149E+02 -0.54144540855E+02  0.23317588083E+02  0.18721988326E+03  0.17151794492E+03 0.  0.
         24    2    5    5    0    0 -0.35789225570E+02  0.11403613408E+02  0.64389502445E+02  0.10899463162E+03  0.79516731770E+02 0.  0.
          5    1    5    5  501    0 -0.10660080579E+02 -0.65548154263E+02 -0.41071914363E+02  0.78225251643E+02  0.47000000000E+01 0. -1.
        -13    1    6    6    0    0 -0.60529080007E+02  0.14835515922E+02  0.51729411748E+02  0.80992555825E+02  0.00000000000E+00 0.  1.
         14    1    6    6    0    0  0.24739854437E+02 -0.34319025143E+01  0.12660090697E+02  0.28002075796E+02  0.00000000000E+00 0. -1.
         -5    1    3    3    0  503  0.30195469719E+02 -0.41304388275E+02 -0.16898110862E+03  0.17661971564E+03  0.47000000000E+01 0.  1.
         11    1    4    4    0    0  0.38945038330E+02  0.14681372294E+02 -0.65357696401E+02  0.77484754512E+02  0.00000000000E+00 0. -1.
        -12    1    4    4    0    0 -0.22691201900E+02  0.80767556836E+02 -0.14194889135E+03  0.16488716335E+03  0.00000000000E+00 0.  1.
</event>
<event>
12    1  0.8331241E-002  0.1763539E+03  0.7818608E-02  0.1171692E+00
         21   -1    0    0  501  502  0.00000000000E+00  0.00000000000E+00  0.56584807536E+02  0.56584807536E+02  0.00000000000E+00 0.  1.
         21   -1    0    0  502  503 -0.00000000000E+00 -0.00000000000E+00 -0.56319832569E+03  0.56319832569E+03  0.00000000000E+00 0.  1.
         -6    2    1    2    0  503  0.10141285266E+02 -0.35903532312E+02 -0.19785544120E+03  0.26421000415E+03  0.17107963462E+03 0.  0.
        -24    2    3    3    0    0  0.72137079061E+02 -0.32564691576E+02 -0.10813005817E+03  0.15499754760E+03  0.77896809757E+02 0.  0.
          6    2    1    2  501    0 -0.10141285266E+02  0.35903532312E+02 -0.30875807695E+03  0.35557312907E+03  0.17236238202E+03 0.  0.
         24    2    5    5    0    0  0.55214388219E+01  0.78757938987E+02 -0.27863213000E+03  0.30069614139E+03  0.80925931191E+02 0.  0.
          5    1    5    5  501    0 -0.15662724088E+02 -0.42854406675E+02 -0.30125946957E+02  0.54876987685E+02  0.47000000000E+01 0. -1.
        -13    1    6    6    0    0  0.22783626870E+02  0.33939981950E+02 -0.39694843779E+02  0.56979791599E+02  0.00000000000E+00 0.  1.
         14    1    6    6    0    0 -0.17262188048E+02  0.44817957037E+02 -0.23893728622E+03  0.24371634979E+03  0.00000000000E+00 0. -1.
         -5    1    3    3    0  503 -0.61995793795E+02 -0.33388407363E+01 -0.89725383031E+02  0.10921245655E+03  0.47000000000E+01 0.  1.
         13    1    4    4    0    0  0.68558979186E+02  0.91333430102E+01 -0.65494822442E+02  0.95253993871E+02  0.00000000000E+00 0. -1.
        -14    1    4    4    0    0  0.35780998746E+01 -0.41698034586E+02 -0.42635235728E+02  0.59743553733E+02  0.00000000000E+00 0.  1.
</event>
<event>
12    1  0.8331241E-002  0.2010467E+03  0.7818608E-02  0.1148962E+00
         21   -1    0    0  501  502  0.00000000000E+00  0.00000000000E+00  0.10475593873E+03  0.10475593873E+03  0.00000000000E+00 0. -1.
         21   -1    0    0  502  503 -0.00000000000E+00 -0.00000000000E+00 -0.38911020816E+03  0.38911020816E+03  0.00000000000E+00 0.  1.
         -6    2    1    2    0  503  0.87034474580E+02 -0.56262570108E+02 -0.16802169580E+03  0.26201349288E+03  0.17227682268E+03 0.  0.
        -24    2    3    3    0    0  0.10100347281E+03 -0.71901474004E+02 -0.72616507385E+02  0.16421805228E+03  0.79516589880E+02 0.  0.
          6    2    1    2  501    0 -0.87034474580E+02  0.56262570108E+02 -0.11633257364E+03  0.23185265400E+03  0.17170296712E+03 0.  0.
         24    2    5    5    0    0 -0.11598765295E+03  0.60433729464E+01 -0.89145009700E+02  0.16765368256E+03  0.81677821524E+02 0.  0.
          5    1    5    5  501    0  0.28953178367E+02  0.50219197161E+02 -0.27187563937E+02  0.64198971440E+02  0.47000000000E+01 0. -1.
        -13    1    6    6    0    0 -0.67167507461E+02  0.21160876068E+02 -0.92708764348E+02  0.11642238497E+03  0.00000000000E+00 0.  1.
         14    1    6    6    0    0 -0.48820145486E+02 -0.15117503121E+02  0.35637546483E+01  0.51231297593E+02  0.00000000000E+00 0. -1.
         -5    1    3    3    0  503 -0.13968998232E+02  0.15638903896E+02 -0.95405188411E+02  0.97795440601E+02  0.47000000000E+01 0.  1.
         11    1    4    4    0    0  0.92779408759E+02 -0.69175075238E+02 -0.88792733705E+02  0.14586760875E+03  0.00000000000E+00 0. -1.
        -12    1    4    4    0    0  0.82240640530E+01 -0.27263987655E+01  0.16176226320E+02  0.18350443530E+02  0.00000000000E+00 0.  1.
</event>
<event>
12    1  0.8331241E-002  0.2434239E+03  0.7818608E-02  0.1117570E+00
         21   -1    0    0  503  502  0.00000000000E+00  0.00000000000E+00  0.42469637567E+03  0.42469637567E+03  0.00000000000E+00 0. -1.
         21   -1    0    0  501  503 -0.00000000000E+00 -0.00000000000E+00 -0.14849809721E+03  0.14849809721E+03  0.00000000000E+00 0.  1.
          6    2    1    2  501    0  0.12304115210E+03 -0.12066117359E+03  0.67195119321E+02  0.25252798824E+03  0.17192136825E+03 0.  0.
         24    2    3    3    0    0 -0.21881662348E+01 -0.43583025093E+02  0.58097114361E+02  0.10512280908E+03  0.75968823506E+02 0.  0.
         -6    2    1    2    0  502 -0.12304115210E+03  0.12066117359E+03  0.20900315915E+03  0.32066648465E+03  0.17159962098E+03 0.  0.
        -24    2    5    5    0    0 -0.76497077606E+02  0.28622657440E+02  0.18012230119E+03  0.21345812079E+03  0.80307325583E+02 0.  0.
          5    1    3    3  501    0  0.12522931834E+03 -0.77078148494E+02  0.90980049602E+01  0.14740517915E+03  0.47000000000E+01 0. -1.
        -11    1    4    4    0    0  0.37632514863E+01  0.14617432512E+02 -0.78102983436E+01  0.16995062671E+02  0.00000000000E+00 0.  1.
         12    1    4    4    0    0 -0.59514177210E+01 -0.58200457605E+02  0.65907412705E+02  0.88127746412E+02  0.00000000000E+00 0. -1.
         -5    1    5    5    0  502 -0.46544074496E+02  0.92038516147E+02  0.28880857953E+02  0.10720836386E+03  0.47000000000E+01 0.  1.
         13    1    6    6    0    0 -0.59599013146E+02  0.45976965683E+02  0.17226653757E+03  0.18799383955E+03  0.00000000000E+00 0. -1.
        -14    1    6    6    0    0 -0.16898064460E+02 -0.17354308243E+02  0.78557636251E+01  0.25464281243E+02  0.00000000000E+00 0.  1.
</event>
<event>
12    1  0.8331241E-002  0.2690107E+03  0.7818608E-02  0.1101885E+00
         21   -1    0    0  501  502  0.00000000000E+00  0.00000000000E+00  0.33867164828E+03  0.33867164828E+03  0.00000000000E+00 0. -1.
         21   -1    0    0  502  503 -0.00000000000E+00 -0.00000000000E+00 -0.21574632423E+03  0.21574632423E+03  0.00000000000E+00 0.  1.
         -6    2    1    2    0  503  0.19999496468E+03  0.49596680566E+02  0.89912708192E+02  0.28338918854E+03  0.17253208533E+03 0.  0.
        -24    2    3    3    0    0  0.13811866323E+03  0.10033055518E+03  0.66887660586E+02  0.19999347204E+03  0.79877683259E+02 0.  0.
          6    2    1    2  501    0 -0.19999496468E+03 -0.49596680566E+02  0.33012615864E+02  0.27102878397E+03  0.17294204900E+03 0.  0.
         24    2    5    5    0    0 -0.20265841764E+03 -0.61219567774E+02  0.66225774004E+02  0.23542837157E+03  0.78882160716E+02 0.  0.
          5    1    5    5  501    0  0.26634529688E+01  0.11622887207E+02 -0.33213158140E+02  0.35600412391E+02  0.47000000000E+01 0. -1.
        -13    1    6    6    0    0 -0.46804460648E+02  0.88516026454E+01  0.40694598191E+02  0.62650289128E+02  0.00000000000E+00 0.  1.
         14    1    6    6    0    0 -0.15585395700E+03 -0.70071170419E+02  0.25531175813E+02  0.17277808245E+03  0.00000000000E+00 0. -1.
         -5    1    3    3    0  503  0.61876301444E+02 -0.50733874615E+02  0.23025047605E+02  0.83395716503E+02  0.47000000000E+01 0.  1.
         13    1    4    4    0    0  0.97532208090E+01  0.12721432746E+02  0.38910158645E+02  0.42082782857E+02  0.00000000000E+00 0. -1.
        -14    1    4    4    0    0  0.12836544242E+03  0.87609122436E+02  0.27977501942E+02  0.15791068918E+03  0.00000000000E+00 0.  1.
</event>
<event>
12    1  0.8331241E-002  0.2057708E+03  0.7818608E-02  0.1145017E+00
         21   -1    0    0  503  502  0.00000000000E+00  0.00000000000E+00  0.51363974439E+03  0.51363974439E+03  0.00000000000E+00 0. -1.
         21   -1    0    0  501  503 -0.00000000000E+00 -0.00000000000E+00 -0.85738583152E+02  0.85738583152E+02  0.00000000000E+00 0. -1.
          6    2    1    2  501    0 -0.52160280434E+02  0.99700504558E+02  0.15397031287E+03  0.25677107133E+03  0.17194080483E+03 0.  0.
         24    2    3    3    0    0 -0.80917343643E+02  0.13050579813E+02  0.99215853634E+02  0.15020973243E+03  0.77467696292E+02 0.  0.
         -6    2    1    2    0  502  0.52160280434E+02 -0.99700504558E+02  0.27393084837E+03  0.34260725621E+03  0.17228098228E+03 0.  0.
        -24    2    5    5    0    0  0.17220657211E+02 -0.68366408240E+02  0.62444847888E+02  0.12592541280E+03  0.83590273063E+02 0.  0.
          5    1    3    3  501    0  0.28757063209E+02  0.86649924745E+02  0.54754459234E+02  0.10656133890E+03  0.47000000000E+01 0. -1.
        -11    1    4    4    0    0 -0.28088890372E+02 -0.19093363316E+02  0.79394360717E+00  0.33973116306E+02  0.00000000000E+00 0.  1.
         12    1    4    4    0    0 -0.52828453271E+02  0.32143943129E+02  0.98421910027E+02  0.11623661613E+03  0.00000000000E+00 0. -1.
         -5    1    5    5    0  502  0.34939623223E+02 -0.31334096318E+02  0.21148600048E+03  0.21668184341E+03  0.47000000000E+01 0.  1.
         13    1    6    6    0    0 -0.20039864632E+02 -0.36890437631E+02 -0.54414843689E+01  0.42333323933E+02  0.00000000000E+00 0. -1.
        -14    1    6    6    0    0  0.37260521843E+02 -0.31475970608E+02  0.67886332257E+02  0.83592088866E+02  0.00000000000E+00 0.  1.
</event>
<event>
12    1  0.8331241E-002  0.2390835E+03  0.7818608E-02  0.1120539E+00
         21   -1    0    0  501  502  0.00000000000E+00  0.00000000000E+00  0.54048265192E+03  0.54048265192E+03  0.00000000000E+00 0. -1.
         21   -1    0    0  502  503 -0.00000000000E+00 -0.00000000000E+00 -0.50591915143E+03  0.50591915143E+03  0.00000000000E+00 0. -1.
         -6    2    1    2    0  503 -0.13493022867E+03  0.96800327039E+02 -0.44823050891E+03  0.50800741147E+03  0.17200136937E+03 0.  0.
        -24    2    3    3    0    0 -0.12046202009E+03  0.87158177476E+02 -0.21100989548E+03  0.27010404969E+03  0.79519654706E+02 0.  0.
          6    2    1    2  501    0  0.13493022867E+03 -0.96800327039E+02  0.48279400941E+03  0.53839439188E+03  0.17088591447E+03 0.  0.
         24    2    5    5    0    0  0.15552177607E+03 -0.10295400256E+03  0.35705006499E+03  0.41074052745E+03  0.80227691637E+02 0.  0.
          5    1    5    5  501    0 -0.20591547398E+02  0.61536755188E+01  0.12574394442E+03  0.12765386443E+03  0.47000000000E+01 0. -1.
        -13    1    6    6    0    0  0.35320992038E+01 -0.36428023708E+02  0.53744446960E+02  0.65022628485E+02  0.00000000000E+00 0.  1.
         14    1    6    6    0    0  0.15198967687E+03 -0.66525978850E+02  0.30330561803E+03  0.34571789897E+03  0.00000000000E+00 0. -1.
         -5    1    3    3    0  503 -0.14468208583E+02  0.96421495628E+01 -0.23722061343E+03  0.23790336178E+03  0.47000000000E+01 0.  1.
         13    1    4    4    0    0 -0.74288798028E+02  0.83889839731E+02 -0.10140990021E+03  0.15113007173E+03  0.00000000000E+00 0. -1.
        -14    1    4    4    0    0 -0.46173222061E+02  0.32683377452E+01 -0.10959999527E+03  0.11897397796E+03  0.00000000000E+00 0.  1.
</event>
<event>
12    1  0.8331241E-002  0.1965073E+03  0.7818608E-02  0.1153280E+00
         21   -1    0    0  503  502  0.00000000000E+00  0.00000000000E+00  0.20336302811E+04  0.20336302811E+04  0.00000000000E+00 0. -1.
         21   -1    0    0  501  503 -0.00000000000E+00 -0.00000000000E+00 -0.19537714628E+02  0.19537714628E+02  0.00000000000E+00 0.  1.
          6    2    1    2  501    0  0.79549668561E+02 -0.54550752460E+02  0.80599922816E+03  0.82960826754E+03  0.17120510337E+03 0.  0.
         24    2    3    3    0    0  0.11729602136E+03 -0.19310142626E+02  0.63381629768E+03  0.64978685814E+03  0.79803656395E+02 0.  0.
         -6    2    1    2    0  502 -0.79549668561E+02  0.54550752460E+02  0.12080933383E+04  0.12235597281E+04  0.16824077982E+03 0.  0.
        -24    2    5    5    0    0 -0.59821862084E+02 -0.99430382377E+01  0.99458656355E+03  0.99960466961E+03  0.79558430958E+02 0.  0.
          5    1    3    3  501    0 -0.37746352795E+02 -0.35240609834E+02  0.17218293048E+03  0.17982140940E+03  0.47000000000E+01 0. -1.
        -11    1    4    4    0    0  0.29235473469E+02 -0.18413781183E+02  0.59877374777E+02  0.69130892202E+02  0.00000000000E+00 0.  1.
         12    1    4    4    0    0  0.88060547887E+02 -0.89636144305E+00  0.57393892290E+03  0.58065596594E+03  0.00000000000E+00 0. -1.
         -5    1    5    5    0  502 -0.19727806478E+02  0.64493790698E+02  0.21350677473E+03  0.22395505853E+03  0.47000000000E+01 0.  1.
         13    1    6    6    0    0 -0.23887276478E+02 -0.30669787959E+02  0.78444350306E+03  0.78540616713E+03  0.00000000000E+00 0. -1.
        -14    1    6    6    0    0 -0.35934585606E+02  0.20726749722E+02  0.21014306048E+03  0.21419850248E+03  0.00000000000E+00 0.  1.
</event>
<event>
12    1  0.8331241E-002  0.1761319E+03  0.7818608E-02  0.1171950E+00
         21   -1    0    0  501  502  0.00000000000E+00  0.00000000000E+00  0.79598900679E+03  0.79598900679E+03  0.00000000000E+00 0. -1.
         21   -1    0    0  502  503 -0.00000000000E+00 -0.00000000000E+00 -0.83791445533E+02  0.83791445533E+02  0.00000000000E+00 0. -1.
         -6    2    1    2    0  503  0.26711985706E+02  0.23142028994E+02  0.33933537710E+02  0.17937089786E+03  0.17254955905E+03 0.  0.
        -24    2    3    3    0    0  0.75231439751E+02  0.45077577023E+02  0.39902373842E+02  0.12558407147E+03  0.80544410674E+02 0.  0.
          6    2    1    2  501    0 -0.26711985706E+02 -0.23142028994E+02  0.67826402355E+03  0.70040955447E+03  0.17112093578E+03 0.  0.
         24    2    5    5    0    0 -0.52950471760E+02  0.16967661348E+02  0.60528191850E+03  0.61296972906E+03  0.79208799328E+02 0.  0.
          5    1    5    5  501    0  0.26238486054E+02 -0.40109690342E+02  0.72982105046E+02  0.87439825404E+02  0.47000000000E+01 0. -1.
        -11    1    6    6    0    0  0.19906266814E+02 -0.37855341274E+01  0.16184414309E+03  0.16310768339E+03  0.00000000000E+00 0.  1.
         12    1    6    6    0    0 -0.72856738575E+02  0.20753195475E+02  0.44343777541E+03  0.44986204567E+03  0.00000000000E+00 0. -1.
         -5    1    3    3    0  503 -0.48519454046E+02 -0.21935548029E+02 -0.59688361327E+01  0.53786826389E+02  0.47000000000E+01 0.  1.
         13    1    4    4    0    0  0.26850341510E+02  0.27679972302E+01 -0.23141250105E+02  0.35554466727E+02  0.00000000000E+00 0. -1.
        -14    1    4    4    0    0  0.48381098242E+02  0.42309579793E+02  0.63043623947E+02  0.90029604740E+02  0.00000000000E+00 0.  1.
</event>
<event>
12    1  0.8331241E-002  0.1758831E+03  0.7818608E-02  0.1171864E+00
         21   -1    0    0  503  502  0.00000000000E+00  0.00000000000E+00  0.12309264455E+04  0.12309264455E+04  0.00000000000E+00 0. -1.
         21   -1    0    0  501  503 -0.00000000000E+00 -0.00000000000E+00 -0.12196356499E+03  0.12196356499E+03  0.00000000000E+00 0. -1.
          6    2    1    2  501    0  0.66134738835E+01 -0.34094880771E+02 -0.48262410139E+02  0.18238454793E+03  0.17242002250E+03 0.  0.
         24    2    3    3    0    0 -0.63985702343E+02 -0.58352804700E+02 -0.22010001287E+02  0.10311305540E+03  0.51464960079E+02 0.  0.
         -6    2    1    2    0  502 -0.66134738835E+01  0.34094880771E+02  0.11572252906E+04  0.11705054625E+04  0.17235563707E+03 0.  0.
        -24    2    5    5    0    0 -0.12609467726E+02  0.88595743830E+02  0.84338123969E+03  0.85187326968E+03  0.79924637213E+02 0.  0.
          5    1    3    3  501    0  0.70599176227E+02  0.24257923928E+02 -0.26252408853E+02  0.79271492529E+02  0.47000000000E+01 0. -1.
        -11    1    4    4    0    0 -0.32883556336E+02 -0.61113066115E+02 -0.17438098678E+02  0.71555729420E+02  0.00000000000E+00 0.  1.
         12    1    4    4    0    0 -0.31102146007E+02  0.27602614154E+01 -0.45719026088E+01  0.31557325977E+02  0.00000000000E+00 0. -1.
         -5    1    5    5    0  502  0.59959938422E+01 -0.54500863059E+02  0.31384405093E+03  0.31863219285E+03  0.47000000000E+01 0.  1.
         11    1    6    6    0    0  0.10850109971E+02  0.43884432670E+02  0.66354804549E+03  0.66508614254E+03  0.00000000000E+00 0. -1.
        -12    1    6    6    0    0 -0.23459577697E+02  0.44711311160E+02  0.17983319420E+03  0.18678712715E+03  0.00000000000E+00 0.  1.
</event>
<event>
12    1  0.8331241E-002  0.2816268E+03  0.7818608E-02  0.1094876E+00
         21   -1    0    0  501  502  0.00000000000E+00  0.00000000000E+00  0.30286625323E+04  0.30286625323E+04  0.00000000000E+00 0. -1.
         21   -1    0    0  502  503 -0.00000000000E+00 -0.00000000000E+00 -0.50976324262E+02  0.50976324262E+02  0.00000000000E+00 0.  1.
         -6    2    1    2    0  503 -0.85817616098E+02  0.20555429533E+03  0.41327504576E+03  0.49980973821E+03  0.17145343215E+03 0.  0.
        -24    2    3    3    0    0 -0.26668167324E+02  0.19761076786E+03  0.36194164356E+03  0.42094932291E+03  0.80220772836E+02 0.  0.
          6    2    1    2  501    0  0.85817616098E+02 -0.20555429533E+03  0.25644111623E+04  0.25798291184E+04  0.17232654801E+03 0.  0.
         24    2    5    5    0    0 -0.14930501350E+02 -0.88711028020E+02  0.83900853288E+03  0.84753617090E+03  0.79307479922E+02 0.  0.
          5    1    5    5  501    0  0.10074811745E+03 -0.11684326731E+03  0.17254026294E+04  0.17322929475E+04  0.47000000000E+01 0. -1.
        -13    1    6    6    0    0 -0.31919665946E+02 -0.65443893507E+01  0.15408189575E+03  0.15748944315E+03  0.00000000000E+00 0.  1.
         14    1    6    6    0    0  0.16989164596E+02 -0.82166638670E+02  0.68492663713E+03  0.69004672775E+03  0.00000000000E+00 0. -1.
         -5    1    3    3    0  503 -0.59149448774E+02  0.79435274699E+01  0.51333402206E+02  0.78860415298E+02  0.47000000000E+01 0.  1.
         13    1    4    4    0    0 -0.34199049498E+02  0.33392776934E+02  0.11222566069E+03  0.12198053720E+03  0.00000000000E+00 0. -1.
        -14    1    4    4    0    0  0.75308821746E+01  0.16421799092E+03  0.24971598287E+03  0.29896878571E+03  0.00000000000E+00 0.  1.
</event>
<event>
12    1  0.8331241E-002  0.1796348E+03  0.7818608E-02  0.1171818E+00
         21   -1    0    0  501  502  0.00000000000E+00  0.00000000000E+00  0.75648427874E+03  0.75648427874E+03  0.00000000000E+00 0. -1.
         21   -1    0    0  502  503 -0.00000000000E+00 -0.00000000000E+00 -0.39526093615E+02  0.39526093615E+02  0.00000000000E+00 0.  1.
         -6    2    1    2    0  503 -0.49425180103E+02  0.30266427713E+02  0.40357424046E+03  0.44174748827E+03  0.17002873508E+03 0.  0.
        -24    2    3    3    0    0 -0.65389646846E+02  0.73471667295E+01  0.40001648916E+03  0.41320095929E+03  0.79950324485E+02 0.  0.
          6    2    1    2  501    0  0.49425180103E+02 -0.30266427713E+02  0.31338394467E+03  0.35426288409E+03  0.15470549180E+03 0.  0.
         24    2    5    5    0    0 -0.21554619916E+02 -0.41019005850E+02  0.15061855616E+03  0.17630667699E+03  0.79062851026E+02 0.  0.
          5    1    5    5  501    0  0.70979800019E+02  0.10752578136E+02  0.16276538851E+03  0.17795620710E+03  0.47000000000E+01 0. -1.
        -11    1    6    6    0    0 -0.41056237539E+01 -0.56536946582E+01 -0.92803325690E+01  0.11616582212E+02  0.00000000000E+00 0.  1.
         12    1    6    6    0    0 -0.17448996162E+02 -0.35365311191E+02  0.15989888872E+03  0.16469009478E+03  0.00000000000E+00 0. -1.
         -5    1    3    3    0  503  0.15964466743E+02  0.22919260984E+02  0.35577513018E+01  0.28546528979E+02  0.47000000000E+01 0.  1.
         11    1    4    4    0    0 -0.29239872000E+02 -0.13538303308E+02  0.33081881788E+03  0.33238433482E+03  0.00000000000E+00 0. -1.
        -12    1    4    4    0    0 -0.36149774846E+02  0.20885470037E+02  0.69197671283E+02  0.80816624472E+02  0.00000000000E+00 0.  1.
</event>
<event>
12    1  0.8331241E-002  0.1815407E+03  0.7818608E-02  0.1166527E+00
         21   -1    0    0  503  502  0.00000000000E+00  0.00000000000E+00  0.36520352350E+03  0.36520352350E+03  0.00000000000E+00 0. -1.
         21   -1    0    0  501  503 -0.00000000000E+00 -0.00000000000E+00 -0.17194734008E+03  0.17194734008E+03  0.00000000000E+00 0. -1.
          6    2    1    2  501    0 -0.25494589078E+02  0.55999518345E+02 -0.88872511680E+02  0.20212706102E+03  0.17079550737E+03 0.  0.
         24    2    3    3    0    0 -0.61361148443E+02  0.19505237329E+02  0.10936184229E+01  0.98520897148E+02  0.74562231405E+02 0.  0.
         -6    2    1    2    0  502  0.25494589078E+02 -0.55999518345E+02  0.28212869510E+03  0.33502380256E+03  0.16987768410E+03 0.  0.
        -24    2    5    5    0    0  0.79270618301E+02 -0.44359979713E+02  0.22464414462E+03  0.25531242494E+03  0.80422657812E+02 0.  0.
          5    1    3    3  501    0  0.35866559365E+02  0.36494281016E+02 -0.89966130103E+02  0.10360616388E+03  0.47000000000E+01 0. -1.
        -11    1    4    4    0    0 -0.14358065953E+02  0.34116186584E+02  0.24119865746E+02  0.44179589954E+02  0.00000000000E+00 0.  1.
         12    1    4    4    0    0 -0.47003082490E+02 -0.14610949255E+02 -0.23026247323E+02  0.54341307194E+02  0.00000000000E+00 0. -1.
         -5    1    5    5    0  502 -0.53776029223E+02 -0.11639538632E+02  0.57484550480E+02  0.79711377622E+02  0.47000000000E+01 0.  1.
         13    1    6    6    0    0  0.73262417400E+01 -0.30609924622E+02  0.13945928771E+03  0.14296689908E+03  0.00000000000E+00 0. -1.
        -14    1    6    6    0    0  0.71944376561E+02 -0.13750055091E+02  0.85184856908E+02  0.11234552586E+03  0.00000000000E+00 0.  1.
</event>
<event>
12    1  0.8331241E-002  0.2139570E+03  0.7818608E-02  0.1139180E+00
         21   -1    0    0  501  502  0.00000000000E+00  0.00000000000E+00  0.36575234498E+03  0.36575234498E+03  0.00000000000E+00 0.  1.
         21   -1    0    0  502  503 -0.00000000000E+00 -0.00000000000E+00 -0.16128446539E+03  0.16128446539E+03  0.00000000000E+00 0. -1.
         -6    2    1    2    0  503  0.10383432187E+03 -0.62387935544E+02 -0.26755048129E+02  0.21201043109E+03  0.17192663956E+03 0.  0.
        -24    2    3    3    0    0  0.13245044802E+03 -0.27297504109E+02 -0.45023664001E+02  0.16295889309E+03  0.78994908739E+02 0.  0.
          6    2    1    2  501    0 -0.10383432187E+03  0.62387935544E+02  0.23122292772E+03  0.31502637928E+03  0.17636257097E+03 0.  0.
         24    2    5    5    0    0 -0.89914974856E+01  0.72846972768E+02  0.72251913182E+02  0.12955825194E+03  0.78596903363E+02 0.  0.
          5    1    5    5  501    0 -0.94842824385E+02 -0.10459037224E+02  0.15897101454E+03  0.18546812734E+03  0.47000000000E+01 0. -1.
        -11    1    6    6    0    0 -0.28656493492E+02  0.42170852384E+02  0.77476014955E+02  0.92747551468E+02  0.00000000000E+00 0.  1.
         12    1    6    6    0    0  0.19664996006E+02  0.30676120383E+02 -0.52241017732E+01  0.36810700469E+02  0.00000000000E+00 0. -1.
         -5    1    3    3    0  503 -0.28616126150E+02 -0.35090431435E+02  0.18268615872E+02  0.49051537998E+02  0.47000000000E+01 0.  1.
         13    1    4    4    0    0  0.26857864067E+02 -0.32840159638E+02 -0.38055483566E+02  0.56991585140E+02  0.00000000000E+00 0. -1.
        -14    1    4    4    0    0  0.10559258395E+03  0.55426555289E+01 -0.69681804349E+01  0.10596730795E+03  0.00000000000E+00 0.  1.
</event>
<event>
12    1  0.8331241E-002  0.1865839E+03  0.7818608E-02  0.1161759E+00
         21   -1    0    0  501  502  0.00000000000E+00  0.00000000000E+00  0.69813010569E+02  0.69813010569E+02  0.00000000000E+00 0.  1.
         21   -1    0    0  502  503 -0.00000000000E+00 -0.00000000000E+00 -0.49658872480E+03  0.49658872480E+03  0.00000000000E+00 0.  1.
         -6    2    1    2    0  503  0.58324321350E+02 -0.44906577442E+02 -0.21387203587E+03  0.28382178317E+03  0.17145037100E+03 0.  0.
        -24    2    3    3    0    0 -0.25657832715E+02 -0.40546253156E+02 -0.60527756251E+02  0.10886872455E+03  0.76723313816E+02 0.  0.
          6    2    1    2  501    0 -0.58324321350E+02  0.44906577442E+02 -0.21290367836E+03  0.28257995220E+03  0.17060224491E+03 0.  0.
         24    2    5    5    0    0 -0.26632072981E+02 -0.21633753354E+02 -0.17809739227E+03  0.20093693792E+03  0.86485173826E+02 0.  0.
          5    1    5    5  501    0 -0.31692248369E+02  0.66540330796E+02 -0.34806286086E+02  0.81643014277E+02  0.47000000000E+01 0. -1.
        -13    1    6    6    0    0 -0.46154221361E+02  0.66721203034E+01 -0.14822588353E+03  0.15538868005E+03  0.00000000000E+00 0.  1.
         14    1    6    6    0    0  0.19522148380E+02 -0.28305873657E+02 -0.29871508745E+02  0.45548257877E+02  0.00000000000E+00 0. -1.
         -5    1    3    3    0  503  0.83982154065E+02 -0.43603242864E+01 -0.15334427962E+03  0.17495305862E+03  0.47000000000E+01 0.  1.
         11    1    4    4    0    0 -0.36543677728E+02 -0.72734440113E+01 -0.63615703971E+02  0.73724494989E+02  0.00000000000E+00 0. -1.
        -12    1    4    4    0    0  0.10885845012E+02 -0.33272809144E+02  0.30879477205E+01  0.35144229557E+02  0.00000000000E+00 0.  1.
</event>
<event>
12    1  0.8331241E-002  0.2744788E+03  0.7818608E-02  0.1099576E+00
         21   -1    0    0  501  502  0.00000000000E+00  0.00000000000E+00  0.84606990352E+03  0.84606990352E+03  0.00000000000E+00 0. -1.
         21   -1    0    0  502  503 -0.00000000000E+00 -0.00000000000E+00 -0.19340110409E+03  0.19340110409E+03  0.00000000000E+00 0.  1.
         -6    2    1    2    0  503  0.64098550751E+02 -0.20023542509E+03 -0.57294738263E+02  0.28039490591E+03  0.17645329851E+03 0.  0.
        -24    2    3    3    0    0  0.99270910431E+01 -0.13866659499E+03  0.27083057227E+02  0.16263680530E+03  0.79939144014E+02 0.  0.
          6    2    1    2  501    0 -0.64098550751E+02  0.20023542509E+03  0.70996353770E+03  0.75907610171E+03  0.16716893748E+03 0.  0.
         24    2    5    5    0    0 -0.69567225053E+02  0.65425483669E+02  0.23924769820E+03  0.26938322014E+03  0.78789374193E+02 0.  0.
          5    1    5    5  501    0  0.54686743022E+01  0.13480994143E+03  0.47071583949E+03  0.48969288157E+03  0.47000000000E+01 0. -1.
        -11    1    6    6    0    0 -0.13222080547E+02  0.36866416167E+02  0.26084374324E+02  0.47056887263E+02  0.00000000000E+00 0.  1.
         12    1    6    6    0    0 -0.56345144506E+02  0.28559067502E+02  0.21316332388E+03  0.22232633288E+03  0.00000000000E+00 0. -1.
         -5    1    3    3    0  503  0.54171459707E+02 -0.61568830100E+02 -0.84377795490E+02  0.11775810061E+03  0.47000000000E+01 0.  1.
         11    1    4    4    0    0  0.18792161086E+02 -0.14164119679E+03  0.38403923636E+02  0.14795349032E+03  0.00000000000E+00 0. -1.
        -12    1    4    4    0    0 -0.88650700434E+01  0.29746017935E+01 -0.11320866409E+02  0.14683314985E+02  0.00000000000E+00 0.  1.
</event>
<event>
12    1  0.8331241E-002  0.1946788E+03  0.7818608E-02  0.1154576E+00
         21   -1    0    0  503  502  0.00000000000E+00  0.00000000000E+00  0.10008035453E+03  0.10008035453E+03  0.00000000000E+00 0.  1.
         21   -1    0    0  501  503 -0.00000000000E+00 -0.00000000000E+00 -0.39794810265E+03  0.39794810265E+03  0.00000000000E+00 0.  1.
          6    2    1    2  501    0 -0.75583309664E+02  0.48856426541E+02 -0.20743162942E+03  0.28447793751E+03  0.17262684880E+03 0.  0.
         24    2    3    3    0    0 -0.79535779819E+02 -0.24279735256E+02 -0.90404526372E+02  0.14634049497E+03  0.79543172321E+02 0.  0.
         -6    2    1    2    0  502  0.75583309664E+02 -0.48856426541E+02 -0.90436118699E+02  0.21355051968E+03  0.17124644749E+03 0.  0.
        -24    2    5    5    0    0  0.18399815054E+02 -0.11336798340E+02  0.17080599575E+02  0.86037346775E+02  0.81508293857E+02 0.  0.
          5    1    3    3  501    0  0.39524701546E+01  0.73136161797E+02 -0.11702710305E+03  0.13813744254E+03  0.47000000000E+01 0. -1.
        -11    1    4    4    0    0  0.27154920570E+01 -0.12926472210E+02 -0.54152987264E+02  0.55740592126E+02  0.00000000000E+00 0.  1.
         12    1    4    4    0    0 -0.82251271876E+02 -0.11353263046E+02 -0.36251539108E+02  0.90599902840E+02  0.00000000000E+00 0. -1.
         -5    1    5    5    0  502  0.57183494611E+02 -0.37519628201E+02 -0.10751671827E+03  0.12751317291E+03  0.47000000000E+01 0.  1.
         11    1    6    6    0    0  0.44002346187E+02  0.46174452616E+01 -0.10155605286E+02  0.45394532594E+02  0.00000000000E+00 0. -1.
        -12    1    6    6    0    0 -0.25602531133E+02 -0.15954243601E+02  0.27236204861E+02  0.40642814181E+02  0.00000000000E+00 0.  1.
</event>
<event>
12    1  0.8331241E-002  0.1931850E+03  0.7818608E-02  0.1155631E+00
         21   -1    0    0  503  502  0.00000000000E+00  0.00000000000E+00  0.20120125327E+03  0.20120125327E+03  0.00000000000E+00 0. -1.
         21   -1    0    0  501  503 -0.00000000000E+00 -0.00000000000E+00 -0.20597532903E+03  0.20597532903E+03  0.00000000000E+00 0.  1.
          6    2    1    2  501    0  0.34150023585E+02 -0.82019647221E+02 -0.66671048540E+02  0.20436606196E+03  0.17154303229E+03 0.  0.
         24    2    3    3    0    0 -0.41166274474E+02 -0.31973719657E+02 -0.58488917352E+02  0.11344754410E+03  0.82051269984E+02 0.  0.
         -6    2    1    2    0  502 -0.34150023585E+02  0.82019647221E+02  0.61896972783E+02  0.20281052034E+03  0.17148593318E+03 0.  0.
        -24    2    5    5    0    0  0.23573261571E+02  0.11748154605E+02  0.70162602545E+02  0.11137490934E+03  0.82388481212E+02 0.  0.
          5    1    3    3  501    0  0.75316298060E+02 -0.50045927564E+02 -0.81821311886E+01  0.90918517861E+02  0.47000000000E+01 0. -1.
        -11    1    4    4    0    0 -0.41438353395E+02  0.19190504781E+02 -0.22615607301E+02  0.50959575150E+02  0.00000000000E+00 0.  1.
         12    1    4    4    0    0  0.27207892104E+00 -0.51164224437E+02 -0.35873310050E+02  0.62487968947E+02  0.00000000000E+00 0. -1.
         -5    1    5    5    0  502 -0.57723285157E+02  0.70271492616E+02 -0.82656297627E+01  0.91435611001E+02  0.47000000000E+01 0.  1.
         11    1    6    6    0    0  0.26349248752E+02 -0.21877076385E+02  0.81726871504E+00  0.34257222729E+02  0.00000000000E+00 0. -1.
        -12    1    6    6    0    0 -0.27759871804E+01  0.33625230990E+02  0.69345333830E+02  0.77117686609E+02  0.00000000000E+00 0.  1.
</event>
<event>
12    1  0.8331241E-002  0.2914879E+03  0.7818608E-02  0.1090021E+00
         21   -1    0    0  503  502  0.00000000000E+00  0.00000000000E+00  0.23422829239E+03  0.23422829239E+03  0.00000000000E+00 0.  1.
         21   -1    0    0  501  503 -0.00000000000E+00 -0.00000000000E+00 -0.56516933632E+03  0.56516933632E+03  0.00000000000E+00 0. -1.
          6    2    1    2  501    0 -0.38230721818E+02  0.23147574142E+03  0.75609347972E+02  0.30113446431E+03  0.17298145895E+03 0.  0.
         24    2    3    3    0    0 -0.45156119291E+02  0.12727662589E+03 -0.18095123641E+02  0.16074915594E+03  0.85290345453E+02 0.  0.
         -6    2    1    2    0  502  0.38230721818E+02 -0.23147574142E+03 -0.40655039190E+03  0.49826316439E+03  0.16715368042E+03 0.  0.
        -24    2    5    5    0    0  0.81085514263E+02 -0.15068353651E+03 -0.32367236861E+03  0.37475296095E+03  0.79972437380E+02 0.  0.
          5    1    3    3  501    0  0.69253974733E+01  0.10419911553E+03  0.93704471613E+02  0.14038530838E+03  0.47000000000E+01 0. -1.
        -11    1    4    4    0    0 -0.27044540381E+02  0.10411942498E+03  0.23210219046E+02  0.11004988001E+03  0.00000000000E+00 0.  1.
         12    1    4    4    0    0 -0.18111578910E+02  0.23157200906E+02 -0.41305342687E+02  0.50699275921E+02  0.00000000000E+00 0. -1.
         -5    1    5    5    0  502 -0.42854792446E+02 -0.80792204912E+02 -0.82878023296E+02  0.12351020345E+03  0.47000000000E+01 0.  1.
         13    1    6    6    0    0  0.54428348278E+02 -0.26302966470E+02 -0.12494225581E+03  0.13879790498E+03  0.00000000000E+00 0. -1.
        -14    1    6    6    0    0  0.26657165986E+02 -0.12438057004E+03 -0.19873011280E+03  0.23595505596E+03  0.00000000000E+00 0.  1.
</event>
<event>
12    1  0.8331241E-002  0.2498943E+03  0.7818608E-02  0.1113734E+00
         21   -1    0    0  501  502  0.00000000000E+00  0.00000000000E+00  0.82460949527E+03  0.82460949527E+03  0.00000000000E+00 0. -1.
         21   -1    0    0  502  503 -0.00000000000E+00 -0.00000000000E+00 -0.94994773867E+02  0.94994773867E+02  0.00000000000E+00 0. -1.
         -6    2    1    2    0  503  0.17391052253E+03 -0.39315354754E+02  0.57687193043E+03  0.62867193598E+03  0.17509029670E+03 0.  0.
        -24    2    3    3    0    0  0.92516468467E+02 -0.51165256284E+02  0.49516693230E+03  0.51264086720E+03  0.80207153601E+02 0.  0.
          6    2    1    2  501    0 -0.17391052253E+03  0.39315354754E+02  0.15274279097E+03  0.29093233316E+03  0.17181587621E+03 0.  0.
         24    2    5    5    0    0 -0.18088932192E+03 -0.59833735667E+01  0.14744783744E+03  0.24455556137E+03  0.72868445075E+02 0.  0.
          5    1    5    5  501    0  0.69787993970E+01  0.45298728320E+02  0.52949535320E+01  0.46376771787E+02  0.47000000000E+01 0. -1.
        -13    1    6    6    0    0 -0.15837862725E+03 -0.24497519465E+02  0.10009668691E+03  0.18895307555E+03  0.00000000000E+00 0.  1.
         14    1    6    6    0    0 -0.22510694671E+02  0.18514145898E+02  0.47351150530E+02  0.55602485820E+02  0.00000000000E+00 0. -1.
         -5    1    3    3    0  503  0.81394054059E+02  0.11849901530E+02  0.81704998132E+02  0.11603106878E+03  0.47000000000E+01 0.  1.
         11    1    4    4    0    0  0.34161314528E+02 -0.64031739218E+02  0.29053965481E+03  0.29946677621E+03  0.00000000000E+00 0. -1.
        -12    1    4    4    0    0  0.58355153939E+02  0.12866482934E+02  0.20462727750E+03  0.21317409099E+03  0.00000000000E+00 0.  1.
</event>
<event>
12    1  0.8331241E-002  0.2715850E+03  0.7818608E-02  0.1100707E+00
         21   -1    0    0  503  502  0.00000000000E+00  0.00000000000E+00  0.30209769942E+03  0.30209769942E+03  0.00000000000E+00 0. -1.
         21   -1    0    0  501  503 -0.00000000000E+00 -0.00000000000E+00 -0.27967116583E+03  0.27967116583E+03  0.00000000000E+00 0.  1.
          6    2    1    2  501    0  0.19299619123E+03 -0.85472322054E+02 -0.95485694802E+02  0.28569164225E+03  0.16717998946E+03 0.  0.
         24    2    3    3    0    0  0.60185986031E+02 -0.39766264938E+02 -0.97499756157E+02  0.14514364083E+03  0.79729325095E+02 0.  0.
         -6    2    1    2    0  502 -0.19299619123E+03  0.85472322054E+02  0.11791222839E+03  0.29607722300E+03  0.17089581829E+03 0.  0.
        -24    2    5    5    0    0 -0.91567688420E+02  0.11215706894E+03  0.55176068273E+02  0.17377541318E+03  0.78674303556E+02 0.  0.
          5    1    3    3  501    0  0.13281020520E+03 -0.45706057115E+02  0.20140613550E+01  0.14054800142E+03  0.47000000000E+01 0. -1.
        -11    1    4    4    0    0  0.35635687858E+02  0.20769304457E+02 -0.28553321943E+02  0.50165311229E+02  0.00000000000E+00 0.  1.
         12    1    4    4    0    0  0.24550298173E+02 -0.60535569395E+02 -0.68946434213E+02  0.94978329598E+02  0.00000000000E+00 0. -1.
         -5    1    5    5    0  502 -0.10142850281E+03 -0.26684746890E+02  0.62736160122E+02  0.12230180982E+03  0.47000000000E+01 0.  1.
         11    1    6    6    0    0 -0.45379198836E+02  0.18658333186E+02  0.48945736167E+02  0.69304330118E+02  0.00000000000E+00 0. -1.
        -12    1    6    6    0    0 -0.46188489584E+02  0.93498735758E+02  0.62303321060E+01  0.10447108306E+03  0.00000000000E+00 0.  1.
</event>
<event>
12    1  0.8331241E-002  0.1970257E+03  0.7818608E-02  0.1152389E+00
         21   -1    0    0  501  502  0.00000000000E+00  0.00000000000E+00  0.33952074352E+03  0.33952074352E+03  0.00000000000E+00 0. -1.
         21   -1    0    0  502  503 -0.00000000000E+00 -0.00000000000E+00 -0.11558484752E+03  0.11558484752E+03  0.00000000000E+00 0. -1.
         -6    2    1    2    0  503  0.73182262179E+02  0.60197085476E+02  0.85374181484E+02  0.21423536709E+03  0.17212991910E+03 0.  0.
        -24    2    3    3    0    0  0.98670509234E+02  0.16192895546E+02  0.99189373375E+02  0.16133008383E+03  0.78681541034E+02 0.  0.
          6    2    1    2  501    0 -0.73182262179E+02 -0.60197085476E+02  0.13856171451E+03  0.24087022396E+03  0.17274195629E+03 0.  0.
         24    2    5    5    0    0 -0.81796730279E+02 -0.70976840672E+02  0.38408004455E+02  0.13966119363E+03  0.79382978041E+02 0.  0.
          5    1    5    5  501    0  0.86144680995E+01  0.10779755196E+02  0.10015371005E+03  0.10120903033E+03  0.47000000000E+01 0. -1.
        -11    1    6    6    0    0 -0.16119811165E+02 -0.11329643873E+02 -0.24102473629E+02  0.31130987413E+02  0.00000000000E+00 0.  1.
         12    1    6    6    0    0 -0.65676919114E+02 -0.59647196799E+02  0.62510478084E+02  0.10853020621E+03  0.00000000000E+00 0. -1.
         -5    1    3    3    0  503 -0.25488247055E+02  0.44004189930E+02 -0.13815191891E+02  0.52905283255E+02  0.47000000000E+01 0.  1.
         13    1    4    4    0    0  0.10185310797E+03  0.66134850209E+01  0.54881465503E+02  0.11588688037E+03  0.00000000000E+00 0. -1.
        -14    1    4    4    0    0 -0.31825987310E+01  0.95794105250E+01  0.44307907872E+02  0.45443203460E+02  0.00000000000E+00 0.  1.
</event>
<event>
12    1  0.8331241E-002  0.1928412E+03  0.7818608E-02  0.1156101E+00
         21   -1    0    0  501  502  0.00000000000E+00  0.00000000000E+00  0.80624150896E+02  0.80624150896E+02  0.00000000000E+00 0.  1.
         21   -1    0    0  502  503 -0.00000000000E+00 -0.00000000000E+00 -0.73316915530E+03  0.73316915530E+03  0.00000000000E+00 0.  1.
         -6    2    1    2    0  503  0.76712432241E+02  0.32430952343E+02 -0.57537088230E+03  0.60682731953E+03  0.17392866237E+03 0.  0.
        -24    2    3    3    0    0  0.10831920958E+02  0.67309175648E+02 -0.44239522164E+03  0.45431060386E+03  0.77696441460E+02 0.  0.
          6    2    1    2  501    0 -0.76712432241E+02 -0.32430952343E+02 -0.77174122104E+02  0.20696598667E+03  0.17303904353E+03 0.  0.
         24    2    5    5    0    0 -0.24134971476E+02 -0.59047288131E+02  0.86322161069E+01  0.10276600400E+03  0.80107785762E+02 0.  0.
          5    1    5    5  501    0 -0.52577460766E+02  0.26616335788E+02 -0.85806338211E+02  0.10419998267E+03  0.47000000000E+01 0. -1.
        -13    1    6    6    0    0  0.76073449835E+00 -0.58136446065E+02 -0.22979358827E+02  0.62517805545E+02  0.00000000000E+00 0.  1.
         14    1    6    6    0    0 -0.24895705974E+02 -0.91084206612E+00  0.31611574934E+02  0.40248198457E+02  0.00000000000E+00 0. -1.
         -5    1    3    3    0  503  0.65880511283E+02 -0.34878223305E+02 -0.13297566066E+03  0.15251671566E+03  0.47000000000E+01 0.  1.
         13    1    4    4    0    0  0.17092530704E+02  0.26483877491E+02 -0.45964184709E+02  0.55733801672E+02  0.00000000000E+00 0. -1.
        -14    1    4    4    0    0 -0.62606097456E+01  0.40825298158E+02 -0.39643103693E+03  0.39857680219E+03  0.00000000000E+00 0.  1.
</event>
<event>
12    1  0.8331241E-002  0.1940850E+03  0.7818608E-02  0.1154909E+00
         21   -1    0    0  503  502  0.00000000000E+00  0.00000000000E+00  0.34358548015E+03  0.34358548015E+03  0.00000000000E+00 0.  1.
         21   -1    0    0  501  503 -0.00000000000E+00 -0.00000000000E+00 -0.12188979508E+03  0.12188979508E+03  0.00000000000E+00 0.  1.
          6    2    1    2  501    0 -0.73530166241E+02  0.49770325028E+02  0.18536850886E+03  0.26838489875E+03  0.17258389031E+03 0.  0.
         24    2    3    3    0    0 -0.81127824128E+02  0.76253513556E+02  0.77301125326E+02  0.15676172434E+03  0.78755647822E+02 0.  0.
         -6    2    1    2    0  502  0.73530166241E+02 -0.49770325028E+02  0.36327176212E+02  0.19709037648E+03  0.17216614699E+03 0.  0.
        -24    2    5    5    0    0 -0.10303436863E+02 -0.15526888150E+02 -0.18408516934E+02  0.91171671418E+02  0.87327859854E+02 0.  0.
          5    1    3    3  501    0  0.75976578864E+01 -0.26483188528E+02  0.10806738354E+03  0.11162317441E+03  0.47000000000E+01 0. -1.
        -11    1    4    4    0    0 -0.46678962932E+02  0.35623525590E+02 -0.47768274587E+01  0.58913319687E+02  0.00000000000E+00 0.  1.
         12    1    4    4    0    0 -0.34448861195E+02  0.40629987965E+02  0.82077952784E+02  0.97848404652E+02  0.00000000000E+00 0. -1.
         -5    1    5    5    0  502  0.83833603105E+02 -0.34243436878E+02  0.54735693146E+02  0.10591870507E+03  0.47000000000E+01 0.  1.
         11    1    6    6    0    0 -0.40339857715E+02 -0.14745901906E+02  0.15687476795E+02  0.45725733145E+02  0.00000000000E+00 0. -1.
        -12    1    6    6    0    0  0.30036420852E+02 -0.78098624405E+00 -0.34095993729E+02  0.45445938272E+02  0.00000000000E+00 0.  1.
</event>
<event>
12    1  0.8331241E-002  0.2010072E+03  0.7818608E-02  0.1149144E+00
         21   -1    0    0  503  502  0.00000000000E+00  0.00000000000E+00  0.68220174595E+02  0.68220174595E+02  0.00000000000E+00 0. -1.
         21   -1    0    0  501  503 -0.00000000000E+00 -0.00000000000E+00 -0.61604112193E+03  0.61604112193E+03  0.00000000000E+00 0.  1.
          6    2    1    2  501    0  0.81631038804E+01 -0.10439167633E+03 -0.34516390374E+03  0.39882520860E+03  0.17017393519E+03 0.  0.
         24    2    3    3    0    0  0.16453165470E+02  0.11404473367E+01 -0.78073642086E+02  0.11148385739E+03  0.77853385252E+02 0.  0.
         -6    2    1    2    0  502 -0.81631038804E+01  0.10439167633E+03 -0.20265704359E+03  0.28543608792E+03  0.17157979082E+03 0.  0.
        -24    2    5    5    0    0 -0.90609742689E+01  0.13967250156E+03 -0.14282568763E+03  0.21581264391E+03  0.81150546978E+02 0.  0.
          5    1    3    3  501    0 -0.82900615897E+01 -0.10553212367E+03 -0.26709026166E+03  0.28734135122E+03  0.47000000000E+01 0. -1.
        -11    1    4    4    0    0  0.34340902415E+02 -0.27849127213E+02 -0.53897886765E+02  0.69712650666E+02  0.00000000000E+00 0.  1.
         12    1    4    4    0    0 -0.17887736945E+02  0.28989574550E+02 -0.24175755321E+02  0.41771206721E+02  0.00000000000E+00 0. -1.
         -5    1    5    5    0  502  0.89787038851E+00 -0.35280825232E+02 -0.59831355954E+02  0.69623444008E+02  0.47000000000E+01 0.  1.
         11    1    6    6    0    0  0.19996183697E+02  0.37591244738E+02 -0.65466298746E+01  0.43079083162E+02  0.00000000000E+00 0. -1.
        -12    1    6    6    0    0 -0.29057157966E+02  0.10208125683E+03 -0.13627905776E+03  0.17273356075E+03  0.00000000000E+00 0.  1.
</event>
<event>
12    1  0.8331241E-002  0.2091420E+03  0.7818608E-02  0.1142385E+00
         21   -1    0    0  503  502  0.00000000000E+00  0.00000000000E+00  0.10672172052E+04  0.10672172052E+04  0.00000000000E+00 0.  1.
         21   -1    0    0  501  503 -0.00000000000E+00 -0.00000000000E+00 -0.46713960592E+02  0.46713960592E+02  0.00000000000E+00 0.  1.
          6    2    1    2  501    0  0.19362412995E+02  0.11660136932E+03  0.31218543164E+03  0.37538224537E+03  0.17170120573E+03 0.  0.
         24    2    3    3    0    0 -0.29170642197E+02  0.13188805424E+03  0.24191437224E+03  0.28849581392E+03  0.80385856573E+02 0.  0.
         -6    2    1    2    0  502 -0.19362412995E+02 -0.11660136932E+03  0.70831781296E+03  0.73854892040E+03  0.17253869511E+03 0.  0.
        -24    2    5    5    0    0  0.30478318986E+02 -0.61756693801E+01  0.33185411309E+03  0.34304298987E+03  0.81143537642E+02 0.  0.
          5    1    3    3  501    0  0.48533055192E+02 -0.15286684911E+02  0.70271059400E+02  0.86886431455E+02  0.47000000000E+01 0. -1.
        -13    1    4    4    0    0 -0.21575770701E+02  0.96353029435E+02  0.94516844823E+02  0.13668523738E+03  0.00000000000E+00 0.  1.
         14    1    4    4    0    0 -0.75948714964E+01  0.35535024801E+02  0.14739752741E+03  0.15181057654E+03  0.00000000000E+00 0. -1.
         -5    1    5    5    0  502 -0.49840731981E+02 -0.11042569994E+03  0.37646369986E+03  0.39550593053E+03  0.47000000000E+01 0.  1.
         11    1    6    6    0    0 -0.10309926841E+02  0.14408365398E+02  0.15909058193E+02  0.23811629879E+02  0.00000000000E+00 0. -1.
        -12    1    6    6    0    0  0.40788245827E+02 -0.20584034778E+02  0.31594505490E+03  0.31923135999E+03  0.00000000000E+00 0.  1.
</event>
<event>
12    1  0.8331241E-002  0.3445650E+03  0.7818608E-02  0.1064907E+00
         21   -1    0    0  501  502  0.00000000000E+00  0.00000000000E+00  0.33338623932E+03  0.33338623932E+03  0.00000000000E+00 0. -1.
         21   -1    0    0  502  503 -0.00000000000E+00 -0.00000000000E+00 -0.42179859268E+03  0.42179859268E+03  0.00000000000E+00 0.  1.
         -6    2    1    2    0  503  0.28255516905E+03  0.97356060818E+02 -0.19362277908E+03  0.39491510443E+03  0.17074112859E+03 0.  0.
        -24    2    3    3    0    0  0.45171530085E+02  0.32572961142E+02 -0.69757578084E+02  0.11939283660E+03  0.79291013382E+02 0.  0.
          6    2    1    2  501    0 -0.28255516905E+03 -0.97356060818E+02  0.10521042571E+03  0.36026972757E+03  0.17149173971E+03 0.  0.
         24    2    5    5    0    0 -0.46165457690E+02 -0.46204232064E+02 -0.18688580113E+02  0.88479994748E+02  0.56686558368E+02 0.  0.
          5    1    5    5  501    0 -0.23638971136E+03 -0.51151828755E+02  0.12389900583E+03  0.27178973282E+03  0.47000000000E+01 0. -1.
        -11    1    6    6    0    0  0.82223799134E+00 -0.33131995341E+02  0.62114727217E+01  0.33719246492E+02  0.00000000000E+00 0.  1.
         12    1    6    6    0    0 -0.46987695682E+02 -0.13072236722E+02 -0.24900052834E+02  0.54760748256E+02  0.00000000000E+00 0. -1.
         -5    1    3    3    0  503  0.23738363896E+03  0.64783099676E+02 -0.12386520099E+03  0.27552226783E+03  0.47000000000E+01 0.  1.
         11    1    4    4    0    0  0.57993861361E+01  0.48431522998E+02 -0.57104532870E+02  0.75101085037E+02  0.00000000000E+00 0. -1.
        -12    1    4    4    0    0  0.39372143949E+02 -0.15858561855E+02 -0.12653045214E+02  0.44291751562E+02  0.00000000000E+00 0.  1.
</event>
<event>
12    1  0.8331241E-002  0.2236293E+03  0.7818608E-02  0.1131258E+00
         21   -1    0    0  501  502  0.00000000000E+00  0.00000000000E+00  0.17204568337E+04  0.17204568337E+04  0.00000000000E+00 0.  1.
         21   -1    0    0  502  503 -0.00000000000E+00 -0.00000000000E+00 -0.98359611821E+02  0.98359611821E+02  0.00000000000E+00 0. -1.
         -6    2    1    2    0  503 -0.16556940129E+02  0.14101529020E+03  0.47704364971E+02  0.22866082844E+03  0.17277333038E+03 0.  0.
        -24    2    3    3    0    0  0.23293929172E+02  0.18826906547E+02 -0.13635215655E+02  0.86173190257E+02  0.79641949165E+02 0.  0.
          6    2    1    2  501    0  0.16556940129E+02 -0.14101529020E+03  0.15743928569E+04  0.15901556170E+04  0.17240236164E+03 0.  0.
         24    2    5    5    0    0  0.29613606259E+02 -0.86427621782E+01  0.47441694128E+03  0.48215648907E+03  0.80322990254E+02 0.  0.
          5    1    5    5  501    0 -0.13056666130E+02 -0.13237252802E+03  0.10999759156E+04  0.11079991280E+04  0.47000000000E+01 0. -1.
        -13    1    6    6    0    0  0.44444437302E+02 -0.21490444954E+02  0.43814383189E+03  0.44091627851E+03  0.00000000000E+00 0.  1.
         14    1    6    6    0    0 -0.14830831043E+02  0.12847682776E+02  0.36273109394E+02  0.41240210562E+02  0.00000000000E+00 0. -1.
         -5    1    3    3    0  503 -0.39850869301E+02  0.12218838366E+03  0.61339580626E+02  0.14248763819E+03  0.47000000000E+01 0.  1.
         13    1    4    4    0    0  0.17673764076E+02  0.50163349614E+02 -0.10162034292E+02  0.54147857963E+02  0.00000000000E+00 0. -1.
        -14    1    4    4    0    0  0.56201650958E+01 -0.31336443066E+02 -0.34731813637E+01  0.32025332294E+02  0.00000000000E+00 0.  1.
</event>
<event>
12    1  0.8331241E-002  0.1746684E+03  0.7818608E-02  0.1173557E+00
         21   -1    0    0  503  502  0.00000000000E+00  0.00000000000E+00  0.24159710598E+03  0.24159710598E+03  0.00000000000E+00 0.  1.
         21   -1    0    0  501  503 -0.00000000000E+00 -0.00000000000E+00 -0.12789114297E+03  0.12789114297E+03  0.00000000000E+00 0.  1.
          6    2    1    2  501    0 -0.17220279049E+02 -0.62825057540E+01  0.28810391323E+02  0.17702849976E+03  0.17370389515E+03 0.  0.
         24    2    3    3    0    0 -0.27619664472E+02  0.60335773476E+02  0.14077480113E+01  0.10409608443E+03  0.80192029613E+02 0.  0.
         -6    2    1    2    0  502  0.17220279049E+02  0.62825057540E+01  0.84895571681E+02  0.19245974919E+03  0.17174833064E+03 0.  0.
        -24    2    5    5    0    0  0.52503854953E+02 -0.39659922882E+02  0.22193488115E+02  0.10696542914E+03  0.81360235057E+02 0.  0.
          5    1    3    3  501    0  0.10399385423E+02 -0.66618279231E+02  0.27402643312E+02  0.72932415326E+02  0.47000000000E+01 0. -1.
        -11    1    4    4    0    0 -0.48391727798E+02  0.11303607677E+02 -0.70027152397E+01  0.50185345337E+02  0.00000000000E+00 0.  1.
         12    1    4    4    0    0  0.20772063327E+02  0.49032165800E+02  0.84104632510E+01  0.53910739097E+02  0.00000000000E+00 0. -1.
         -5    1    5    5    0  502 -0.35283575904E+02  0.45942428636E+02  0.62702083566E+02  0.85494320052E+02  0.47000000000E+01 0.  1.
         11    1    6    6    0    0  0.18039705282E+02  0.22919682776E+02  0.20229736142E+02  0.35496268108E+02  0.00000000000E+00 0. -1.
        -12    1    6    6    0    0  0.34464149671E+02 -0.62579605658E+02  0.19637519730E+01  0.71469161033E+02  0.00000000000E+00 0.  1.
</event>
<event>
12    1  0.8331241E-002  0.1995038E+03  0.7818608E-02  0.1150748E+00
         21   -1    0    0  503  502  0.00000000000E+00  0.00000000000E+00  0.10637699823E+04  0.10637699823E+04  0.00000000000E+00 0. -1.
         21   -1    0    0  501  503 -0.00000000000E+00 -0.00000000000E+00 -0.36933706519E+02  0.36933706519E+02  0.00000000000E+00 0. -1.
          6    2    1    2  501    0 -0.92689251883E+02  0.24797190530E+02  0.53400051384E+03  0.57005114995E+03  0.17491588466E+03 0.  0.
         24    2    3    3    0    0 -0.16386751277E+02  0.37649825071E+02  0.43436164082E+03  0.44380830132E+03  0.81300297425E+02 0.  0.
         -6    2    1    2    0  502  0.92689251883E+02 -0.24797190530E+02  0.49283576195E+03  0.53065253887E+03  0.17175223634E+03 0.  0.
        -24    2    5    5    0    0  0.34918803216E+02  0.47666285891E+02  0.19665250142E+03  0.22027374776E+03  0.79730295438E+02 0.  0.
          5    1    3    3  501    0 -0.76302500606E+02 -0.12852634541E+02  0.99638873022E+02  0.12624284863E+03  0.47000000000E+01 0. -1.
        -11    1    4    4    0    0  0.17033452415E+02 -0.18729648283E+02  0.10755292833E+03  0.11049240073E+03  0.00000000000E+00 0.  1.
         12    1    4    4    0    0 -0.33420203692E+02  0.56379473355E+02  0.32680871249E+03  0.33331590059E+03  0.00000000000E+00 0. -1.
         -5    1    5    5    0  502  0.57770448667E+02 -0.72463476421E+02  0.29618326053E+03  0.31037879111E+03  0.47000000000E+01 0.  1.
         11    1    6    6    0    0  0.40717134317E+02 -0.63456277236E+01  0.11538141266E+03  0.12251947765E+03  0.00000000000E+00 0. -1.
        -12    1    6    6    0    0 -0.57983311011E+01  0.54011913614E+02  0.81271088765E+02  0.97754270110E+02  0.00000000000E+00 0.  1.
</event>
<event>
12    1  0.8331241E-002  0.2030049E+03  0.7818608E-02  0.1147488E+00
         21   -1    0    0  501  502  0.00000000000E+00  0.00000000000E+00  0.12072779541E+03  0.12072779541E+03  0.00000000000E+00 0. -1.
         21   -1    0    0  502  503 -0.00000000000E+00 -0.00000000000E+00 -0.64580117252E+03  0.64580117252E+03  0.00000000000E+00 0.  1.
         -6    2    1    2    0  503 -0.18476594442E+02  0.10313955002E+03 -0.52702181551E+03  0.56476806145E+03  0.17387299357E+03 0.  0.
        -24    2    3    3    0    0  0.45392960147E+02  0.61066140615E+02 -0.41278466426E+03  0.42721186018E+03  0.79556269843E+02 0.  0.
          6    2    1    2  501    0  0.18476594442E+02 -0.10313955002E+03  0.19484383930E+01  0.20176090647E+03  0.17240799184E+03 0.  0.
         24    2    5    5    0    0  0.92060302157E+01 -0.36929609493E+02 -0.62910886435E+02  0.10849504132E+03  0.79779993167E+02 0.  0.
          5    1    5    5  501    0  0.92705642267E+01 -0.66209940527E+02  0.64859324827E+02  0.93265865153E+02  0.47000000000E+01 0. -1.
        -11    1    6    6    0    0  0.17328471253E+02 -0.60151568473E+02 -0.52817695458E+02  0.81903577817E+02  0.00000000000E+00 0.  1.
         12    1    6    6    0    0 -0.81224410374E+01  0.23221958980E+02 -0.10093190976E+02  0.26591463505E+02  0.00000000000E+00 0. -1.
         -5    1    3    3    0  503 -0.63869554589E+02  0.42073409405E+02 -0.11423715125E+03  0.13755620127E+03  0.47000000000E+01 0.  1.
         11    1    4    4    0    0  0.11835884228E+02  0.62091299621E+02 -0.35327456775E+03  0.35888485321E+03  0.00000000000E+00 0. -1.
        -12    1    4    4    0    0  0.33557075919E+02 -0.10251590055E+01 -0.59510096509E+02  0.68327006972E+02  0.00000000000E+00 0.  1.
</event>
<event>
12    1  0.8331241E-002  0.2532123E+03  0.7818608E-02  0.1112286E+00
         21   -1    0    0  503  502  0.00000000000E+00  0.00000000000E+00  0.23781599140E+03  0.23781599140E+03  0.00000000000E+00 0. -1.
         21   -1    0    0  501  503 -0.00000000000E+00 -0.00000000000E+00 -0.26911633089E+03  0.26911633089E+03  0.00000000000E+00 0. -1.
          6    2    1    2  501    0  0.16858938275E+03  0.65913881304E+02 -0.54276947311E+02  0.25896418159E+03  0.17705773242E+03 0.  0.
         24    2    3    3    0    0  0.34421513181E+02  0.39036231568E+02  0.19168985900E+02  0.10359423473E+03  0.87496557099E+02 0.  0.
         -6    2    1    2    0  502 -0.16858938275E+03 -0.65913881304E+02  0.22976607820E+02  0.24796814071E+03  0.16790847082E+03 0.  0.
        -24    2    5    5    0    0 -0.92559230018E+02 -0.72224017202E+02  0.70729449485E+02  0.15784141977E+03  0.78279876394E+02 0.  0.
          5    1    3    3  501    0  0.13416786957E+03  0.26877649735E+02 -0.73445933211E+02  0.15536994686E+03  0.47000000000E+01 0. -1.
        -11    1    4    4    0    0  0.18695891860E+02  0.46572806203E+02 -0.25029042224E+02  0.56080438700E+02  0.00000000000E+00 0.  1.
         12    1    4    4    0    0  0.15725621321E+02 -0.75365746349E+01  0.44198028125E+02  0.47513796031E+02  0.00000000000E+00 0. -1.
         -5    1    5    5    0  502 -0.76030152734E+02  0.63101358984E+01 -0.47752841665E+02  0.90126720937E+02  0.47000000000E+01 0.  1.
         13    1    6    6    0    0 -0.23227980063E+02  0.16424669124E+02  0.16900288660E+02  0.33089704901E+02  0.00000000000E+00 0. -1.
        -14    1    6    6    0    0 -0.69331249955E+02 -0.88648686326E+02  0.53829160825E+02  0.12475171487E+03  0.00000000000E+00 0.  1.
</event>
<event>
12    1  0.8331241E-002  0.1751865E+03  0.7818608E-02  0.1173131E+00
         21   -1    0    0  503  502  0.00000000000E+00  0.00000000000E+00  0.64803508402E+03  0.64803508402E+03  0.00000000000E+00 0.  1.
         21   -1    0    0  501  503 -0.00000000000E+00 -0.00000000000E+00 -0.96706363480E+02  0.96706363480E+02  0.00000000000E+00 0.  1.
          6    2    1    2  501    0  0.27574317468E+02 -0.19234978530E+01  0.88764944354E+01  0.17541122109E+03  0.17299208508E+03 0.  0.
         24    2    3    3    0    0 -0.28281765451E+02  0.33384296482E+02 -0.32434783322E+02  0.97339113328E+02  0.80675388475E+02 0.  0.
         -6    2    1    2    0  502 -0.27574317468E+02  0.19234978530E+01  0.54245222610E+03  0.56933022641E+03  0.17064127952E+03 0.  0.
        -24    2    5    5    0    0 -0.62230657783E+02  0.38342983842E+02  0.45128658789E+03  0.46511552267E+03  0.85615570129E+02 0.  0.
          5    1    3    3  501    0  0.55856082919E+02 -0.35307794335E+02  0.41311277757E+02  0.78072107758E+02  0.47000000000E+01 0. -1.
        -11    1    4    4    0    0 -0.12621043901E+02 -0.23932131118E+01 -0.52066404056E+02  0.53627685476E+02  0.00000000000E+00 0.  1.
         12    1    4    4    0    0 -0.15660721549E+02  0.35777509594E+02  0.19631620734E+02  0.43711427852E+02  0.00000000000E+00 0. -1.
         -5    1    5    5    0  502  0.34656340315E+02 -0.36419485989E+02  0.91165638215E+02  0.10421470374E+03  0.47000000000E+01 0.  1.
         11    1    6    6    0    0 -0.52329588797E+02 -0.11942454915E+02  0.14593706939E+03  0.15549481122E+03  0.00000000000E+00 0. -1.
        -12    1    6    6    0    0 -0.99010689860E+01  0.50285438757E+02  0.30534951849E+03  0.30962071145E+03  0.00000000000E+00 0.  1.
</event>
<event>
12    1  0.8331241E-002  0.1728189E+03  0.7818608E-02  0.1175572E+00
         21   -1    0    0  501  502  0.00000000000E+00  0.00000000000E+00  0.15046888068E+03  0.15046888068E+03  0.00000000000E+00 0.  1.
         21   -1    0    0  502  503 -0.00000000000E+00 -0.00000000000E+00 -0.19794697749E+03  0.19794697749E+03  0.00000000000E+00 0.  1.
         -6    2    1    2    0  503 -0.64616439062E+01 -0.21776066248E+02 -0.42241328539E+02  0.17551765335E+03  0.16883769395E+03 0.  0.
        -24    2    3    3    0    0  0.81164721959E-01  0.46075041670E+02 -0.54322166721E+02  0.10613020606E+03  0.78675325155E+02 0.  0.
          6    2    1    2  501    0  0.64616439062E+01  0.21776066248E+02 -0.52367682672E+01  0.17289820482E+03  0.17131962988E+03 0.  0.
         24    2    5    5    0    0  0.41345937058E+02  0.37950820190E+02  0.46197037216E+02  0.10850827610E+03  0.80561333591E+02 0.  0.
          5    1    5    5  501    0 -0.34884293152E+02 -0.16174753941E+02 -0.51433805483E+02  0.64389928717E+02  0.47000000000E+01 0. -1.
        -13    1    6    6    0    0  0.15301586268E+02 -0.10844682718E+02 -0.16443807386E+02  0.24942824358E+02  0.00000000000E+00 0.  1.
         14    1    6    6    0    0  0.26044350790E+02  0.48795502908E+02  0.62640844602E+02  0.83565451740E+02  0.00000000000E+00 0. -1.
         -5    1    3    3    0  503 -0.65428086281E+01 -0.67851107918E+02  0.12080838183E+02  0.69387447292E+02  0.47000000000E+01 0.  1.
         13    1    4    4    0    0  0.11383434211E+02  0.41010973344E+02  0.73806511078E+01  0.43196718855E+02  0.00000000000E+00 0. -1.
        -14    1    4    4    0    0 -0.11302269489E+02  0.50640683262E+01 -0.61702817829E+02  0.62933487204E+02  0.00000000000E+00 0.  1.
</event>
<event>
12    1  0.8331241E-002  0.2153187E+03  0.7818608E-02  0.1137647E+00
         21   -1    0    0  501  502  0.00000000000E+00  0.00000000000E+00  0.17018480370E+02  0.17018480370E+02  0.00000000000E+00 0.  1.
         21   -1    0    0  502  503 -0.00000000000E+00 -0.00000000000E+00 -0.27155164804E+04  0.27155164804E+04  0.00000000000E+00 0. -1.
         -6    2    1    2    0  503 -0.12693476506E+02  0.12652931329E+03 -0.12810482280E+04  0.12988243919E+04  0.17230625948E+03 0.  0.
        -24    2    3    3    0    0  0.51518525588E+02  0.45474261266E+02 -0.51992498141E+03  0.53069433183E+03  0.81193722849E+02 0.  0.
          6    2    1    2  501    0  0.12693476506E+02 -0.12652931329E+03 -0.14174497720E+04  0.14337105689E+04  0.17375657570E+03 0.  0.
         24    2    5    5    0    0 -0.63926294003E+01 -0.46719231298E+02 -0.11525429550E+04  0.11563450333E+04  0.80963081557E+02 0.  0.
          5    1    5    5  501    0  0.19086105907E+02 -0.79810081995E+02 -0.26490681696E+03  0.27736553553E+03  0.47000000000E+01 0. -1.
        -13    1    6    6    0    0  0.13878559347E+02 -0.32646244534E+02 -0.17856600417E+03  0.18205551224E+03  0.00000000000E+00 0.  1.
         14    1    6    6    0    0 -0.20271188747E+02 -0.14072986765E+02 -0.97397695088E+03  0.97428952108E+03  0.00000000000E+00 0. -1.
         -5    1    3    3    0  503 -0.64212002094E+02  0.81055052027E+02 -0.76112324657E+03  0.76813006004E+03  0.47000000000E+01 0.  1.
         11    1    4    4    0    0 -0.36798864576E+01  0.57200115433E+01 -0.30893345875E+03  0.30900832032E+03  0.00000000000E+00 0. -1.
        -12    1    4    4    0    0  0.55198412045E+02  0.39754249723E+02 -0.21099152266E+03  0.22168601151E+03  0.00000000000E+00 0.  1.
</event>
<event>
12    1  0.8331241E-002  0.2744523E+03  0.7818608E-02  0.1098875E+00
         21   -1    0    0  501  502  0.00000000000E+00  0.00000000000E+00  0.52633249693E+03  0.52633249693E+03  0.00000000000E+00 0.  1.
         21   -1    0    0  502  503 -0.00000000000E+00 -0.00000000000E+00 -0.14403346232E+03  0.14403346232E+03  0.00000000000E+00 0. -1.
         -6    2    1    2    0  503  0.11846942783E+03  0.17658326483E+03  0.22339012698E+03  0.35322862998E+03  0.17219367426E+03 0.  0.
        -24    2    3    3    0    0  0.14238880580E+03  0.13573624447E+03  0.13116078434E+03  0.24945504297E+03  0.79534690781E+02 0.  0.
          6    2    1    2  501    0 -0.11846942783E+03 -0.17658326483E+03  0.15890890763E+03  0.31713732927E+03  0.17351481189E+03 0.  0.
         24    2    5    5    0    0 -0.84080677166E+02 -0.96260789721E+02  0.18406950620E+02  0.15161640581E+03  0.79454507543E+02 0.  0.
          5    1    5    5  501    0 -0.34388750662E+02 -0.80322475112E+02  0.14050195701E+03  0.16552092346E+03  0.47000000000E+01 0. -1.
        -11    1    6    6    0    0 -0.40155522623E+02 -0.48377877765E+02  0.49081656449E+02  0.79761482271E+02  0.00000000000E+00 0.  1.
         12    1    6    6    0    0 -0.43925154543E+02 -0.47882911956E+02 -0.30674705829E+02  0.71854923539E+02  0.00000000000E+00 0. -1.
         -5    1    3    3    0  503 -0.23919377973E+02  0.40847020366E+02  0.92229342643E+02  0.10377358700E+03  0.47000000000E+01 0.  1.
         11    1    4    4    0    0  0.48787526955E+02  0.39343822727E+01  0.18103862115E+02  0.52186703036E+02  0.00000000000E+00 0. -1.
        -12    1    4    4    0    0  0.93601278846E+02  0.13180186219E+03  0.11305692222E+03  0.19726833994E+03  0.00000000000E+00 0.  1.
</event>
<event>
12    1  0.8331241E-002  0.1871617E+03  0.7818608E-02  0.1161360E+00
         21   -1    0    0  503  502  0.00000000000E+00  0.00000000000E+00  0.31619091409E+03  0.31619091409E+03  0.00000000000E+00 0. -1.
         21   -1    0    0  501  503 -0.00000000000E+00 -0.00000000000E+00 -0.21773639969E+03  0.21773639969E+03  0.00000000000E+00 0. -1.
          6    2    1    2  501    0  0.25451040759E+02 -0.68849300747E+02 -0.13848301369E+03  0.23282406039E+03  0.17216711743E+03 0.  0.
         24    2    3    3    0    0  0.76015028228E+02 -0.61682040838E+02 -0.61750239491E+02  0.14053053364E+03  0.79704329423E+02 0.  0.
         -6    2    1    2    0  502 -0.25451040759E+02  0.68849300747E+02  0.23693752810E+03  0.30110325339E+03  0.17069210671E+03 0.  0.
        -24    2    5    5    0    0 -0.66491679807E+02  0.66245311796E+02  0.10362260950E+03  0.16151073092E+03  0.80860906391E+02 0.  0.
          5    1    3    3  501    0 -0.50563987469E+02 -0.71672599082E+01 -0.76732774203E+02  0.92293526752E+02  0.47000000000E+01 0. -1.
        -11    1    4    4    0    0  0.50869118577E+02 -0.38694726714E+02  0.65060309355E+01  0.64243891063E+02  0.00000000000E+00 0.  1.
         12    1    4    4    0    0  0.25145909651E+02 -0.22987314124E+02 -0.68256270426E+02  0.76286642575E+02  0.00000000000E+00 0. -1.
         -5    1    5    5    0  502  0.41040639048E+02  0.26039889509E+01  0.13331491859E+03  0.13959252247E+03  0.47000000000E+01 0.  1.
         11    1    6    6    0    0 -0.34573643509E+02  0.66207521763E+02  0.10581145465E+03  0.12951770805E+03  0.00000000000E+00 0. -1.
        -12    1    6    6    0    0 -0.31918036298E+02  0.37790033159E-01 -0.21888451430E+01  0.31993022869E+02  0.00000000000E+00 0.  1.
</event>
<event>
12    1  0.8331241E-002  0.1902130E+03  0.7818608E-02  0.1158591E+00
         21   -1    0    0  501  502  0.00000000000E+00  0.00000000000E+00  0.10028651762E+04  0.10028651762E+04  0.00000000000E+00 0. -1.
         21   -1    0    0  502  503 -0.00000000000E+00 -0.00000000000E+00 -0.46510744651E+02  0.46510744651E+02  0.00000000000E+00 0. -1.
         -6    2    1    2    0  503  0.59948813508E+02 -0.50305522285E+02  0.22787164656E+03  0.29682734516E+03  0.17336804698E+03 0.  0.
        -24    2    3    3    0    0  0.90486268106E+02 -0.61743160215E+02  0.22612685994E+03  0.26383507371E+03  0.80471154989E+02 0.  0.
          6    2    1    2  501    0 -0.59948813508E+02  0.50305522285E+02  0.72848278500E+03  0.75254857570E+03  0.17180711552E+03 0.  0.
         24    2    5    5    0    0 -0.53364418863E+01  0.13070931753E+02  0.62054426835E+03  0.62589258792E+03  0.80417757736E+02 0.  0.
          5    1    5    5  501    0 -0.54612371621E+02  0.37234590532E+02  0.10793851665E+03  0.12665598779E+03  0.47000000000E+01 0. -1.
        -11    1    6    6    0    0  0.37088999974E+02  0.11352890197E+02  0.26548373282E+03  0.26830224454E+03  0.00000000000E+00 0.  1.
         12    1    6    6    0    0 -0.42425441860E+02  0.17180415554E+01  0.35506053553E+03  0.35759034337E+03  0.00000000000E+00 0. -1.
         -5    1    3    3    0  503 -0.30537454599E+02  0.11437637931E+02  0.17447866233E+01  0.32992271446E+02  0.47000000000E+01 0.  1.
         13    1    4    4    0    0 -0.55273652035E+01 -0.35424564216E+02  0.70424076207E+02  0.79025325217E+02  0.00000000000E+00 0. -1.
        -14    1    4    4    0    0  0.96013633310E+02 -0.26318595999E+02  0.15570278373E+03  0.18480974849E+03  0.00000000000E+00 0.  1.
</event>
<event>
12    1  0.8331241E-002  0.2084514E+03  0.7818608E-02  0.1142854E+00
         21   -1    0    0  501  502  0.00000000000E+00  0.00000000000E+00  0.29007348431E+03  0.29007348431E+03  0.00000000000E+00 0.  1.
         21   -1    0    0  502  503 -0.00000000000E+00 -0.00000000000E+00 -0.17562160550E+03  0.17562160550E+03  0.00000000000E+00 0. -1.
         -6    2    1    2    0  503  0.34111901260E+02  0.11153812778E+03 -0.32441085957E+02  0.21068619158E+03  0.17242932323E+03 0.  0.
        -24    2    3    3    0    0 -0.25035043008E+02  0.20715914841E+02 -0.48667939341E+02  0.10099372990E+03  0.82311983653E+02 0.  0.
          6    2    1    2  501    0 -0.34111901260E+02 -0.11153812778E+03  0.14689296476E+03  0.25500889823E+03  0.17276463563E+03 0.  0.
         24    2    5    5    0    0  0.91516442797E+01 -0.12561035962E+03  0.14682104628E+03  0.20927207222E+03  0.79854026457E+02 0.  0.
          5    1    5    5  501    0 -0.43263545540E+02  0.14072231847E+02  0.71918482405E-01  0.45736826017E+02  0.47000000000E+01 0. -1.
        -11    1    6    6    0    0  0.74840765399E+01 -0.61527925097E+02  0.12839438418E+03  0.14257213913E+03  0.00000000000E+00 0.  1.
         12    1    6    6    0    0  0.16675677398E+01 -0.64082434527E+02  0.18426662099E+02  0.66699933082E+02  0.00000000000E+00 0. -1.
         -5    1    3    3    0  503  0.59146944268E+02  0.90822212937E+02  0.16226853384E+02  0.10969246168E+03  0.47000000000E+01 0.  1.
         13    1    4    4    0    0 -0.26147071748E+02  0.51299990507E+02 -0.35750341233E+02  0.67774960607E+02  0.00000000000E+00 0. -1.
        -14    1    4    4    0    0  0.11120287401E+01 -0.30584075667E+02 -0.12917598108E+02  0.33218769291E+02  0.00000000000E+00 0.  1.
</event>
<event>
12    1  0.8331241E-002  0.1874606E+03  0.7818608E-02  0.1160790E+00
         21   -1    0    0  503  502  0.00000000000E+00  0.00000000000E+00  0.47454078861E+03  0.47454078861E+03  0.00000000000E+00 0.  1.
         21   -1    0    0  501  503 -0.00000000000E+00 -0.00000000000E+00 -0.91981833443E+02  0.91981833443E+02  0.00000000000E+00 0.  1.
          6    2    1    2  501    0  0.70562678803E+01 -0.69916906301E+02  0.66078682093E+02  0.19868943544E+03  0.17370358323E+03 0.  0.
         24    2    3    3    0    0  0.56340148866E+02  0.58816815221E+01  0.29015508194E+02  0.10086256950E+03  0.78246735769E+02 0.  0.
         -6    2    1    2    0  502 -0.70562678803E+01  0.69916906301E+02  0.31648027307E+03  0.36783318661E+03  0.17379103896E+03 0.  0.
        -24    2    5    5    0    0 -0.23957675262E+02  0.99641047433E+02  0.15135657188E+03  0.19914083695E+03  0.79031339053E+02 0.  0.
          5    1    3    3  501    0 -0.49283880986E+02 -0.75798587823E+02  0.37063173899E+02  0.97826865944E+02  0.47000000000E+01 0. -1.
        -11    1    4    4    0    0  0.11710904376E+02  0.40966006749E+01 -0.26707294312E+02  0.29448378357E+02  0.00000000000E+00 0.  1.
         12    1    4    4    0    0  0.44629244491E+02  0.17850808472E+01  0.55722802506E+02  0.71414191143E+02  0.00000000000E+00 0. -1.
         -5    1    5    5    0  502  0.16901407382E+02 -0.29724141132E+02  0.16512370119E+03  0.16869234965E+03  0.47000000000E+01 0.  1.
         11    1    6    6    0    0  0.18028398364E+02 -0.31441397564E+01  0.18975475626E+02  0.26362424729E+02  0.00000000000E+00 0. -1.
        -12    1    6    6    0    0 -0.41986073627E+02  0.10278518719E+03  0.13238109626E+03  0.17277841222E+03  0.00000000000E+00 0.  1.
</event>
<event>
12    1  0.8331241E-002  0.1749480E+03  0.7818608E-02  0.1172809E+00
         21   -1    0    0  501  502  0.00000000000E+00  0.00000000000E+00  0.15823525574E+03  0.15823525574E+03  0.00000000000E+00 0. -1.
         21   -1    0    0  502  503 -0.00000000000E+00 -0.00000000000E+00 -0.21484988176E+03  0.21484988176E+03  0.00000000000E+00 0. -1.
         -6    2    1    2    0  503 -0.31832601688E+02  0.49224598164E+01 -0.87357963987E+02  0.19545644846E+03  0.17185535846E+03 0.  0.
        -24    2    3    3    0    0  0.40957661884E+02 -0.26993529335E+02 -0.57534243026E+02  0.11043529129E+03  0.80495861686E+02 0.  0.
          6    2    1    2  501    0  0.31832601688E+02 -0.49224598164E+01  0.30743337973E+02  0.17762868904E+03  0.17195712605E+03 0.  0.
         24    2    5    5    0    0 -0.67721740019E+01  0.44801565958E+02 -0.94596267727E+01  0.10278768544E+03  0.91775710769E+02 0.  0.
          5    1    5    5  501    0  0.38604775690E+02 -0.49724025775E+02  0.40202964746E+02  0.74841003599E+02  0.47000000000E+01 0. -1.
        -11    1    6    6    0    0 -0.33297231650E+02  0.42074936937E+01 -0.34568489491E+02  0.48180796013E+02  0.00000000000E+00 0.  1.
         12    1    6    6    0    0  0.26525057648E+02  0.40594072265E+02  0.25108862718E+02  0.54606889431E+02  0.00000000000E+00 0. -1.
         -5    1    3    3    0  503 -0.72790263573E+02  0.31915989152E+02 -0.29823720961E+02  0.85021157170E+02  0.47000000000E+01 0.  1.
         13    1    4    4    0    0  0.13170960019E+00 -0.45788291083E+02 -0.43986743660E+02  0.63493452934E+02  0.00000000000E+00 0. -1.
        -14    1    4    4    0    0  0.40825952284E+02  0.18794761748E+02 -0.13547499365E+02  0.46941838355E+02  0.00000000000E+00 0.  1.
</event>
<event>
12    1  0.8331241E-002  0.1865104E+03  0.7818608E-02  0.1161694E+00
         21   -1    0    0  501  502  0.00000000000E+00  0.00000000000E+00  0.29586337207E+03  0.29586337207E+03  0.00000000000E+00 0.  1.
         21   -1    0    0  502  503 -0.00000000000E+00 -0.00000000000E+00 -0.14248194796E+04  0.14248194796E+04  0.00000000000E+00 0.  1.
         -6    2    1    2    0  503  0.17440347242E+02  0.70595568357E+02 -0.13886244098E+04  0.14010938204E+04  0.17175052281E+03 0.  0.
        -24    2    3    3    0    0 -0.11651798410E+02  0.67081913642E+02 -0.13314085862E+04  0.13366388812E+04  0.96534594692E+02 0.  0.
          6    2    1    2  501    0 -0.17440347242E+02 -0.70595568357E+02  0.25966830223E+03  0.31958903130E+03  0.17152732075E+03 0.  0.
         24    2    5    5    0    0  0.32491465265E+02 -0.47554186581E+02  0.67794095847E+02  0.11993459922E+03  0.80443599390E+02 0.  0.
          5    1    5    5  501    0 -0.49931812507E+02 -0.23041381775E+02  0.19187420638E+03  0.19965443208E+03  0.47000000000E+01 0. -1.
        -13    1    6    6    0    0  0.42846037296E+02 -0.61443124786E+02  0.69934816056E+02  0.10247887096E+03  0.00000000000E+00 0.  1.
         14    1    6    6    0    0 -0.10354572031E+02  0.13888938205E+02 -0.21407202084E+01  0.17455728269E+02  0.00000000000E+00 0. -1.
         -5    1    3    3    0  503  0.29092145651E+02  0.35136547151E+01 -0.57215823606E+02  0.64454939136E+02  0.47000000000E+01 0.  1.
         11    1    4    4    0    0 -0.26070769402E+02  0.30381016289E+02 -0.17348937385E+03  0.17804845972E+03  0.00000000000E+00 0. -1.
        -12    1    4    4    0    0  0.14418970992E+02  0.36700897352E+02 -0.11579192123E+04  0.11585904215E+04  0.00000000000E+00 0.  1.
</event>
<event>
12    1  0.8331241E-002  0.1762318E+03  0.7818608E-02  0.1172027E+00
         21   -1    0    0  503  502  0.00000000000E+00  0.00000000000E+00  0.29160101726E+03  0.29160101726E+03  0.00000000000E+00 0. -1.
         21   -1    0    0  501  503 -0.00000000000E+00 -0.00000000000E+00 -0.12345162870E+03  0.12345162870E+03  0.00000000000E+00 0.  1.
          6    2    1    2  501    0 -0.40908148629E+01 -0.39455587215E+02  0.16420952903E+03  0.24087841390E+03  0.17170953011E+03 0.  0.
         24    2    3    3    0    0 -0.61109688469E+02 -0.50007229141E+02  0.73381156979E+02  0.13301566656E+03  0.77931100079E+02 0.  0.
         -6    2    1    2    0  502  0.40908148629E+01  0.39455587215E+02  0.39398595302E+01  0.17417423205E+03  0.16955135650E+03 0.  0.
        -24    2    5    5    0    0 -0.24787351177E+02 -0.35984454669E+02 -0.11317203081E+02  0.91833377353E+02  0.79974973300E+02 0.  0.
          5    1    3    3  501    0  0.57018873606E+02  0.10551641925E+02  0.90828372049E+02  0.10786274734E+03  0.47000000000E+01 0. -1.
        -13    1    4    4    0    0 -0.45544533126E+02 -0.69886049379E+02  0.66952102852E+02  0.10696236942E+03  0.00000000000E+00 0.  1.
         14    1    4    4    0    0 -0.15565155343E+02  0.19878820238E+02  0.64290541269E+01  0.26053297140E+02  0.00000000000E+00 0. -1.
         -5    1    5    5    0  502  0.28878166040E+02  0.75440041884E+02  0.15257062611E+02  0.82340854700E+02  0.47000000000E+01 0.  1.
         13    1    6    6    0    0 -0.52962932497E+01 -0.24602217127E+02  0.33354467666E+02  0.41783254098E+02  0.00000000000E+00 0. -1.
        -14    1    6    6    0    0 -0.19491057927E+02 -0.11382237541E+02 -0.44671670747E+02  0.50050123255E+02  0.00000000000E+00 0.  1.
</event>
<event>
12    1  0.8331241E-002  0.1969396E+03  0.7818608E-02  0.1152489E+00
         21   -1    0    0  501  502  0.00000000000E+00  0.00000000000E+00  0.28010520510E+03  0.28010520510E+03  0.00000000000E+00 0.  1.
         21   -1    0    0  502  503 -0.00000000000E+00 -0.00000000000E+00 -0.68380719275E+03  0.68380719275E+03  0.00000000000E+00 0.  1.
         -6    2    1    2    0  503  0.93597785205E+02 -0.19859450576E+02 -0.63236786444E+03  0.66212888427E+03  0.17137852912E+03 0.  0.
        -24    2    3    3    0    0  0.10365134866E+03 -0.45300586691E+01 -0.62948819462E+03  0.64298608164E+03  0.80072407894E+02 0.  0.
          6    2    1    2  501    0 -0.93597785205E+02  0.19859450576E+02  0.22866587679E+03  0.30178351358E+03  0.17213443202E+03 0.  0.
         24    2    5    5    0    0 -0.12024781825E+03  0.25845474081E+02  0.23155196134E+03  0.27391819064E+03  0.79292736352E+02 0.  0.
          5    1    5    5  501    0  0.26650033042E+02 -0.59860235056E+01 -0.28860845473E+01  0.27865322940E+02  0.47000000000E+01 0. -1.
        -13    1    6    6    0    0 -0.52294363285E+02  0.15453980184E+02  0.17975790845E+03  0.18784683012E+03  0.00000000000E+00 0.  1.
         14    1    6    6    0    0 -0.67953454963E+02  0.10391493898E+02  0.51794052885E+02  0.86071360516E+02  0.00000000000E+00 0. -1.
         -5    1    3    3    0  503 -0.10053563453E+02 -0.15329391907E+02 -0.28796698142E+01  0.19142802631E+02  0.47000000000E+01 0.  1.
         13    1    4    4    0    0 -0.95125165972E+01 -0.12949915675E+02 -0.50937251637E+02  0.53411533327E+02  0.00000000000E+00 0. -1.
        -14    1    4    4    0    0  0.11316386526E+03  0.84198570057E+01 -0.57855094299E+03  0.58957454831E+03  0.00000000000E+00 0.  1.
</event>
<event>
12    1  0.8331241E-002  0.1823637E+03  0.7818608E-02  0.1165704E+00
         21   -1    0    0  503  502  0.00000000000E+00  0.00000000000E+00  0.37348726053E+03  0.37348726053E+03  0.00000000000E+00 0. -1.
         21   -1    0    0  501  503 -0.00000000000E+00 -0.00000000000E+00 -0.13745568491E+03  0.13745568491E+03  0.00000000000E+00 0. -1.
          6    2    1    2  501    0  0.56757561254E+02 -0.13794955273E+02  0.27031781704E+03  0.32608011546E+03  0.17275647004E+03 0.  0.
         24    2    3    3    0    0  0.92933867959E+02  0.26263614883E+02  0.20864886581E+03  0.24399136011E+03  0.81675904180E+02 0.  0.
         -6    2    1    2    0  502 -0.56757561254E+02  0.13794955273E+02 -0.34286241429E+02  0.18486282998E+03  0.17200871491E+03 0.  0.
        -24    2    5    5    0    0 -0.79586091693E+02 -0.24181080079E+02  0.19613014324E+02  0.11493042809E+03  0.76848307366E+02 0.  0.
          5    1    3    3  501    0 -0.36176306704E+02 -0.40058570156E+02  0.61668951230E+02  0.82088755354E+02  0.47000000000E+01 0. -1.
        -11    1    4    4    0    0 -0.13309310797E+02  0.12679121920E+02  0.20852991328E+02  0.27798293723E+02  0.00000000000E+00 0.  1.
         12    1    4    4    0    0  0.10624317876E+03  0.13584492963E+02  0.18779587448E+03  0.21619306639E+03  0.00000000000E+00 0. -1.
         -5    1    5    5    0  502  0.22828530438E+02  0.37976035352E+02 -0.53899255753E+02  0.69932401888E+02  0.47000000000E+01 0.  1.
         11    1    6    6    0    0 -0.86177533147E+02  0.18487768549E+01  0.17813211138E+02  0.88018723498E+02  0.00000000000E+00 0. -1.
        -12    1    6    6    0    0  0.65914414542E+01 -0.26029856934E+02  0.17998031866E+01  0.26911704591E+02  0.00000000000E+00 0.  1.
</event>
<event>
12    1  0.8331241E-002  0.1742612E+03  0.7818608E-02  0.1174138E+00
         21   -1    0    0  501  502  0.00000000000E+00  0.00000000000E+00  0.90612277368E+02  0.90612277368E+02  0.00000000000E+00 0. -1.
         21   -1    0    0  502  503 -0.00000000000E+00 -0.00000000000E+00 -0.54415815724E+03  0.54415815724E+03  0.00000000000E+00 0. -1.
         -6    2    1    2    0  503 -0.30411217024E+02  0.45492235346E+01 -0.26698028750E+02  0.17372156381E+03  0.16888119918E+03 0.  0.
        -24    2    3    3    0    0 -0.26872949038E+02  0.21307957680E+02 -0.79590624725E+02  0.11792648141E+03  0.79973764594E+02 0.  0.
          6    2    1    2  501    0  0.30411217024E+02 -0.45492235346E+01 -0.42684785113E+03  0.46104887081E+03  0.17152677839E+03 0.  0.
         24    2    5    5    0    0 -0.84148603191E+01 -0.37162601439E+02 -0.16764053931E+03  0.19688676678E+03  0.95964471009E+02 0.  0.
          5    1    5    5  501    0  0.38826077343E+02  0.32613377904E+02 -0.25920731182E+03  0.26416210402E+03  0.47000000000E+01 0. -1.
        -13    1    6    6    0    0  0.36607139552E+02  0.99976385571E+01 -0.57451586906E+02  0.68852888690E+02  0.00000000000E+00 0.  1.
         14    1    6    6    0    0 -0.45021999872E+02 -0.47160239996E+02 -0.11018895240E+03  0.12803387809E+03  0.00000000000E+00 0. -1.
         -5    1    3    3    0  503 -0.35382679867E+01 -0.16758734145E+02  0.52892595975E+02  0.55795082395E+02  0.47000000000E+01 0.  1.
         13    1    4    4    0    0  0.12329005969E+00  0.27857923480E+02  0.55175930970E+01  0.28399347433E+02  0.00000000000E+00 0. -1.
        -14    1    4    4    0    0 -0.26996239097E+02 -0.65499657995E+01 -0.85108217823E+02  0.89527133978E+02  0.00000000000E+00 0.  1.
</event>
<event>
12    1  0.8331241E-002  0.3700964E+03  0.7818608E-02  0.1054846E+00
         21   -1    0    0  501  502  0.00000000000E+00  0.00000000000E+00  0.24137387406E+03  0.24137387406E+03  0.00000000000E+00 0. -1.
         21   -1    0    0  502  503 -0.00000000000E+00 -0.00000000000E+00 -0.72705394979E+03  0.72705394979E+03  0.00000000000E+00 0.  1.
         -6    2    1    2    0  503 -0.32991653863E+03 -0.66634564548E+01 -0.47134109905E+03  0.59805370843E+03  0.16314558649E+03 0.  0.
        -24    2    3    3    0    0 -0.73286004351E+02 -0.15732446879E+02 -0.16714008576E+03  0.19993083267E+03  0.80113552323E+02 0.  0.
          6    2    1    2  501    0  0.32991653863E+03  0.66634564548E+01 -0.14338976672E+02  0.37037411543E+03  0.16757701219E+03 0.  0.
         24    2    5    5    0    0  0.19021925308E+03 -0.35732221759E+02 -0.59482088935E+02  0.21749273754E+03  0.79402871881E+02 0.  0.
          5    1    5    5  501    0  0.13969728554E+03  0.42395678214E+02  0.45143112263E+02  0.15288137789E+03  0.47000000000E+01 0. -1.
        -11    1    6    6    0    0  0.17078020122E+03 -0.17284239771E+02 -0.24449590445E+02  0.17338513358E+03  0.00000000000E+00 0.  1.
         12    1    6    6    0    0  0.19439051864E+02 -0.18447981987E+02 -0.35032498490E+02  0.44107603962E+02  0.00000000000E+00 0. -1.
         -5    1    3    3    0  503 -0.25663053428E+03  0.90689904241E+01 -0.30420101329E+03  0.39812287575E+03  0.47000000000E+01 0.  1.
         11    1    4    4    0    0 -0.36744215611E+02  0.28803532534E+02 -0.44800030789E+02  0.64705669195E+02  0.00000000000E+00 0. -1.
        -12    1    4    4    0    0 -0.36541788740E+02 -0.44535979412E+02 -0.12234005497E+03  0.13522516348E+03  0.00000000000E+00 0.  1.
</event>
<event>
12    1  0.8331241E-002  0.2723298E+03  0.7818608E-02  0.1099969E+00
         21   -1    0    0  501  502  0.00000000000E+00  0.00000000000E+00  0.36094927894E+03  0.36094927894E+03  0.00000000000E+00 0. -1.
         21   -1    0    0  502  503 -0.00000000000E+00 -0.00000000000E+00 -0.49124668739E+03  0.49124668739E+03  0.00000000000E+00 0. -1.
         -6    2    1    2    0  503 -0.22617817045E+02 -0.21013261793E+03 -0.39018240482E+03  0.47576039809E+03  0.17157611894E+03 0.  0.
        -24    2    3    3    0    0  0.70634696224E+01 -0.26189555702E+02 -0.92244179226E+02  0.12432718225E+03  0.78819250284E+02 0.  0.
          6    2    1    2  501    0  0.22617817045E+02  0.21013261793E+03  0.25988499637E+03  0.37643556825E+03  0.17174470278E+03 0.  0.
         24    2    5    5    0    0  0.10130848080E+02  0.22898998734E+02  0.74630933299E+02  0.11270557291E+03  0.80658364318E+02 0.  0.
          5    1    5    5  501    0  0.12486968965E+02  0.18723361920E+03  0.18525406308E+03  0.26372999533E+03  0.47000000000E+01 0. -1.
        -11    1    6    6    0    0  0.50016071726E+00  0.88932806305E+01 -0.17170740671E+02  0.19343601948E+02  0.00000000000E+00 0.  1.
         12    1    6    6    0    0  0.96306873626E+01  0.14005718103E+02  0.91801673970E+02  0.93361970965E+02  0.00000000000E+00 0. -1.
         -5    1    3    3    0  503 -0.29681286668E+02 -0.18394306223E+03 -0.29793822559E+03  0.35143321583E+03  0.47000000000E+01 0.  1.
         13    1    4    4    0    0  0.82365356505E+01 -0.54321628306E+02 -0.65518073652E+02  0.85506127245E+02  0.00000000000E+00 0. -1.
        -14    1    4    4    0    0 -0.11730660281E+01  0.28132072604E+02 -0.26726105574E+02  0.38821055010E+02  0.00000000000E+00 0.  1.
</event>
<event>
12    1  0.8331241E-002  0.2337109E+03  0.7818608E-02  0.1124847E+00
         21   -1    0    0  503  502  0.00000000000E+00  0.00000000000E+00  0.16349124621E+03  0.16349124621E+03  0.00000000000E+00 0. -1.
         21   -1    0    0  501  503 -0.00000000000E+00 -0.00000000000E+00 -0.58283384825E+03  0.58283384825E+03  0.00000000000E+00 0.  1.
          6    2    1    2  501    0 -0.24450624425E+02 -0.15416171578E+03 -0.45775743849E+03  0.51396754865E+03  0.17394568384E+03 0.  0.
         24    2    3    3    0    0 -0.77059336193E+02 -0.56765758773E+02 -0.26148107048E+03  0.28857865887E+03  0.75794455438E+02 0.  0.
         -6    2    1    2    0  502  0.24450624425E+02  0.15416171578E+03  0.38414836448E+02  0.23235754580E+03  0.16778158953E+03 0.  0.
        -24    2    5    5    0    0  0.57401490785E+02  0.92619683647E+02 -0.25340350188E+02  0.13770029496E+03  0.80286368346E+02 0.  0.
          5    1    3    3  501    0  0.52608711769E+02 -0.97395957011E+02 -0.19627636802E+03  0.22538888978E+03  0.47000000000E+01 0. -1.
        -13    1    4    4    0    0 -0.13827631289E+02 -0.36501504121E+02 -0.17633278841E+03  0.18060126096E+03  0.00000000000E+00 0.  1.
         14    1    4    4    0    0 -0.63231704905E+02 -0.20264254652E+02 -0.85148282060E+02  0.10797739791E+03  0.00000000000E+00 0. -1.
         -5    1    5    5    0  502 -0.32950866360E+02  0.61542032137E+02  0.63755186636E+02  0.94657250840E+02  0.47000000000E+01 0.  1.
         11    1    6    6    0    0 -0.48332242224E+01  0.24133608437E+02  0.22657694650E+02  0.33453882277E+02  0.00000000000E+00 0. -1.
        -12    1    6    6    0    0  0.62234715007E+02  0.68486075210E+02 -0.47998044838E+02  0.10424641269E+03  0.00000000000E+00 0.  1.
</event>
<event>
12    1  0.8331241E-002  0.2381399E+03  0.7818608E-02  0.1121487E+00
         21   -1    0    0  501  502  0.00000000000E+00  0.00000000000E+00  0.16208649004E+03  0.16208649004E+03  0.00000000000E+00 0. -1.
         21   -1    0    0  502  503 -0.00000000000E+00 -0.00000000000E+00 -0.47716193912E+03  0.47716193912E+03  0.00000000000E+00 0. -1.
         -6    2    1    2    0  503  0.13991542999E+03  0.82406572072E+02 -0.32447616894E+03  0.40092307131E+03  0.17055015166E+03 0.  0.
        -24    2    3    3    0    0  0.52035575274E+02  0.78461214111E+02 -0.27173426834E+03  0.29824769553E+03  0.79046265454E+02 0.  0.
          6    2    1    2  501    0 -0.13991542999E+03 -0.82406572072E+02  0.94007198569E+01  0.23832535785E+03  0.17419366232E+03 0.  0.
         24    2    5    5    0    0 -0.33804845157E+02 -0.53949874165E+02 -0.53645550097E+02  0.11157299289E+03  0.74278740015E+02 0.  0.
          5    1    5    5  501    0 -0.10611058483E+03 -0.28456697907E+02  0.63046269954E+02  0.12675236496E+03  0.47000000000E+01 0. -1.
        -11    1    6    6    0    0  0.11391717450E+02  0.12836666444E+02 -0.10385035879E+02  0.20059915306E+02  0.00000000000E+00 0.  1.
         12    1    6    6    0    0 -0.45196562608E+02 -0.66786540610E+02 -0.43260514218E+02  0.91513077582E+02  0.00000000000E+00 0. -1.
         -5    1    3    3    0  503  0.87879854713E+02  0.39453579612E+01 -0.52741900598E+02  0.10267537578E+03  0.47000000000E+01 0.  1.
         11    1    4    4    0    0  0.42093795415E+02  0.84017139809E+02 -0.15718411745E+03  0.18313277744E+03  0.00000000000E+00 0. -1.
        -12    1    4    4    0    0  0.99417798600E+01 -0.55559256978E+01 -0.11455015089E+03  0.11511491809E+03  0.00000000000E+00 0.  1.
</event>
<event>
12    1  0.8331241E-002  0.1764234E+03  0.7818608E-02  0.1172275E+00
         21   -1    0    0  501  502  0.00000000000E+00  0.00000000000E+00  0.17207848316E+03  0.17207848316E+03  0.00000000000E+00 0. -1.
         21   -1    0    0  502  503 -0.00000000000E+00 -0.00000000000E+00 -0.37327335568E+03  0.37327335568E+03  0.00000000000E+00 0. -1.
         -6    2    1    2    0  503  0.26476627372E+02  0.11375430443E+02 -0.29781229824E+03  0.34420475435E+03  0.17015973589E+03 0.  0.
        -24    2    3    3    0    0  0.54562510423E+02 -0.38896293272E+01 -0.29798118172E+03  0.31189442476E+03  0.74115793004E+02 0.  0.
          6    2    1    2  501    0 -0.26476627372E+02 -0.11375430443E+02  0.96617425717E+02  0.20114708450E+03  0.17405404458E+03 0.  0.
         24    2    5    5    0    0 -0.65973787203E+02  0.35250292164E+02  0.84544455878E+02  0.13868245255E+03  0.80560126181E+02 0.  0.
          5    1    5    5  501    0  0.39497159831E+02 -0.46625722607E+02  0.12072969839E+02  0.62464631945E+02  0.47000000000E+01 0. -1.
        -13    1    6    6    0    0 -0.10185309384E+02  0.37952465063E+02  0.24271891984E+01  0.39370310883E+02  0.00000000000E+00 0.  1.
         14    1    6    6    0    0 -0.55788477819E+02 -0.27021728997E+01  0.82117266680E+02  0.99312141668E+02  0.00000000000E+00 0. -1.
         -5    1    3    3    0  503 -0.28085883050E+02  0.15265059771E+02  0.16888348848E+00  0.32310329589E+02  0.47000000000E+01 0.  1.
         11    1    4    4    0    0  0.18384365089E+02 -0.34802862099E+02 -0.85131773599E+02  0.93790420439E+02  0.00000000000E+00 0. -1.
        -12    1    4    4    0    0  0.36178145333E+02  0.30913232772E+02 -0.21284940813E+03  0.21810400432E+03  0.00000000000E+00 0.  1.
</event>
<event>
12    1  0.8331241E-002  0.1799648E+03  0.7818608E-02  0.1168080E+00
         21   -1    0    0  501  502  0.00000000000E+00  0.00000000000E+00  0.91731295213E+02  0.91731295213E+02  0.00000000000E+00 0. -1.
         21   -1    0    0  502  503 -0.00000000000E+00 -0.00000000000E+00 -0.65798678206E+03  0.65798678206E+03  0.00000000000E+00 0. -1.
         -6    2    1    2    0  503  0.14024783774E+02 -0.48230260034E+02 -0.53870778520E+03  0.56765709123E+03  0.17177206655E+03 0.  0.
        -24    2    3    3    0    0  0.64495457322E+02 -0.73999808992E+02 -0.38393587045E+03  0.40276987481E+03  0.71980439659E+02 0.  0.
          6    2    1    2  501    0 -0.14024783774E+02  0.48230260034E+02 -0.27547701645E+02  0.18206098604E+03  0.17281340871E+03 0.  0.
         24    2    5    5    0    0 -0.70724728024E+02  0.16161528449E+02  0.76937171883E+01  0.10784956627E+03  0.79430180059E+02 0.  0.
          5    1    5    5  501    0  0.56699944250E+02  0.32068731585E+02 -0.35241418833E+02  0.74211419773E+02  0.47000000000E+01 0. -1.
        -13    1    6    6    0    0 -0.29656544930E+02  0.64135382523E+01 -0.36011247907E+02  0.47089851412E+02  0.00000000000E+00 0.  1.
         14    1    6    6    0    0 -0.41068183093E+02  0.97479901964E+01  0.43704965096E+02  0.60759714857E+02  0.00000000000E+00 0. -1.
         -5    1    3    3    0  503 -0.50470673548E+02  0.25769548958E+02 -0.15477191475E+03  0.16488721641E+03  0.47000000000E+01 0.  1.
         13    1    4    4    0    0  0.24757722401E+02 -0.45433179914E+02 -0.30877379300E+03  0.31307886211E+03  0.00000000000E+00 0. -1.
        -14    1    4    4    0    0  0.39737734921E+02 -0.28566629078E+02 -0.75162077451E+02  0.89691012707E+02  0.00000000000E+00 0.  1.
</event>
<event>
12    1  0.8331241E-002  0.2362530E+03  0.7818608E-02  0.1122551E+00
         21   -1    0    0  503  502  0.00000000000E+00  0.00000000000E+00  0.35480629958E+03  0.35480629958E+03  0.00000000000E+00 0. -1.
         21   -1    0    0  501  503 -0.00000000000E+00 -0.00000000000E+00 -0.18041926618E+03  0.18041926618E+03  0.00000000000E+00 0.  1.
          6    2    1    2  501    0  0.35086993333E+02 -0.15855672406E+03 -0.10695344028E+02  0.23510732974E+03  0.16967537908E+03 0.  0.
         24    2    3    3    0    0  0.51046622801E+02 -0.53892508788E+02  0.41220434357E+02  0.11709611935E+03  0.80636324047E+02 0.  0.
         -6    2    1    2    0  502 -0.35086993333E+02  0.15855672406E+03  0.18508237743E+03  0.30011823603E+03  0.17159294074E+03 0.  0.
        -24    2    5    5    0    0  0.22193857032E+02  0.21830115946E+02  0.89881494981E+02  0.12387817473E+03  0.79359925549E+02 0.  0.
          5    1    3    3  501    0 -0.15959629468E+02 -0.10466421527E+03 -0.51915778386E+02  0.11801121039E+03  0.47000000000E+01 0. -1.
        -13    1    4    4    0    0  0.70667627891E+02 -0.40404378080E+02  0.17052709823E+02  0.83169840159E+02  0.00000000000E+00 0.  1.
         14    1    4    4    0    0 -0.19621005089E+02 -0.13488130708E+02  0.24167724534E+02  0.33926279193E+02  0.00000000000E+00 0. -1.
         -5    1    5    5    0  502 -0.57280850365E+02  0.13672660811E+03  0.95200882451E+02  0.17624006129E+03  0.47000000000E+01 0.  1.
         11    1    6    6    0    0 -0.22710178390E+02 -0.14944100487E+02  0.27404312852E+02  0.38601485784E+02  0.00000000000E+00 0. -1.
        -12    1    6    6    0    0  0.44904035421E+02  0.36774216433E+02  0.62477182128E+02  0.85276688949E+02  0.00000000000E+00 0.  1.
</event>
<event>
12    1  0.8331241E-002  0.2418550E+03  0.7818608E-02  0.1118604E+00
         21   -1    0    0  501  502  0.00000000000E+00  0.00000000000E+00  0.29883062840E+03  0.29883062840E+03  0.00000000000E+00 0.  1.
         21   -1    0    0  502  503 -0.00000000000E+00 -0.00000000000E+00 -0.30161933690E+03  0.30161933690E+03  0.00000000000E+00 0. -1.
         -6    2    1    2    0  503 -0.15243005562E+03 -0.75220730962E+02 -0.17943864906E+03  0.30095198471E+03  0.17169970326E+03 0.  0.
        -24    2    3    3    0    0 -0.14492664210E+03 -0.10647193640E+03 -0.11399363188E+03  0.22788982397E+03  0.81235576753E+02 0.  0.
          6    2    1    2  501    0  0.15243005562E+03  0.75220730962E+02  0.17664994056E+03  0.29949798059E+03  0.17204871012E+03 0.  0.
         24    2    5    5    0    0  0.12221608627E+03  0.99885416239E+01  0.52144137647E+02  0.15565116127E+03  0.80447064623E+02 0.  0.
          5    1    5    5  501    0  0.30213969356E+02  0.65232189338E+02  0.12450580291E+03  0.14384681932E+03  0.47000000000E+01 0. -1.
        -13    1    6    6    0    0  0.58413988475E+02 -0.35067254320E+02  0.18443714871E+02  0.70583829546E+02  0.00000000000E+00 0.  1.
         14    1    6    6    0    0  0.63802097790E+02  0.45055795944E+02  0.33700422776E+02  0.85067331720E+02  0.00000000000E+00 0. -1.
         -5    1    3    3    0  503 -0.75034135193E+01  0.31251205443E+02 -0.65445017188E+02  0.73062160732E+02  0.47000000000E+01 0.  1.
         13    1    4    4    0    0 -0.15450800816E+02 -0.30894006713E+02 -0.58678519039E+02  0.68090641745E+02  0.00000000000E+00 0. -1.
        -14    1    4    4    0    0 -0.12947584129E+03 -0.75577929692E+02 -0.55315112837E+02  0.15979918223E+03  0.00000000000E+00 0.  1.
</event>
<event>
12    1  0.8331241E-002  0.2824524E+03  0.7818608E-02  0.1095479E+00
         21   -1    0    0  503  502  0.00000000000E+00  0.00000000000E+00  0.13489637856E+03  0.13489637856E+03  0.00000000000E+00 0. -1.
         21   -1    0    0  501  503 -0.00000000000E+00 -0.00000000000E+00 -0.69510549448E+03  0.69510549448E+03  0.00000000000E+00 0. -1.
          6    2    1    2  501    0  0.18411723225E+03  0.12756518026E+03 -0.45641975820E+03  0.53674793299E+03  0.17206777000E+03 0.  0.
         24    2    3    3    0    0  0.18998351759E+03  0.68855640968E+02 -0.40106893637E+03  0.45571073915E+03  0.77337893762E+02 0.  0.
         -6    2    1    2    0  502 -0.18411723225E+03 -0.12756518026E+03 -0.10378935772E+03  0.29325394005E+03  0.15828332872E+03 0.  0.
        -24    2    5    5    0    0 -0.82231867341E+02 -0.39459360689E+01 -0.51435851335E+02  0.12465582396E+03  0.78203434876E+02 0.  0.
          5    1    3    3  501    0 -0.58662853447E+01  0.58709539296E+02 -0.55350821835E+02  0.81037193843E+02  0.47000000000E+01 0. -1.
        -11    1    4    4    0    0  0.34519654373E+02  0.41736972168E+02 -0.66310179583E+02  0.85619047530E+02  0.00000000000E+00 0.  1.
         12    1    4    4    0    0  0.15546386322E+03  0.27118668800E+02 -0.33475875678E+03  0.37009169162E+03  0.00000000000E+00 0. -1.
         -5    1    5    5    0  502 -0.10188536490E+03 -0.12361924419E+03 -0.52353506387E+02  0.16859811609E+03  0.47000000000E+01 0.  1.
         13    1    6    6    0    0 -0.90224463176E+02 -0.11457492059E+02 -0.22471181083E+02  0.93683946645E+02  0.00000000000E+00 0. -1.
        -14    1    6    6    0    0  0.79925958349E+01  0.75115559902E+01 -0.28964670252E+02  0.30971877314E+02  0.00000000000E+00 0.  1.
</event>
<event>
12    1  0.8331241E-002  0.1824921E+03  0.7818608E-02  0.1166814E+00
         21   -1    0    0  503  502  0.00000000000E+00  0.00000000000E+00  0.12402118573E+04  0.12402118573E+04  0.00000000000E+00 0.  1.
         21   -1    0    0  501  503 -0.00000000000E+00 -0.00000000000E+00 -0.28774254438E+02  0.28774254438E+02  0.00000000000E+00 0.  1.
          6    2    1    2  501    0 -0.17140398067E+02  0.51367560299E+02  0.41780240400E+03  0.45591907587E+03  0.17427258951E+03 0.  0.
         24    2    3    3    0    0  0.27187135977E+02  0.63114913649E+02  0.15247280674E+03  0.18661475773E+03  0.82791776880E+02 0.  0.
         -6    2    1    2    0  502  0.17140398067E+02 -0.51367560299E+02  0.79363519885E+03  0.81306703586E+03  0.16819261712E+03 0.  0.
        -24    2    5    5    0    0  0.43373784679E+02 -0.77049778009E+02  0.38982004802E+03  0.40755928881E+03  0.79542130766E+02 0.  0.
          5    1    3    3  501    0 -0.44327534044E+02 -0.11747353350E+02  0.26532959727E+03  0.26930431814E+03  0.47000000000E+01 0. -1.
        -13    1    4    4    0    0  0.17144318744E+02  0.39733419767E+01 -0.48401666438E+01  0.18252186850E+02  0.00000000000E+00 0.  1.
         14    1    4    4    0    0  0.10042817233E+02  0.59141571673E+02  0.15731297338E+03  0.16836257088E+03  0.00000000000E+00 0. -1.
         -5    1    5    5    0  502 -0.26233386612E+02  0.25682217710E+02  0.40381515084E+03  0.40550774706E+03  0.47000000000E+01 0.  1.
         13    1    6    6    0    0  0.49470841463E+02 -0.23484433134E+02  0.11339081847E+03  0.12592204124E+03  0.00000000000E+00 0. -1.
        -14    1    6    6    0    0 -0.60970567836E+01 -0.53565344876E+02  0.27642922954E+03  0.28163724757E+03  0.00000000000E+00 0.  1.
</event>
<event>
12    1  0.8331241E-002  0.1830865E+03  0.7818608E-02  0.1165266E+00
         21   -1    0    0  501  502  0.00000000000E+00  0.00000000000E+00  0.13110306370E+04  0.13110306370E+04  0.00000000000E+00 0.  1.
         21   -1    0    0  502  503 -0.00000000000E+00 -0.00000000000E+00 -0.31493179529E+02  0.31493179529E+02  0.00000000000E+00 0.  1.
         -6    2    1    2    0  503 -0.51287094211E+02 -0.32872622453E+02  0.34019575273E+03  0.38550578431E+03  0.17079398181E+03 0.  0.
        -24    2    3    3    0    0 -0.15154422973E+02 -0.85272096339E+02  0.22430757618E+03  0.25320523912E+03  0.79360049369E+02 0.  0.
          6    2    1    2  501    0  0.51287094211E+02  0.32872622453E+02  0.93934170473E+03  0.95701803220E+03  0.17265485913E+03 0.  0.
         24    2    5    5    0    0  0.28840171217E+01  0.49929831652E+01  0.83019167855E+03  0.83431534122E+03  0.82647553111E+02 0.  0.
          5    1    5    5  501    0  0.48403077089E+02  0.27879639288E+02  0.10915002618E+03  0.12270269098E+03  0.47000000000E+01 0. -1.
        -11    1    6    6    0    0 -0.28513515136E+02 -0.25616969462E+02  0.33491107518E+03  0.33709743094E+03  0.00000000000E+00 0.  1.
         12    1    6    6    0    0  0.31397532258E+02  0.30609952628E+02  0.49528060337E+03  0.49721791028E+03  0.00000000000E+00 0. -1.
         -5    1    3    3    0  503 -0.36132671237E+02  0.52399473886E+02  0.11588817654E+03  0.13230054519E+03  0.47000000000E+01 0.  1.
         11    1    4    4    0    0 -0.38362976610E+02 -0.19781331211E+02  0.12305685839E+03  0.13040709120E+03  0.00000000000E+00 0. -1.
        -12    1    4    4    0    0  0.23208553637E+02 -0.65490765127E+02  0.10125071779E+03  0.12279814792E+03  0.00000000000E+00 0.  1.
</event>
<event>
12    1  0.8331241E-002  0.1802537E+03  0.7818608E-02  0.1168311E+00
         21   -1    0    0  503  502  0.00000000000E+00  0.00000000000E+00  0.39914845575E+03  0.39914845575E+03  0.00000000000E+00 0.  1.
         21   -1    0    0  501  503 -0.00000000000E+00 -0.00000000000E+00 -0.13777690044E+03  0.13777690044E+03  0.00000000000E+00 0.  1.
          6    2    1    2  501    0  0.37504954768E+02  0.22385529670E+02 -0.43796458258E+02  0.18249776638E+03  0.17169616014E+03 0.  0.
         24    2    3    3    0    0 -0.32776123460E+02 -0.23347614343E+02 -0.32902902060E+02  0.97811817221E+02  0.82856292818E+02 0.  0.
         -6    2    1    2    0  502 -0.37504954768E+02 -0.22385529670E+02  0.30516801358E+03  0.35442758981E+03  0.17488186395E+03 0.  0.
        -24    2    5    5    0    0  0.39866845057E+02 -0.10961866685E+02  0.98643640466E+02  0.13354005695E+03  0.79955307207E+02 0.  0.
          5    1    3    3  501    0  0.70281078228E+02  0.45733144012E+02 -0.10893556198E+02  0.84685949157E+02  0.47000000000E+01 0. -1.
        -11    1    4    4    0    0  0.10793573767E+02 -0.32096935222E+02 -0.40431429590E+02  0.52739121949E+02  0.00000000000E+00 0.  1.
         12    1    4    4    0    0 -0.43569697227E+02  0.87493208791E+01  0.75285275300E+01  0.45072695271E+02  0.00000000000E+00 0. -1.
         -5    1    5    5    0  502 -0.77371799825E+02 -0.11423662984E+02  0.20652437311E+03  0.22088753286E+03  0.47000000000E+01 0.  1.
         11    1    6    6    0    0 -0.18766226925E+02 -0.83116284005E+01  0.22016459880E+01  0.20642230614E+02  0.00000000000E+00 0. -1.
        -12    1    6    6    0    0  0.58633071983E+02 -0.26502382849E+01  0.96441994478E+02  0.11289782634E+03  0.00000000000E+00 0.  1.
</event>
<event>
12    1  0.8331241E-002  0.2029602E+03  0.7818608E-02  0.1147268E+00
         21   -1    0    0  503  502  0.00000000000E+00  0.00000000000E+00  0.40447046847E+03  0.40447046847E+03  0.00000000000E+00 0. -1.
         21   -1    0    0  501  503 -0.00000000000E+00 -0.00000000000E+00 -0.10718997018E+03  0.10718997018E+03  0.00000000000E+00 0. -1.
          6    2    1    2  501    0  0.69009308391E+02  0.83481457958E+02  0.91472275931E+02  0.22261051860E+03  0.17162991365E+03 0.  0.
         24    2    3    3    0    0  0.11173192389E+03  0.73418309201E+02  0.87083576350E+02  0.17825018134E+03  0.79468905465E+02 0.  0.
         -6    2    1    2    0  502 -0.69009308391E+02 -0.83481457958E+02  0.20580822236E+03  0.28904992006E+03  0.17164321550E+03 0.  0.
        -24    2    5    5    0    0  0.28441571160E+02 -0.51516607258E+02  0.82952269947E+02  0.12894339099E+03  0.79261814251E+02 0.  0.
          5    1    3    3  501    0 -0.42722615497E+02  0.10063148757E+02  0.43886995817E+01  0.44360337260E+02  0.47000000000E+01 0. -1.
        -11    1    4    4    0    0  0.33684778477E+02 -0.15201355916E+02  0.26904929344E+02  0.45712369723E+02  0.00000000000E+00 0.  1.
         12    1    4    4    0    0  0.78047145411E+02  0.88619665117E+02  0.60178647006E+02  0.13253781162E+03  0.00000000000E+00 0. -1.
         -5    1    5    5    0  502 -0.97450879551E+02 -0.31964850699E+02  0.12285595241E+03  0.16010652906E+03  0.47000000000E+01 0.  1.
         11    1    6    6    0    0  0.36929812556E+02 -0.62942196670E+02  0.87558966515E+02  0.11398291010E+03  0.00000000000E+00 0. -1.
        -12    1    6    6    0    0 -0.84882413957E+01  0.11425589411E+02 -0.46066965686E+01  0.14960480897E+02  0.00000000000E+00 0.  1.
</event>
<event>
12    1  0.8331241E-002  0.2227786E+03  0.7818608E-02  0.1131971E+00
         21   -1    0    0  501  502  0.00000000000E+00  0.00000000000E+00  0.97589517175E+02  0.97589517175E+02  0.00000000000E+00 0.  1.
         21   -1    0    0  502  503 -0.00000000000E+00 -0.00000000000E+00 -0.52819720261E+03  0.52819720261E+03  0.00000000000E+00 0.  1.
         -6    2    1    2    0  503 -0.94344089009E+02 -0.10438191063E+03 -0.15267130906E+03  0.27007192059E+03  0.17272499323E+03 0.  0.
        -24    2    3    3    0    0 -0.12857864278E+03 -0.82426727771E+02 -0.15077138473E+03  0.22908735717E+03  0.80139715065E+02 0.  0.
          6    2    1    2  501    0  0.94344089009E+02  0.10438191063E+03 -0.27793637638E+03  0.35571479919E+03  0.17172069954E+03 0.  0.
         24    2    5    5    0    0  0.21593126340E+02  0.13977584453E+02 -0.20123527047E+03  0.21653579787E+03  0.75699945217E+02 0.  0.
          5    1    5    5  501    0  0.72750962669E+02  0.90404326180E+02 -0.76701105912E+02  0.13917900132E+03  0.47000000000E+01 0. -1.
        -11    1    6    6    0    0  0.16590826128E+02  0.10366322423E+02 -0.49846022825E+01  0.20188175056E+02  0.00000000000E+00 0.  1.
         12    1    6    6    0    0  0.50023002124E+01  0.36112620293E+01 -0.19625066818E+03  0.19634762281E+03  0.00000000000E+00 0. -1.
         -5    1    3    3    0  503  0.34234553773E+02 -0.21955182862E+02 -0.18999243241E+01  0.40984563423E+02  0.47000000000E+01 0.  1.
         11    1    4    4    0    0 -0.34815414897E+02 -0.58422493245E+02 -0.30037472406E+02  0.74347498814E+02  0.00000000000E+00 0. -1.
        -12    1    4    4    0    0 -0.93763227885E+02 -0.24004234526E+02 -0.12073391233E+03  0.15473985836E+03  0.00000000000E+00 0.  1.
</event>
<event>
12    1  0.8331241E-002  0.1773641E+03  0.7818608E-02  0.1170724E+00
         21   -1    0    0  501  502  0.00000000000E+00  0.00000000000E+00  0.10961370661E+04  0.10961370661E+04  0.00000000000E+00 0. -1.
         21   -1    0    0  502  503 -0.00000000000E+00 -0.00000000000E+00 -0.12722481447E+03  0.12722481447E+03  0.00000000000E+00 0. -1.
         -6    2    1    2    0  503  0.36669932377E+02 -0.30969166912E+01 -0.54871304124E+02  0.18432828698E+03  0.17208074422E+03 0.  0.
        -24    2    3    3    0    0  0.41379477557E+01 -0.24691596825E+02 -0.10395358670E+03  0.12143297161E+03  0.57557109375E+02 0.  0.
          6    2    1    2  501    0 -0.36669932377E+02  0.30969166912E+01  0.10237835558E+04  0.10390335936E+04  0.17350436521E+03 0.  0.
         24    2    5    5    0    0  0.34822808602E+02  0.23453963909E+02  0.35846761219E+03  0.36956140138E+03  0.79459952043E+02 0.  0.
          5    1    5    5  501    0 -0.71492740980E+02 -0.20357047217E+02  0.66531594361E+03  0.66947219225E+03  0.47000000000E+01 0. -1.
        -11    1    6    6    0    0  0.21249172077E+02  0.42216991398E+02  0.32749809359E+03  0.33089092309E+03  0.00000000000E+00 0.  1.
         12    1    6    6    0    0  0.13573636526E+02 -0.18763027489E+02  0.30969518603E+02  0.38670478295E+02  0.00000000000E+00 0. -1.
         -5    1    3    3    0  503  0.32531984621E+02  0.21594680134E+02  0.49082282576E+02  0.62895315377E+02  0.47000000000E+01 0.  1.
         11    1    4    4    0    0  0.12724784952E+01  0.11164750693E+02 -0.73348207390E+02  0.74203978241E+02  0.00000000000E+00 0. -1.
        -12    1    4    4    0    0  0.28654692605E+01 -0.35856347518E+02 -0.30605379310E+02  0.47228993364E+02  0.00000000000E+00 0.  1.
</event>
<event>
12    1  0.8331241E-002  0.2152130E+03  0.7818608E-02  0.1137572E+00
         21   -1    0    0  501  502  0.00000000000E+00  0.00000000000E+00  0.13051414516E+03  0.13051414516E+03  0.00000000000E+00 0.  1.
         21   -1    0    0  502  503 -0.00000000000E+00 -0.00000000000E+00 -0.10102791454E+04  0.10102791454E+04  0.00000000000E+00 0. -1.
         -6    2    1    2    0  503 -0.37661620100E+01 -0.12864210357E+03 -0.89938112863E+03  0.92468812754E+03  0.17204285484E+03 0.  0.
        -24    2    3    3    0    0  0.43054300876E+02 -0.86328182068E+02 -0.78863434650E+03  0.79713592863E+03  0.64616780933E+02 0.  0.
          6    2    1    2  501    0  0.37661620100E+01  0.12864210357E+03  0.19616128372E+02  0.21610516304E+03  0.17249253379E+03 0.  0.
         24    2    5    5    0    0  0.58641235344E+02  0.71181259227E+02 -0.24196191582E+02  0.12525015940E+03  0.81219336338E+02 0.  0.
          5    1    5    5  501    0 -0.54875073334E+02  0.57460844341E+02  0.43812319953E+02  0.90855003635E+02  0.47000000000E+01 0. -1.
        -13    1    6    6    0    0  0.32513166092E+02 -0.64050343477E+01  0.12653231835E+02  0.35471604280E+02  0.00000000000E+00 0.  1.
         14    1    6    6    0    0  0.26128069252E+02  0.77586293575E+02 -0.36849423417E+02  0.89778555121E+02  0.00000000000E+00 0. -1.
         -5    1    3    3    0  503 -0.46820462886E+02 -0.42313921501E+02 -0.11074678212E+03  0.12755219892E+03  0.47000000000E+01 0.  1.
         13    1    4    4    0    0  0.34282761486E+02 -0.82972487684E+02 -0.47787933558E+03  0.48623903671E+03  0.00000000000E+00 0. -1.
        -14    1    4    4    0    0  0.87715393902E+01 -0.33556943835E+01 -0.31075501092E+03  0.31089689191E+03  0.00000000000E+00 0.  1.
</event>
<event>
12    1  0.8331241E-002  0.1813537E+03  0.7818608E-02  0.1166997E+00
         21   -1    0    0  503  502  0.00000000000E+00  0.00000000000E+00  0.54840978536E+02  0.54840978536E+02  0.00000000000E+00 0.  1.
         21   -1    0    0  501  503 -0.00000000000E+00 -0.00000000000E+00 -0.66924050018E+03  0.66924050018E+03  0.00000000000E+00 0.  1.
          6    2    1    2  501    0  0.48388449898E+02 -0.23284235193E+02 -0.42791033345E+03  0.46395192128E+03  0.17105710768E+03 0.  0.
         24    2    3    3    0    0  0.13514062180E+02 -0.66275676424E+01 -0.84710711563E+02  0.11855108463E+03  0.81559183931E+02 0.  0.
         -6    2    1    2    0  502 -0.48388449898E+02  0.23284235193E+02 -0.18648918819E+03  0.26012955744E+03  0.17322116398E+03 0.  0.
        -24    2    5    5    0    0 -0.82855522181E+02 -0.21247753922E+02 -0.15203764570E+03  0.19394741554E+03  0.84756413812E+02 0.  0.
          5    1    3    3  501    0  0.34874387718E+02 -0.16656667550E+02 -0.34319962189E+03  0.34540083665E+03  0.47000000000E+01 0. -1.
        -11    1    4    4    0    0  0.10708363013E+02  0.96505373414E+01 -0.96935369771E+02  0.98001366430E+02  0.00000000000E+00 0.  1.
         12    1    4    4    0    0  0.28056991668E+01 -0.16278104984E+02  0.12224658209E+02  0.20549718198E+02  0.00000000000E+00 0. -1.
         -5    1    5    5    0  502  0.34467072283E+02  0.44531989115E+02 -0.34451542491E+02  0.66182141899E+02  0.47000000000E+01 0.  1.
         13    1    6    6    0    0 -0.57663162795E+02  0.71580911735E+01 -0.14380070816E+03  0.15509649345E+03  0.00000000000E+00 0. -1.
        -14    1    6    6    0    0 -0.25192359385E+02 -0.28405845096E+02 -0.82369375332E+01  0.38850922086E+02  0.00000000000E+00 0.  1.
</event>
<event>
12    1  0.8331241E-002  0.1946810E+03  0.7818608E-02  0.1154352E+00
         21   -1    0    0  503  502  0.00000000000E+00  0.00000000000E+00  0.25415015312E+02  0.25415015312E+02  0.00000000000E+00 0. -1.
         21   -1    0    0  501  503 -0.00000000000E+00 -0.00000000000E+00 -0.15039704488E+04  0.15039704488E+04  0.00000000000E+00 0. -1.
          6    2    1    2  501    0 -0.56049681338E+02  0.71630522053E+02 -0.81424792721E+03  0.83719793520E+03  0.17212843249E+03 0.  0.
         24    2    3    3    0    0 -0.57984732651E+02  0.14588236595E+01 -0.66526678474E+03  0.67243968051E+03  0.78935870491E+02 0.  0.
         -6    2    1    2    0  502  0.56049681338E+02 -0.71630522053E+02 -0.66430750626E+03  0.69218752889E+03  0.17189128487E+03 0.  0.
        -24    2    5    5    0    0 -0.29716722166E+02 -0.21401493429E+02 -0.21633406567E+03  0.23329633835E+03  0.79282066193E+02 0.  0.
          5    1    3    3  501    0  0.19350513134E+01  0.70171698393E+02 -0.14898114246E+03  0.16475825469E+03  0.47000000000E+01 0. -1.
        -13    1    4    4    0    0 -0.29752966398E+02 -0.37919705117E+02 -0.38644250728E+03  0.38943671435E+03  0.00000000000E+00 0.  1.
         14    1    4    4    0    0 -0.28231766254E+02  0.39378528776E+02 -0.27882427746E+03  0.28300296616E+03  0.00000000000E+00 0. -1.
         -5    1    5    5    0  502  0.85766403503E+02 -0.50229028624E+02 -0.44797344059E+03  0.45889119054E+03  0.47000000000E+01 0.  1.
         11    1    6    6    0    0  0.71140137535E+01 -0.38856552165E+02 -0.15271493869E+03  0.15774122269E+03  0.00000000000E+00 0. -1.
        -12    1    6    6    0    0 -0.36830735919E+02  0.17455058736E+02 -0.63619126981E+02  0.75555115655E+02  0.00000000000E+00 0.  1.
</event>
<event>
12    1  0.8331241E-002  0.2919838E+03  0.7818608E-02  0.1090020E+00
         21   -1    0    0  503  502  0.00000000000E+00  0.00000000000E+00  0.13695362290E+04  0.13695362290E+04  0.00000000000E+00 0. -1.
         21   -1    0    0  501  503 -0.00000000000E+00 -0.00000000000E+00 -0.13610732190E+03  0.13610732190E+03  0.00000000000E+00 0.  1.
          6    2    1    2  501    0  0.22657132036E+03  0.20721056555E+02  0.60476225259E+02  0.29818097576E+03  0.18300435811E+03 0.  0.
         24    2    3    3    0    0  0.23280386848E+03 -0.88242484597E+01  0.83521643161E+02  0.25990629756E+03  0.79371973002E+02 0.  0.
         -6    2    1    2    0  502 -0.22657132036E+03 -0.20721056555E+02  0.11729526819E+04  0.12074625752E+04  0.17430992835E+03 0.  0.
        -24    2    5    5    0    0 -0.99076807856E+02  0.36960154485E+02  0.76166615175E+03  0.77299661253E+03  0.78779244685E+02 0.  0.
          5    1    3    3  501    0 -0.62325481208E+01  0.29545305014E+02 -0.23045417902E+02  0.38274678192E+02  0.47000000000E+01 0. -1.
        -13    1    4    4    0    0  0.75346868258E+02 -0.21197121425E+02  0.63320102437E+02  0.10067722625E+03  0.00000000000E+00 0.  1.
         14    1    4    4    0    0  0.15745700022E+03  0.12372872965E+02  0.20201540723E+02  0.15922907131E+03  0.00000000000E+00 0. -1.
         -5    1    5    5    0  502 -0.12749451250E+03 -0.57681211040E+02  0.41128653012E+03  0.43446596263E+03  0.47000000000E+01 0.  1.
         11    1    6    6    0    0 -0.66653873480E+02 -0.16756359195E+02  0.42789659755E+03  0.43338090938E+03  0.00000000000E+00 0. -1.
        -12    1    6    6    0    0 -0.32422934376E+02  0.53716513681E+02  0.33376955420E+03  0.33961570315E+03  0.00000000000E+00 0.  1.
</event>
<event>
12    1  0.8331241E-002  0.1988733E+03  0.7818608E-02  0.1151366E+00
         21   -1    0    0  501  502  0.00000000000E+00  0.00000000000E+00  0.28921135872E+03  0.28921135872E+03  0.00000000000E+00 0.  1.
         21   -1    0    0  502  503 -0.00000000000E+00 -0.00000000000E+00 -0.25703575493E+03  0.25703575493E+03  0.00000000000E+00 0. -1.
         -6    2    1    2    0  503  0.46615055072E+02 -0.88239241992E+02 -0.17247728146E+03  0.26088174221E+03  0.16837976010E+03 0.  0.
        -24    2    3    3    0    0 -0.25630464278E+02 -0.78936162413E+02 -0.84375237657E+02  0.14647010610E+03  0.86292947656E+02 0.  0.
          6    2    1    2  501    0 -0.46615055072E+02  0.88239241992E+02  0.20465288525E+03  0.28536537144E+03  0.17202169802E+03 0.  0.
         24    2    5    5    0    0 -0.85060916398E+02  0.39525503085E+02  0.83993896234E+02  0.14960162723E+03  0.80796332675E+02 0.  0.
          5    1    5    5  501    0  0.38445861326E+02  0.48713738907E+02  0.12065898902E+03  0.13576374421E+03  0.47000000000E+01 0. -1.
        -13    1    6    6    0    0 -0.79775668828E+02  0.15047106883E+02  0.92575861641E+02  0.12312945594E+03  0.00000000000E+00 0.  1.
         14    1    6    6    0    0 -0.52852475702E+01  0.24478396202E+02 -0.85819654077E+01  0.26472171289E+02  0.00000000000E+00 0. -1.
         -5    1    3    3    0  503  0.72245519350E+02 -0.93030795791E+01 -0.88102043802E+02  0.11441163611E+03  0.47000000000E+01 0.  1.
         13    1    4    4    0    0  0.30127718579E+02 -0.12854615616E+02 -0.17319468266E+02  0.37052456739E+02  0.00000000000E+00 0. -1.
        -14    1    4    4    0    0 -0.55758182857E+02 -0.66081546797E+02 -0.67055769391E+02  0.10941764936E+03  0.00000000000E+00 0.  1.
</event>
<event>
12    1  0.8331241E-002  0.1834654E+03  0.7818608E-02  0.1165158E+00
         21   -1    0    0  501  502  0.00000000000E+00  0.00000000000E+00  0.80915295407E+02  0.80915295407E+02  0.00000000000E+00 0.  1.
         21   -1    0    0  502  503 -0.00000000000E+00 -0.00000000000E+00 -0.84908231040E+03  0.84908231040E+03  0.00000000000E+00 0.  1.
         -6    2    1    2    0  503 -0.55105250036E+02 -0.97568845308E+01 -0.72002622297E+03  0.74303250077E+03  0.17472192210E+03 0.  0.
        -24    2    3    3    0    0  0.19865179915E+02 -0.50458968417E+02 -0.43294367493E+03  0.44350670157E+03  0.79481040550E+02 0.  0.
          6    2    1    2  501    0  0.55105250036E+02  0.97568845308E+01 -0.48140792022E+02  0.18696510503E+03  0.17177493783E+03 0.  0.
         24    2    5    5    0    0  0.99740429540E+02  0.13576869087E+02 -0.55824932167E+02  0.14127016504E+03  0.81904528688E+02 0.  0.
          5    1    5    5  501    0 -0.44635179504E+02 -0.38199845564E+01  0.76841401446E+01  0.45694939995E+02  0.47000000000E+01 0. -1.
        -13    1    6    6    0    0  0.64554451619E+02  0.15907539399E+02  0.93768629822E+01  0.67143522345E+02  0.00000000000E+00 0.  1.
         14    1    6    6    0    0  0.35185977921E+02 -0.23306703120E+01 -0.65201795149E+02  0.74126642693E+02  0.00000000000E+00 0. -1.
         -5    1    3    3    0  503 -0.74970429951E+02  0.40702083886E+02 -0.28708254804E+03  0.29952579920E+03  0.47000000000E+01 0.  1.
         13    1    4    4    0    0  0.32278184125E+02  0.20379812388E+01 -0.26850233050E+03  0.27044322144E+03  0.00000000000E+00 0. -1.
        -14    1    4    4    0    0 -0.12413004210E+02 -0.52496949656E+02 -0.16444134443E+03  0.17306348013E+03  0.00000000000E+00 0.  1.
</event>
<event>
12    1  0.8331241E-002  0.1774852E+03  0.7818608E-02  0.1170592E+00
         21   -1    0    0  503  502  0.00000000000E+00  0.00000000000E+00  0.55162306494E+03  0.55162306494E+03  0.00000000000E+00 0. -1.
         21   -1    0    0  501  503 -0.00000000000E+00 -0.00000000000E+00 -0.71465097071E+02  0.71465097071E+02  0.00000000000E+00 0. -1.
          6    2    1    2  501    0 -0.34176583402E+02  0.27299435644E+02  0.97620568186E+02  0.20138226692E+03  0.17062164006E+03 0.  0.
         24    2    3    3    0    0 -0.50002371936E+02  0.16962922403E+02  0.13100394239E+03  0.16273205654E+03  0.80819003772E+02 0.  0.
         -6    2    1    2    0  502  0.34176583402E+02 -0.27299435644E+02  0.38253739969E+03  0.42170589510E+03  0.17201076060E+03 0.  0.
        -24    2    5    5    0    0  0.38385918921E+02 -0.82418636304E+02  0.28018928147E+03  0.30528823283E+03  0.80178309218E+02 0.  0.
          5    1    3    3  501    0  0.15825788534E+02  0.10336513241E+02 -0.33383374200E+02  0.38650210371E+02  0.47000000000E+01 0. -1.
        -13    1    4    4    0    0  0.19456565707E+02  0.16375657040E+02  0.49452425324E+02  0.55608115082E+02  0.00000000000E+00 0.  1.
         14    1    4    4    0    0 -0.69458937644E+02  0.58726536360E+00  0.81551517063E+02  0.10712394146E+03  0.00000000000E+00 0. -1.
         -5    1    5    5    0  502 -0.42093355191E+01  0.55119200660E+02  0.10234811821E+03  0.11641766227E+03  0.47000000000E+01 0.  1.
         11    1    6    6    0    0  0.61063738287E+02 -0.48994277317E+02  0.21250912572E+03  0.22647151666E+03  0.00000000000E+00 0. -1.
        -12    1    6    6    0    0 -0.22677819366E+02 -0.33424358987E+02  0.67680155751E+02  0.78816716167E+02  0.00000000000E+00 0.  1.
</event>
<event>
12    1  0.8331241E-002  0.2340626E+03  0.7818608E-02  0.1124080E+00
         21   -1    0    0  503  502  0.00000000000E+00  0.00000000000E+00  0.10150759926E+04  0.10150759926E+04  0.00000000000E+00 0. -1.
         21   -1    0    0  501  503 -0.00000000000E+00 -0.00000000000E+00 -0.86426874993E+02  0.86426874993E+02  0.00000000000E+00 0.  1.
          6    2    1    2  501    0 -0.10622597048E+03 -0.11513298451E+03  0.12401863804E+03  0.26351986405E+03  0.17182123047E+03 0.  0.
         24    2    3    3    0    0 -0.19660959949E+02 -0.11733591836E+03  0.54356423527E+02  0.15228467134E+03  0.77985442635E+02 0.  0.
         -6    2    1    2    0  502  0.10622597048E+03  0.11513298451E+03  0.80463047958E+03  0.83798300356E+03  0.17391303765E+03 0.  0.
        -24    2    5    5    0    0  0.51846355110E+02 -0.12130645199E+02  0.34555574740E+03  0.35847818217E+03  0.79136814684E+02 0.  0.
          5    1    3    3  501    0 -0.86565010532E+02  0.22029338517E+01  0.69662214516E+02  0.11123519271E+03  0.47000000000E+01 0. -1.
        -11    1    4    4    0    0 -0.14306608635E+02  0.82337586274E+01  0.48790932457E+01  0.17212768013E+02  0.00000000000E+00 0.  1.
         12    1    4    4    0    0 -0.53543513136E+01 -0.12556967698E+03  0.49477330281E+02  0.13507190332E+03  0.00000000000E+00 0. -1.
         -5    1    5    5    0  502  0.54379615371E+02  0.12726362970E+03  0.45907473218E+03  0.47950482139E+03  0.47000000000E+01 0.  1.
         11    1    6    6    0    0  0.15182251896E+01 -0.12182071596E+02  0.25153789759E+03  0.25183729232E+03  0.00000000000E+00 0. -1.
        -12    1    6    6    0    0  0.50328129920E+02  0.51426397000E-01  0.94017849808E+02  0.10664088985E+03  0.00000000000E+00 0.  1.
</event>
<event>
12    1  0.8331241E-002  0.1757347E+03  0.7818608E-02  0.1172392E+00
         21   -1    0    0  503  502  0.00000000000E+00  0.00000000000E+00  0.10694317425E+03  0.10694317425E+03  0.00000000000E+00 0.  1.
         21   -1    0    0  501  503 -0.00000000000E+00 -0.00000000000E+00 -0.56166920691E+03  0.56166920691E+03  0.00000000000E+00 0.  1.
          6    2    1    2  501    0  0.25970366992E+02  0.57845477405E+01 -0.46096470569E+03  0.49276700348E+03  0.17211315718E+03 0.  0.
         24    2    3    3    0    0  0.54889715300E+02 -0.27296624141E+02 -0.42015048515E+03  0.43261234250E+03  0.82879564285E+02 0.  0.
         -6    2    1    2    0  502 -0.25970366992E+02 -0.57845477405E+01  0.62386730260E+01  0.17584537767E+03  0.17370882204E+03 0.  0.
        -24    2    5    5    0    0 -0.30194676679E+02  0.82636216842E+01 -0.61697070139E+02  0.10618512318E+03  0.80552752764E+02 0.  0.
          5    1    3    3  501    0 -0.28919348308E+02  0.33081171882E+02 -0.40814220539E+02  0.60154660981E+02  0.47000000000E+01 0. -1.
        -13    1    4    4    0    0  0.49937206308E+02  0.20974816371E+02 -0.20253171846E+03  0.20964914614E+03  0.00000000000E+00 0.  1.
         14    1    4    4    0    0  0.49525089926E+01 -0.48271440512E+02 -0.21761876669E+03  0.22296319635E+03  0.00000000000E+00 0. -1.
         -5    1    5    5    0  502  0.42243096866E+01 -0.14048169425E+02  0.67935743165E+02  0.69660254492E+02  0.47000000000E+01 0.  1.
         13    1    6    6    0    0  0.26642011750E+02  0.12363924653E+02 -0.22971396540E+02  0.37287376978E+02  0.00000000000E+00 0. -1.
        -14    1    6    6    0    0 -0.56836688429E+02 -0.41003029685E+01 -0.38725673599E+02  0.68897746202E+02  0.00000000000E+00 0.  1.
</event>
<event>
12    1  0.8331241E-002  0.1865187E+03  0.7818608E-02  0.1162963E+00
         21   -1    0    0  503  502  0.00000000000E+00  0.00000000000E+00  0.12051727794E+03  0.12051727794E+03  0.00000000000E+00 0.  1.
         21   -1    0    0  501  503 -0.00000000000E+00 -0.00000000000E+00 -0.29432772625E+03  0.29432772625E+03  0.00000000000E+00 0.  1.
          6    2    1    2  501    0 -0.44388183442E+02  0.31635764351E+02 -0.13138586300E+03  0.22356230741E+03  0.17247239744E+03 0.  0.
         24    2    3    3    0    0 -0.40154961022E+02  0.69098318503E+02 -0.33511194353E+02  0.11857228931E+03  0.80928296236E+02 0.  0.
         -6    2    1    2    0  502  0.44388183442E+02 -0.31635764351E+02 -0.42424585308E+02  0.19128269679E+03  0.17837626591E+03 0.  0.
        -24    2    5    5    0    0  0.96091390712E+02 -0.59026766019E+01 -0.61225931599E+01  0.12290625289E+03  0.76158150531E+02 0.  0.
          5    1    3    3  501    0 -0.42332224200E+01 -0.37462554152E+02 -0.97874668649E+02  0.10499001809E+03  0.47000000000E+01 0. -1.
        -11    1    4    4    0    0 -0.55522302722E+01  0.17235718667E+01  0.23222551313E+02  0.23939190681E+02  0.00000000000E+00 0.  1.
         12    1    4    4    0    0 -0.34602730749E+02  0.67374746636E+02 -0.56733745666E+02  0.94633098633E+02  0.00000000000E+00 0. -1.
         -5    1    5    5    0  502 -0.51703207270E+02 -0.25733087749E+02 -0.36301992148E+02  0.68376443904E+02  0.47000000000E+01 0.  1.
         13    1    6    6    0    0  0.83343587638E+02  0.26733716307E+02 -0.12810620214E+01  0.87535628791E+02  0.00000000000E+00 0. -1.
        -14    1    6    6    0    0  0.12747803074E+02 -0.32636392909E+02 -0.48415311385E+01  0.35370624098E+02  0.00000000000E+00 0.  1.
</event>
<event>
12    1  0.8331241E-002  0.2053253E+03  0.7818608E-02  0.1145626E+00
         21   -1    0    0  503  502  0.00000000000E+00  0.00000000000E+00  0.25048992467E+02  0.25048992467E+02  0.00000000000E+00 0. -1.
         21   -1    0    0  501  503 -0.00000000000E+00 -0.00000000000E+00 -0.19351757026E+04  0.19351757026E+04  0.00000000000E+00 0.  1.
          6    2    1    2  501    0  0.18158163011E+02  0.10757317628E+03 -0.59585155264E+03  0.63023610857E+03  0.17394474014E+03 0.  0.
         24    2    3    3    0    0  0.50634928960E+02  0.81390297377E+02 -0.55165228938E+03  0.56927752963E+03  0.10280263040E+03 0.  0.
         -6    2    1    2    0  502 -0.18158163011E+02 -0.10757317628E+03 -0.13142751575E+04  0.13299885865E+04  0.17218810490E+03 0.  0.
        -24    2    5    5    0    0 -0.49816051043E+02 -0.54858657465E+02 -0.11407324552E+04  0.11458142075E+04  0.78285071795E+02 0.  0.
          5    1    3    3  501    0 -0.32476765949E+02  0.26182878908E+02 -0.44199263261E+02  0.60958578947E+02  0.47000000000E+01 0. -1.
        -13    1    4    4    0    0 -0.43239040143E+01  0.59896851420E+02 -0.42882487010E+03  0.43300935114E+03  0.00000000000E+00 0.  1.
         14    1    4    4    0    0  0.54958832974E+02  0.21493445957E+02 -0.12282741928E+03  0.13626817849E+03  0.00000000000E+00 0. -1.
         -5    1    5    5    0  502  0.31657888032E+02 -0.52714518820E+02 -0.17354270230E+03  0.18417437903E+03  0.47000000000E+01 0.  1.
         13    1    6    6    0    0 -0.55469556911E+02 -0.22658773464E+02 -0.41047076722E+03  0.41482109699E+03  0.00000000000E+00 0. -1.
        -14    1    6    6    0    0  0.56535058682E+01 -0.32199884001E+02 -0.73026168800E+03  0.73099311051E+03  0.00000000000E+00 0.  1.
</event>
<event>
12    1  0.8331241E-002  0.1978800E+03  0.7818608E-02  0.1151716E+00
         21   -1    0    0  503  502  0.00000000000E+00  0.00000000000E+00  0.10098303657E+03  0.10098303657E+03  0.00000000000E+00 0.  1.
         21   -1    0    0  501  503 -0.00000000000E+00 -0.00000000000E+00 -0.45347331984E+03  0.45347331984E+03  0.00000000000E+00 0. -1.
          6    2    1    2  501    0 -0.79945181328E+02 -0.55017004796E+02 -0.28275412623E+03  0.34464780492E+03  0.17150542470E+03 0.  0.
         24    2    3    3    0    0 -0.35451835036E+02  0.34134756214E+02 -0.10138249952E+03  0.13765637676E+03  0.79049684785E+02 0.  0.
         -6    2    1    2    0  502  0.79945181328E+02  0.55017004796E+02 -0.69736157048E+02  0.20980855149E+03  0.17244823526E+03 0.  0.
        -24    2    5    5    0    0  0.83553420803E+01 -0.46024417568E+00 -0.85423875921E+02  0.11777038137E+03  0.80638704006E+02 0.  0.
          5    1    3    3  501    0 -0.44493346292E+02 -0.89151761010E+02 -0.18137162671E+03  0.20699142816E+03  0.47000000000E+01 0. -1.
        -11    1    4    4    0    0 -0.47034306768E+02 -0.91333663176E+01 -0.58854878630E+02  0.75891640725E+02  0.00000000000E+00 0.  1.
         12    1    4    4    0    0  0.11582471732E+02  0.43268122532E+02 -0.42527620886E+02  0.61764736032E+02  0.00000000000E+00 0. -1.
         -5    1    5    5    0  502  0.71589839247E+02  0.55477248971E+02  0.15687718872E+02  0.92038170127E+02  0.47000000000E+01 0.  1.
         11    1    6    6    0    0  0.32778349629E+02  0.14297558933E+02 -0.81456121393E+02  0.88960328845E+02  0.00000000000E+00 0. -1.
        -12    1    6    6    0    0 -0.24423007548E+02 -0.14757803108E+02 -0.39677545279E+01  0.28810052521E+02  0.00000000000E+00 0.  1.
</event>
<event>
12    1  0.8331241E-002  0.2329710E+03  0.7818608E-02  0.1124893E+00
         21   -1    0    0  503  502  0.00000000000E+00  0.00000000000E+00  0.10032866501E+03  0.10032866501E+03  0.00000000000E+00 0. -1.
         21   -1    0    0  501  503 -0.00000000000E+00 -0.00000000000E+00 -0.53665005730E+03  0.53665005730E+03  0.00000000000E+00 0. -1.
          6    2    1    2  501    0  0.42589113280E+02 -0.14964534590E+03 -0.22148230573E+03  0.32144966259E+03  0.17340101415E+03 0.  0.
         24    2    3    3    0    0  0.39738694693E+02 -0.45027070927E+02 -0.40035138200E+02  0.11193051562E+03  0.85551312459E+02 0.  0.
         -6    2    1    2    0  502 -0.42589113280E+02  0.14964534590E+03 -0.21483908657E+03  0.31552905972E+03  0.17086600684E+03 0.  0.
        -24    2    5    5    0    0 -0.62591025289E+02  0.13262305796E+03 -0.12141105661E+03  0.21836568416E+03  0.10694117729E+03 0.  0.
          5    1    3    3  501    0  0.28504185871E+01 -0.10461827498E+03 -0.18144716753E+03  0.20951914697E+03  0.47000000000E+01 0. -1.
        -11    1    4    4    0    0  0.53221855832E+02 -0.57659813114E+02 -0.13537489637E+02  0.79627153737E+02  0.00000000000E+00 0.  1.
         12    1    4    4    0    0 -0.13483161139E+02  0.12632742186E+02 -0.26497648563E+02  0.32303361881E+02  0.00000000000E+00 0. -1.
         -5    1    5    5    0  502  0.20001912009E+02  0.17022287944E+02 -0.93428029954E+02  0.97163375569E+02  0.47000000000E+01 0.  1.
         13    1    6    6    0    0 -0.69976953009E+02  0.12702829837E+03 -0.13746874181E+03  0.19982646850E+03  0.00000000000E+00 0. -1.
        -14    1    6    6    0    0  0.73859277202E+01  0.55947595920E+01  0.16057685198E+02  0.18539215655E+02  0.00000000000E+00 0.  1.
</event>
<event>
12    1  0.8331241E-002  0.1882506E+03  0.7818608E-02  0.1160091E+00
         21   -1    0    0  503  502  0.00000000000E+00  0.00000000000E+00  0.31868317289E+03  0.31868317289E+03  0.00000000000E+00 0.  1.
         21   -1    0    0  501  503 -0.00000000000E+00 -0.00000000000E+00 -0.13166613068E+03  0.13166613068E+03  0.00000000000E+00 0.  1.
          6    2    1    2  501    0 -0.68981995647E+02 -0.32259520973E+02  0.44581956675E+01  0.18811654363E+03  0.17195570959E+03 0.  0.
         24    2    3    3    0    0 -0.54076817689E+01 -0.70025819394E+02 -0.21734627835E+02  0.10952811773E+03  0.81185935497E+02 0.  0.
         -6    2    1    2    0  502  0.68981995647E+02  0.32259520973E+02  0.18255884654E+03  0.26223275994E+03  0.17216008689E+03 0.  0.
        -24    2    5    5    0    0 -0.68382326784E+00  0.22704512165E+02  0.31226472634E+02  0.95295041285E+02  0.87121121511E+02 0.  0.
          5    1    3    3  501    0 -0.63574313879E+02  0.37766298421E+02  0.26192823503E+02  0.78588425895E+02  0.47000000000E+01 0. -1.
        -11    1    4    4    0    0 -0.36798002617E+02 -0.10896535044E+02  0.21815369048E+01  0.38439388339E+02  0.00000000000E+00 0.  1.
         12    1    4    4    0    0  0.31390320848E+02 -0.59129284350E+02 -0.23916164740E+02  0.71088729392E+02  0.00000000000E+00 0. -1.
         -5    1    5    5    0  502  0.69665818915E+02  0.95550088077E+01  0.15133237391E+03  0.16693771866E+03  0.47000000000E+01 0.  1.
         11    1    6    6    0    0  0.89032503972E+01 -0.37211694865E+01 -0.28064764687E+02  0.29677364891E+02  0.00000000000E+00 0. -1.
        -12    1    6    6    0    0 -0.95870736650E+01  0.26425681651E+02  0.59291237321E+02  0.65617676393E+02  0.00000000000E+00 0.  1.
</event>
<event>
12    1  0.8331241E-002  0.1872686E+03  0.7818608E-02  0.1161074E+00
         21   -1    0    0  503  502  0.00000000000E+00  0.00000000000E+00  0.75993980185E+03  0.75993980185E+03  0.00000000000E+00 0.  1.
         21   -1    0    0  501  503 -0.00000000000E+00 -0.00000000000E+00 -0.51534769468E+02  0.51534769468E+02  0.00000000000E+00 0.  1.
          6    2    1    2  501    0 -0.28551953798E+02 -0.67722607955E+02  0.22092786949E+03  0.28926436839E+03  0.17164843608E+03 0.  0.
         24    2    3    3    0    0 -0.10039524829E+02 -0.10562691757E+03  0.11661369970E+03  0.17664561892E+03  0.79668575678E+02 0.  0.
         -6    2    1    2    0  502  0.28551953798E+02  0.67722607955E+02  0.48747716289E+03  0.52221020293E+03  0.17224385623E+03 0.  0.
        -24    2    5    5    0    0  0.35522517486E+02  0.79996877152E+02  0.18569421470E+03  0.22006076265E+03  0.79265681619E+02 0.  0.
          5    1    3    3  501    0 -0.18512428969E+02  0.37904309614E+02  0.10431416979E+03  0.11261874947E+03  0.47000000000E+01 0. -1.
        -11    1    4    4    0    0 -0.16468001549E+02 -0.14905547640E+02  0.71991058232E+02  0.75339782923E+02  0.00000000000E+00 0.  1.
         12    1    4    4    0    0  0.64284767198E+01 -0.90721369930E+02  0.44622641470E+02  0.10130583600E+03  0.00000000000E+00 0. -1.
         -5    1    5    5    0  502 -0.69705636876E+01 -0.12274269196E+02  0.30178294819E+03  0.30214944028E+03  0.47000000000E+01 0.  1.
         11    1    6    6    0    0 -0.99145655314E+01 -0.10596105291E+02  0.11446897123E+02  0.18482627269E+02  0.00000000000E+00 0. -1.
        -12    1    6    6    0    0  0.45437083017E+02  0.90592982443E+02  0.17424731758E+03  0.20157813538E+03  0.00000000000E+00 0.  1.
</event>
<event>
12    1  0.8331241E-002  0.1909063E+03  0.7818608E-02  0.1157853E+00
         21   -1    0    0  501  502  0.00000000000E+00  0.00000000000E+00  0.69767731382E+03  0.69767731382E+03  0.00000000000E+00 0.  1.
         21   -1    0    0  502  503 -0.00000000000E+00 -0.00000000000E+00 -0.71822409481E+02  0.71822409481E+02  0.00000000000E+00 0. -1.
         -6    2    1    2    0  503  0.17465611585E+02  0.78979438875E+02  0.11127768847E+03  0.22097044088E+03  0.17292314027E+03 0.  0.
        -24    2    3    3    0    0  0.60215852728E-01  0.78086574793E+02  0.33523448135E+01  0.11154597008E+03  0.79584850545E+02 0.  0.
          6    2    1    2  501    0 -0.17465611585E+02 -0.78979438875E+02  0.51457721587E+03  0.54852928242E+03  0.17190655376E+03 0.  0.
         24    2    5    5    0    0  0.10126590327E+02 -0.17734813842E+02  0.44246120541E+03  0.44986296260E+03  0.78661905482E+02 0.  0.
          5    1    5    5  501    0 -0.27592201912E+02 -0.61244625033E+02  0.72116010456E+02  0.98666319815E+02  0.47000000000E+01 0. -1.
        -13    1    6    6    0    0  0.41116541120E+02  0.55811921833E+01  0.26358412086E+03  0.26683011155E+03  0.00000000000E+00 0.  1.
         14    1    6    6    0    0 -0.30989950793E+02 -0.23316006026E+02  0.17887708455E+03  0.18303285105E+03  0.00000000000E+00 0. -1.
         -5    1    3    3    0  503  0.17405395732E+02  0.89286408181E+00  0.10792534366E+03  0.10942447080E+03  0.47000000000E+01 0.  1.
         11    1    4    4    0    0  0.34845772510E+02  0.16643893972E+02  0.11937592801E+02  0.40419712892E+02  0.00000000000E+00 0. -1.
        -12    1    4    4    0    0 -0.34785556658E+02  0.61442680821E+02 -0.85852479877E+01  0.71126257187E+02  0.00000000000E+00 0.  1.
</event>
<event>
12    1  0.8331241E-002  0.2663150E+03  0.7818608E-02  0.1103524E+00
         21   -1    0    0  503  502  0.00000000000E+00  0.00000000000E+00  0.47442975369E+03  0.47442975369E+03  0.00000000000E+00 0.  1.
         21   -1    0    0  501  503 -0.00000000000E+00 -0.00000000000E+00 -0.23559842543E+03  0.23559842543E+03  0.00000000000E+00 0. -1.
          6    2    1    2  501    0  0.15995179753E+03 -0.12498650385E+03  0.33471243270E+03  0.42773367439E+03  0.17238758636E+03 0.  0.
         24    2    3    3    0    0  0.15672546350E+03 -0.14055999975E+03  0.34234227296E+03  0.40947860747E+03  0.78450708607E+02 0.  0.
         -6    2    1    2    0  502 -0.15995179753E+03  0.12498650385E+03 -0.95881104437E+02  0.28229450473E+03  0.17114554488E+03 0.  0.
        -24    2    5    5    0    0 -0.10347807791E+03  0.15276426736E+03 -0.87782262081E+02  0.21866615884E+03  0.77875089051E+02 0.  0.
          5    1    3    3  501    0  0.32263340265E+01  0.15573495902E+02 -0.76298402622E+01  0.18255066921E+02  0.47000000000E+01 0. -1.
        -11    1    4    4    0    0  0.12845616410E+03 -0.12919449789E+03  0.23187652515E+03  0.29488799110E+03  0.00000000000E+00 0.  1.
         12    1    4    4    0    0  0.28269299407E+02 -0.11365501867E+02  0.11046574781E+03  0.11459061637E+03  0.00000000000E+00 0. -1.
         -5    1    5    5    0  502 -0.56473719621E+02 -0.27777763509E+02 -0.80988423562E+01  0.63628345891E+02  0.47000000000E+01 0.  1.
         11    1    6    6    0    0 -0.54708730116E+02  0.23320704315E+02 -0.42574227244E+02  0.73140038461E+02  0.00000000000E+00 0. -1.
        -12    1    6    6    0    0 -0.48769347793E+02  0.12944356304E+03 -0.45208034837E+02  0.14552612038E+03  0.00000000000E+00 0.  1.
</event>
<event>
12    1  0.8331241E-002  0.2265406E+03  0.7818608E-02  0.1129108E+00
         21   -1    0    0  501  502  0.00000000000E+00  0.00000000000E+00  0.14645790506E+03  0.14645790506E+03  0.00000000000E+00 0.  1.
         21   -1    0    0  502  503 -0.00000000000E+00 -0.00000000000E+00 -0.53618396433E+03  0.53618396433E+03  0.00000000000E+00 0. -1.
         -6    2    1    2    0  503 -0.94531896620E+02 -0.11326541982E+03 -0.39582716320E+03  0.45606994517E+03  0.17191659884E+03 0.  0.
        -24    2    3    3    0    0 -0.13094130677E+03 -0.90107513686E+02 -0.26983795041E+03  0.32281340498E+03  0.78300607354E+02 0.  0.
          6    2    1    2  501    0  0.94531896620E+02  0.11326541982E+03  0.61011039226E+01  0.22657192422E+03  0.17184958123E+03 0.  0.
         24    2    5    5    0    0  0.99131672941E+02  0.14556429702E+03  0.78466030562E+01  0.19356416485E+03  0.79934120296E+02 0.  0.
          5    1    5    5  501    0 -0.45997763218E+01 -0.32298877207E+02 -0.17454991336E+01  0.33007759364E+02  0.47000000000E+01 0. -1.
        -13    1    6    6    0    0  0.72130520343E+02  0.36120422708E+02  0.42706617218E+01  0.80782024320E+02  0.00000000000E+00 0.  1.
         14    1    6    6    0    0  0.27001152598E+02  0.10944387432E+03  0.35759413344E+01  0.11278214053E+03  0.00000000000E+00 0. -1.
         -5    1    3    3    0  503  0.36409410152E+02 -0.23157906131E+02 -0.12598921278E+03  0.13325654018E+03  0.47000000000E+01 0.  1.
         13    1    4    4    0    0 -0.38131681321E+02 -0.56916116055E+02 -0.16631115775E+03  0.17986903730E+03  0.00000000000E+00 0. -1.
        -14    1    4    4    0    0 -0.92809625450E+02 -0.33191397631E+02 -0.10352679266E+03  0.14294436768E+03  0.00000000000E+00 0.  1.
</event>
<event>
12    1  0.8331241E-002  0.2663719E+03  0.7818608E-02  0.1103455E+00
         21   -1    0    0  503  502  0.00000000000E+00  0.00000000000E+00  0.13138545712E+04  0.13138545712E+04  0.00000000000E+00 0. -1.
         21   -1    0    0  501  503 -0.00000000000E+00 -0.00000000000E+00 -0.11401024641E+03  0.11401024641E+03  0.00000000000E+00 0. -1.
          6    2    1    2  501    0 -0.14706083840E+03 -0.13976975438E+03  0.81791487884E+02  0.27864645717E+03  0.17260221949E+03 0.  0.
         24    2    3    3    0    0 -0.10281996281E+02 -0.29525056836E+02  0.80857478067E+00  0.85145379128E+02  0.79193644727E+02 0.  0.
         -6    2    1    2    0  502  0.14706083840E+03  0.13976975438E+03  0.11180528369E+04  0.11492183604E+04  0.17175045681E+03 0.  0.
        -24    2    5    5    0    0  0.54774851198E+02  0.12333768379E+03  0.55148356474E+03  0.57492788817E+03  0.90528922689E+02 0.  0.
          5    1    3    3  501    0 -0.13677884212E+03 -0.11024469754E+03  0.80982913104E+02  0.19350107804E+03  0.47000000000E+01 0. -1.
        -13    1    4    4    0    0 -0.70666364682E+01 -0.93352612884E+00  0.37696001341E+02  0.38364010988E+02  0.00000000000E+00 0.  1.
         14    1    4    4    0    0 -0.32153598132E+01 -0.28591530707E+02 -0.36887426560E+02  0.46781368141E+02  0.00000000000E+00 0. -1.
         -5    1    5    5    0  502  0.92285987206E+02  0.16432070590E+02  0.56656927217E+03  0.57429047228E+03  0.47000000000E+01 0.  1.
         13    1    6    6    0    0 -0.27635986549E+01  0.98361549699E+02  0.29929756227E+03  0.31505818941E+03  0.00000000000E+00 0. -1.
        -14    1    6    6    0    0  0.57538449853E+02  0.24976134090E+02  0.25218600248E+03  0.25986969876E+03  0.00000000000E+00 0.  1.
</event>
<event>
12    1  0.8331241E-002  0.2721532E+03  0.7818608E-02  0.1100092E+00
         21   -1    0    0  501  502  0.00000000000E+00  0.00000000000E+00  0.12364610875E+03  0.12364610875E+03  0.00000000000E+00 0. -1.
         21   -1    0    0  502  503 -0.00000000000E+00 -0.00000000000E+00 -0.84103066509E+03  0.84103066509E+03  0.00000000000E+00 0.  1.
         -6    2    1    2    0  503  0.48406277169E+02 -0.20505936783E+03 -0.61787220241E+03  0.67515435700E+03  0.17226385359E+03 0.  0.
        -24    2    3    3    0    0  0.20540462954E+02 -0.35182161789E+02 -0.13320976501E+03  0.16080570388E+03  0.80336403830E+02 0.  0.
          6    2    1    2  501    0 -0.48406277169E+02  0.20505936783E+03 -0.99512353924E+02  0.28952241684E+03  0.17183715915E+03 0.  0.
         24    2    5    5    0    0  0.15329235792E+02  0.14170175966E+03 -0.11573791151E+02  0.16369840106E+03  0.79679606591E+02 0.  0.
          5    1    5    5  501    0 -0.63735512961E+02  0.63357608176E+02 -0.87938562773E+02  0.12582401579E+03  0.47000000000E+01 0. -1.
        -11    1    6    6    0    0  0.35783725107E+02  0.12018494287E+03 -0.29761689196E+02  0.12888232470E+03  0.00000000000E+00 0.  1.
         12    1    6    6    0    0 -0.20454489315E+02  0.21516816787E+02  0.18187898044E+02  0.34816076359E+02  0.00000000000E+00 0. -1.
         -5    1    3    3    0  503  0.27865814215E+02 -0.16987720604E+03 -0.48466243740E+03  0.51434865311E+03  0.47000000000E+01 0.  1.
         11    1    4    4    0    0 -0.10230023880E+01 -0.40849885990E+02 -0.20135654016E+02  0.45554410126E+02  0.00000000000E+00 0. -1.
        -12    1    4    4    0    0  0.21563465342E+02  0.56677242006E+01 -0.11307411100E+03  0.11525129376E+03  0.00000000000E+00 0.  1.
</event>
<event>
12    1  0.8331241E-002  0.1843017E+03  0.7818608E-02  0.1164118E+00
         21   -1    0    0  501  502  0.00000000000E+00  0.00000000000E+00  0.79071507441E+03  0.79071507441E+03  0.00000000000E+00 0.  1.
         21   -1    0    0  502  503 -0.00000000000E+00 -0.00000000000E+00 -0.55476283500E+02  0.55476283500E+02  0.00000000000E+00 0. -1.
         -6    2    1    2    0  503 -0.61439351214E+02  0.23748672505E+02  0.16473312353E+03  0.24719247654E+03  0.17212880394E+03 0.  0.
        -24    2    3    3    0    0 -0.74072102256E+02  0.70354616536E+02  0.86148956895E+02  0.15483847466E+03  0.78210370542E+02 0.  0.
          6    2    1    2  501    0  0.61439351214E+02 -0.23748672505E+02  0.57050566738E+03  0.59899888137E+03  0.17024732023E+03 0.  0.
         24    2    5    5    0    0  0.21212234488E+02  0.28552788004E+02  0.15149143714E+03  0.17479529954E+03  0.79614826635E+02 0.  0.
          5    1    5    5  501    0  0.40227116726E+02 -0.52301460509E+02  0.41901423024E+03  0.42420358182E+03  0.47000000000E+01 0. -1.
        -13    1    6    6    0    0 -0.11331650703E+02 -0.23166901625E+02  0.38518980432E+02  0.46355404130E+02  0.00000000000E+00 0.  1.
         14    1    6    6    0    0  0.32543885191E+02  0.51719689628E+02  0.11297245671E+03  0.12843989541E+03  0.00000000000E+00 0. -1.
         -5    1    3    3    0  503  0.12632751042E+02 -0.46605944031E+02  0.78584166632E+02  0.92354001879E+02  0.47000000000E+01 0.  1.
         11    1    4    4    0    0 -0.78890749829E+02  0.24703665044E+02  0.52646964682E+02  0.98008797388E+02  0.00000000000E+00 0. -1.
        -12    1    4    4    0    0  0.48186475732E+01  0.45650951493E+02  0.33501992213E+02  0.56829677272E+02  0.00000000000E+00 0.  1.
</event>
<event>
12    1  0.8331241E-002  0.2927036E+03  0.7818608E-02  0.1089138E+00
         21   -1    0    0  503  502  0.00000000000E+00  0.00000000000E+00  0.76701074359E+02  0.76701074359E+02  0.00000000000E+00 0.  1.
         21   -1    0    0  501  503 -0.00000000000E+00 -0.00000000000E+00 -0.11469945868E+04  0.11469945868E+04  0.00000000000E+00 0.  1.
          6    2    1    2  501    0  0.22942702154E+03 -0.53113527623E+02 -0.42596120861E+03  0.51599552224E+03  0.17132023435E+03 0.  0.
         24    2    3    3    0    0  0.23395923932E+03 -0.60866241522E+02 -0.32125958508E+03  0.41080443164E+03  0.84326360230E+02 0.  0.
         -6    2    1    2    0  502 -0.22942702154E+03  0.53113527623E+02 -0.64433230380E+03  0.70770013889E+03  0.17383199888E+03 0.  0.
        -24    2    5    5    0    0 -0.20369906758E+03  0.47971219346E+01 -0.38944053682E+03  0.44695446673E+03  0.81166748759E+02 0.  0.
          5    1    3    3  501    0 -0.45322177821E+01  0.77527138985E+01 -0.10470162353E+03  0.10519109059E+03  0.47000000000E+01 0. -1.
        -13    1    4    4    0    0  0.18817196805E+03 -0.80852263722E+02 -0.24104731622E+03  0.31630615986E+03  0.00000000000E+00 0.  1.
         14    1    4    4    0    0  0.45787271271E+02  0.19986022200E+02 -0.80212268865E+02  0.94498271784E+02  0.00000000000E+00 0. -1.
         -5    1    5    5    0  502 -0.25727953962E+02  0.48316405689E+02 -0.25489176698E+03  0.26074567215E+03  0.47000000000E+01 0.  1.
         13    1    6    6    0    0 -0.13105765436E+03 -0.27362395540E+02 -0.19143508883E+03  0.23360694059E+03  0.00000000000E+00 0. -1.
        -14    1    6    6    0    0 -0.72641413218E+02  0.32159517475E+02 -0.19800544799E+03  0.21334752614E+03  0.00000000000E+00 0.  1.
</event>
<event>
12    1  0.8331241E-002  0.1879081E+03  0.7818608E-02  0.1161397E+00
         21   -1    0    0  503  502  0.00000000000E+00  0.00000000000E+00  0.11043294703E+03  0.11043294703E+03  0.00000000000E+00 0.  1.
         21   -1    0    0  501  503 -0.00000000000E+00 -0.00000000000E+00 -0.39106934290E+03  0.39106934290E+03  0.00000000000E+00 0. -1.
          6    2    1    2  501    0 -0.48255827023E+02 -0.37145566646E+02 -0.25428402104E+03  0.31618005382E+03  0.17776682795E+03 0.  0.
         24    2    3    3    0    0  0.20489909707E+02  0.21394158930E+02 -0.84595541415E+02  0.12390643133E+03  0.85550287330E+02 0.  0.
         -6    2    1    2    0  502  0.48255827023E+02  0.37145566646E+02 -0.26352374837E+02  0.18532223611E+03  0.17303602392E+03 0.  0.
        -24    2    5    5    0    0 -0.22136515057E+02  0.80921508657E+01 -0.76281227214E+02  0.94140203384E+02  0.49880297348E+02 0.  0.
          5    1    3    3  501    0 -0.68745736729E+02 -0.58539725576E+02 -0.16968847962E+03  0.19227362249E+03  0.47000000000E+01 0. -1.
        -11    1    4    4    0    0  0.38866781189E+02 -0.21511724890E+01 -0.85585652442E+02  0.94022115095E+02  0.00000000000E+00 0.  1.
         12    1    4    4    0    0 -0.18376871482E+02  0.23545331419E+02  0.99011102747E+00  0.29884316237E+02  0.00000000000E+00 0. -1.
         -5    1    5    5    0  502  0.70392342080E+02  0.29053415780E+02  0.49928852377E+02  0.91182032724E+02  0.47000000000E+01 0.  1.
         11    1    6    6    0    0  0.58524934045E+01  0.22807731994E+02 -0.32500566467E+02  0.40133915065E+02  0.00000000000E+00 0. -1.
        -12    1    6    6    0    0 -0.27989008462E+02 -0.14715581128E+02 -0.43780660747E+02  0.54006288319E+02  0.00000000000E+00 0.  1.
</event>
<event>
12    1  0.8331241E-002  0.2059429E+03  0.7818608E-02  0.1145604E+00
         21   -1    0    0  503  502  0.00000000000E+00  0.00000000000E+00  0.20256152061E+03  0.20256152061E+03  0.00000000000E+00 0. -1.
         21   -1    0    0  501  503 -0.00000000000E+00 -0.00000000000E+00 -0.24161158298E+03  0.24161158298E+03  0.00000000000E+00 0. -1.
          6    2    1    2  501    0 -0.10399906004E+03  0.36169557207E+02 -0.10521114350E+03  0.22786365748E+03  0.16949460265E+03 0.  0.
         24    2    3    3    0    0 -0.67144706982E+01  0.90754436157E+01 -0.49194093213E+01  0.85459639776E+02  0.84567734089E+02 0.  0.
         -6    2    1    2    0  502  0.10399906004E+03 -0.36169557207E+02  0.66161081129E+02  0.21630944612E+03  0.17403576203E+03 0.  0.
        -24    2    5    5    0    0  0.84776151092E+02 -0.89351861716E+02  0.29745633279E+02  0.14888502485E+03  0.78174144952E+02 0.  0.
          5    1    3    3  501    0 -0.97284589338E+02  0.27094113591E+02 -0.10029173418E+03  0.14240401770E+03  0.47000000000E+01 0. -1.
        -13    1    4    4    0    0 -0.29275590390E+02  0.47833589000E+01  0.30948727823E+02  0.42869155215E+02  0.00000000000E+00 0.  1.
         14    1    4    4    0    0  0.22561119692E+02  0.42920847157E+01 -0.35868137144E+02  0.42590484561E+02  0.00000000000E+00 0. -1.
         -5    1    5    5    0  502  0.19222908944E+02  0.53182304509E+02  0.36415447851E+02  0.67424421268E+02  0.47000000000E+01 0.  1.
         13    1    6    6    0    0  0.36967946085E+02 -0.15098019505E+02  0.44011071730E+02  0.59426876627E+02  0.00000000000E+00 0. -1.
        -14    1    6    6    0    0  0.47808205007E+02 -0.74253842211E+02 -0.14265438452E+02  0.89458148222E+02  0.00000000000E+00 0.  1.
</event>
<event>
12    1  0.8331241E-002  0.2106812E+03  0.7818608E-02  0.1141456E+00
         21   -1    0    0  501  502  0.00000000000E+00  0.00000000000E+00  0.12224341373E+04  0.12224341373E+04  0.00000000000E+00 0. -1.
         21   -1    0    0  502  503 -0.00000000000E+00 -0.00000000000E+00 -0.38024151279E+02  0.38024151279E+02  0.00000000000E+00 0. -1.
         -6    2    1    2    0  503 -0.17125602674E+02 -0.11840254459E+03  0.74268986791E+03  0.77199403370E+03  0.17341885524E+03 0.  0.
        -24    2    3    3    0    0  0.41423778939E+02 -0.12058785958E+03  0.50967626435E+03  0.53168124767E+03  0.81594689427E+02 0.  0.
          6    2    1    2  501    0  0.17125602674E+02  0.11840254459E+03  0.44172011807E+03  0.48846425483E+03  0.17078705076E+03 0.  0.
         24    2    5    5    0    0 -0.29137108623E+02  0.12912244740E+03  0.27682245630E+03  0.31680038667E+03  0.78805045287E+02 0.  0.
          5    1    5    5  501    0  0.46262711297E+02 -0.10719902813E+02  0.16489766178E+03  0.17166386816E+03  0.47000000000E+01 0. -1.
        -11    1    6    6    0    0 -0.14430633006E+02  0.12698853952E+02  0.11674712080E+03  0.11831903598E+03  0.00000000000E+00 0.  1.
         12    1    6    6    0    0 -0.14706475617E+02  0.11642359345E+03  0.16007533550E+03  0.19848135069E+03  0.00000000000E+00 0. -1.
         -5    1    3    3    0  503 -0.58549381613E+02  0.21853149966E+01  0.23301360356E+03  0.24031278604E+03  0.47000000000E+01 0.  1.
         13    1    4    4    0    0 -0.78803158964E+01 -0.28986354234E+02  0.36826854270E+02  0.47523944553E+02  0.00000000000E+00 0. -1.
        -14    1    4    4    0    0  0.49304094835E+02 -0.91601505350E+02  0.47284941008E+03  0.48415730312E+03  0.00000000000E+00 0.  1.
</event>
<event>
12    1  0.8331241E-002  0.2217483E+03  0.7818608E-02  0.1132832E+00
         21   -1    0    0  501  502  0.00000000000E+00  0.00000000000E+00  0.66253761383E+02  0.66253761383E+02  0.00000000000E+00 0. -1.
         21   -1    0    0  502  503 -0.00000000000E+00 -0.00000000000E+00 -0.11054758035E+04  0.11054758035E+04  0.00000000000E+00 0. -1.
         -6    2    1    2    0  503 -0.14183231395E+03 -0.72530601019E+01 -0.85854776189E+03  0.88672237378E+03  0.17030354240E+03 0.  0.
        -24    2    3    3    0    0 -0.10367841252E+03 -0.38404124671E+02 -0.79298256158E+03  0.80458228302E+03  0.79417990172E+02 0.  0.
          6    2    1    2  501    0  0.14183231395E+03  0.72530601019E+01 -0.18067428020E+03  0.28500719108E+03  0.16857310366E+03 0.  0.
         24    2    5    5    0    0  0.10234781393E+02 -0.20319370041E+02 -0.94605605314E+02  0.12529477366E+03  0.78936254033E+02 0.  0.
          5    1    5    5  501    0  0.13159753256E+03  0.27572430143E+02 -0.86068674886E+02  0.15971241742E+03  0.47000000000E+01 0. -1.
        -13    1    6    6    0    0 -0.29970940445E+02  0.93563973633E+01 -0.28316200021E+02  0.42280097285E+02  0.00000000000E+00 0.  1.
         14    1    6    6    0    0  0.40205721838E+02 -0.29675767405E+02 -0.66289405293E+02  0.83014676376E+02  0.00000000000E+00 0. -1.
         -5    1    3    3    0  503 -0.38153901439E+02  0.31151064569E+02 -0.65565200310E+02  0.82140090762E+02  0.47000000000E+01 0.  1.
         13    1    4    4    0    0 -0.46118488245E+02  0.23320566708E+02 -0.31201834666E+03  0.31626920881E+03  0.00000000000E+00 0. -1.
        -14    1    4    4    0    0 -0.57559924270E+02 -0.61724691378E+02 -0.48096421492E+03  0.48831307421E+03  0.00000000000E+00 0.  1.
</event>
<event>
12    1  0.8331241E-002  0.5498975E+03  0.7818608E-02  0.1001542E+00
         21   -1    0    0  501  502  0.00000000000E+00  0.00000000000E+00  0.16034003901E+03  0.16034003901E+03  0.00000000000E+00 0. -1.
         21   -1    0    0  502  503 -0.00000000000E+00 -0.00000000000E+00 -0.19452429211E+04  0.19452429211E+04  0.00000000000E+00 0. -1.
         -6    2    1    2    0  503  0.43647846649E+03  0.28630783617E+03 -0.70672959363E+03  0.89546302634E+03  0.17292103482E+03 0.  0.
        -24    2    3    3    0    0  0.26780454610E+03  0.17075100565E+03 -0.54353904066E+03  0.63381914800E+03  0.73599203848E+02 0.  0.
          6    2    1    2  501    0 -0.43647846649E+03 -0.28630783617E+03 -0.10781732885E+04  0.12101199338E+04  0.17160123944E+03 0.  0.
         24    2    5    5    0    0 -0.12515450659E+03 -0.63885575725E+02 -0.32986362783E+03  0.36965357029E+03  0.89937376835E+02 0.  0.
          5    1    5    5  501    0 -0.31132395989E+03 -0.22242226044E+03 -0.74830966066E+03  0.84046636350E+03  0.47000000000E+01 0. -1.
        -11    1    6    6    0    0 -0.23694917271E+02 -0.48674422013E+01 -0.56414459432E+01  0.24838820632E+02  0.00000000000E+00 0.  1.
         12    1    6    6    0    0 -0.10145958932E+03 -0.59018133524E+02 -0.32422218189E+03  0.34481474966E+03  0.00000000000E+00 0. -1.
         -5    1    3    3    0  503  0.16867392039E+03  0.11555683052E+03 -0.16319055297E+03  0.26164387835E+03  0.47000000000E+01 0.  1.
         13    1    4    4    0    0  0.36560723348E+02  0.45339278503E+02 -0.14530331013E+03  0.15654197073E+03  0.00000000000E+00 0. -1.
        -14    1    4    4    0    0  0.23124382275E+03  0.12541172714E+03 -0.39823573053E+03  0.47727717726E+03  0.00000000000E+00 0.  1.
</event>
<event>
12    1  0.8331241E-002  0.3328374E+03  0.7818608E-02  0.1069928E+00
         21   -1    0    0  503  502  0.00000000000E+00  0.00000000000E+00  0.29215720911E+03  0.29215720911E+03  0.00000000000E+00 0. -1.
         21   -1    0    0  501  503 -0.00000000000E+00 -0.00000000000E+00 -0.60781681229E+03  0.60781681229E+03  0.00000000000E+00 0.  1.
          6    2    1    2  501    0  0.28447535906E+03  0.14527888576E+02 -0.43401111692E+03  0.54672082894E+03  0.17146639824E+03 0.  0.
         24    2    3    3    0    0  0.28513344734E+03  0.38718051629E+02 -0.35431596820E+03  0.46330018522E+03  0.79417164334E+02 0.  0.
         -6    2    1    2    0  502 -0.28447535906E+03 -0.14527888576E+02  0.11835151374E+03  0.35325319246E+03  0.17217272641E+03 0.  0.
        -24    2    5    5    0    0 -0.15045694568E+03  0.38447035555E+02  0.14339642635E+02  0.17546726208E+03  0.80421810868E+02 0.  0.
          5    1    3    3  501    0 -0.65808827657E+00 -0.24190163053E+02 -0.79695148726E+02  0.83420643723E+02  0.47000000000E+01 0. -1.
        -11    1    4    4    0    0  0.10860920035E+03  0.46987036341E+02 -0.17736615282E+03  0.21321935220E+03  0.00000000000E+00 0.  1.
         12    1    4    4    0    0  0.17652424699E+03 -0.82689847121E+01 -0.17694981537E+03  0.25008083302E+03  0.00000000000E+00 0. -1.
         -5    1    5    5    0  502 -0.13401841338E+03 -0.52974924131E+02  0.10401187110E+03  0.17778593038E+03  0.47000000000E+01 0.  1.
         13    1    6    6    0    0 -0.10503649281E+03  0.18014835593E+02  0.46402818869E+02  0.11623433538E+03  0.00000000000E+00 0. -1.
        -14    1    6    6    0    0 -0.45420452872E+02  0.20432199962E+02 -0.32063176235E+02  0.59232926694E+02  0.00000000000E+00 0.  1.
</event>
<event>
12    1  0.8331241E-002  0.1827122E+03  0.7818608E-02  0.1165549E+00
         21   -1    0    0  503  502  0.00000000000E+00  0.00000000000E+00  0.81739855277E+03  0.81739855277E+03  0.00000000000E+00 0. -1.
         21   -1    0    0  501  503 -0.00000000000E+00 -0.00000000000E+00 -0.41723073191E+02  0.41723073191E+02  0.00000000000E+00 0. -1.
          6    2    1    2  501    0  0.38437584716E+02 -0.42741775784E+02  0.31334131258E+03  0.36199325615E+03  0.17190704469E+03 0.  0.
         24    2    3    3    0    0  0.85577028199E+02 -0.48999697607E+01  0.16995464325E+03  0.20631423908E+03  0.79583585157E+02 0.  0.
         -6    2    1    2    0  502 -0.38437584716E+02  0.42741775784E+02  0.46233416701E+03  0.49712836982E+03  0.17343421455E+03 0.  0.
        -24    2    5    5    0    0 -0.79480169198E+02  0.18391826176E+01  0.22257665485E+03  0.25042354517E+03  0.82771400870E+02 0.  0.
          5    1    3    3  501    0 -0.47139443483E+02 -0.37841806024E+02  0.14338666932E+03  0.15567901706E+03  0.47000000000E+01 0. -1.
        -13    1    4    4    0    0  0.67504056760E+02  0.24861689132E+01  0.48148626242E+02  0.82953414179E+02  0.00000000000E+00 0.  1.
         14    1    4    4    0    0  0.18072971439E+02 -0.73861386740E+01  0.12180601701E+03  0.12336082490E+03  0.00000000000E+00 0. -1.
         -5    1    5    5    0  502  0.41042584482E+02  0.40902593167E+02  0.23975751215E+03  0.24670482464E+03  0.47000000000E+01 0.  1.
         11    1    6    6    0    0 -0.78607872523E+01 -0.13448463969E+02 -0.54921006184E+00  0.15587007123E+02  0.00000000000E+00 0. -1.
        -12    1    6    6    0    0 -0.71619381946E+02  0.15287646587E+02  0.22312586492E+03  0.23483653805E+03  0.00000000000E+00 0.  1.
</event>
<event>
12    1  0.8331241E-002  0.2279695E+03  0.7818608E-02  0.1128115E+00
         21   -1    0    0  501  502  0.00000000000E+00  0.00000000000E+00  0.89402064445E+03  0.89402064445E+03  0.00000000000E+00 0.  1.
         21   -1    0    0  502  503 -0.00000000000E+00 -0.00000000000E+00 -0.59072555081E+02  0.59072555081E+02  0.00000000000E+00 0.  1.
         -6    2    1    2    0  503  0.14583405926E+03  0.27764248424E+02  0.47955371573E+03  0.53098196775E+03  0.17300768039E+03 0.  0.
        -24    2    3    3    0    0 -0.79555161992E+01 -0.64227827142E+01  0.13843574957E+03  0.15521136825E+03  0.69437523692E+02 0.  0.
          6    2    1    2  501    0 -0.14583405926E+03 -0.27764248424E+02  0.35539437363E+03  0.42211123177E+03  0.17272609776E+03 0.  0.
         24    2    5    5    0    0 -0.97504298926E+02  0.27277868073E+01  0.33968604645E+03  0.36266065154E+03  0.81373268916E+02 0.  0.
          5    1    5    5  501    0 -0.48329760339E+02 -0.30492035232E+02  0.15708327184E+02  0.59450580232E+02  0.47000000000E+01 0. -1.
        -13    1    6    6    0    0 -0.10496424919E+03  0.31469100342E+01  0.23135109449E+03  0.25406834823E+03  0.00000000000E+00 0.  1.
         14    1    6    6    0    0  0.74599502648E+01 -0.41912322685E+00  0.10833495196E+03  0.10859230331E+03  0.00000000000E+00 0. -1.
         -5    1    3    3    0  503  0.15378957546E+03  0.34187031139E+02  0.34111796616E+03  0.37577059951E+03  0.47000000000E+01 0.  1.
         13    1    4    4    0    0  0.78251517023E+01  0.23829471890E+02  0.20361356693E+02  0.32305751440E+02  0.00000000000E+00 0. -1.
        -14    1    4    4    0    0 -0.15780667902E+02 -0.30252254604E+02  0.11807439288E+03  0.12290561681E+03  0.00000000000E+00 0.  1.
</event>
<event>
12    1  0.8331241E-002  0.2736138E+03  0.7818608E-02  0.1099313E+00
         21   -1    0    0  501  502  0.00000000000E+00  0.00000000000E+00  0.51934720979E+03  0.51934720979E+03  0.00000000000E+00 0.  1.
         21   -1    0    0  502  503 -0.00000000000E+00 -0.00000000000E+00 -0.16015137848E+03  0.16015137848E+03  0.00000000000E+00 0. -1.
         -6    2    1    2    0  503  0.20579172461E+03  0.52683798147E+02  0.28785560869E+03  0.39673735858E+03  0.17150470470E+03 0.  0.
        -24    2    3    3    0    0  0.83579232529E+02  0.85171706982E+02  0.11832289487E+03  0.18518408279E+03  0.77801859159E+02 0.  0.
          6    2    1    2  501    0 -0.20579172461E+03 -0.52683798147E+02  0.71340222618E+02  0.28276122969E+03  0.17244903347E+03 0.  0.
         24    2    5    5    0    0 -0.93461427385E+02 -0.73981687071E+02 -0.92854948388E+01  0.14278161666E+03  0.78051529207E+02 0.  0.
          5    1    5    5  501    0 -0.11233029722E+03  0.21297888923E+02  0.80625717457E+02  0.13997961302E+03  0.47000000000E+01 0. -1.
        -11    1    6    6    0    0 -0.69842919405E+02 -0.32567463373E+02  0.28276434045E+02  0.82086721118E+02  0.00000000000E+00 0.  1.
         12    1    6    6    0    0 -0.23618507980E+02 -0.41414223697E+02 -0.37561928884E+02  0.60694895544E+02  0.00000000000E+00 0. -1.
         -5    1    3    3    0  503  0.12221249208E+03 -0.32487908835E+02  0.16953271382E+03  0.21155327579E+03  0.47000000000E+01 0.  1.
         13    1    4    4    0    0  0.42742206185E+02  0.57398011499E+02  0.18661731835E+02  0.73957340059E+02  0.00000000000E+00 0. -1.
        -14    1    4    4    0    0  0.40837026344E+02  0.27773695483E+02  0.99661163034E+02  0.11122674273E+03  0.00000000000E+00 0.  1.
</event>
<event>
12    1  0.8331241E-002  0.2105203E+03  0.7818608E-02  0.1141920E+00
         21   -1    0    0  501  502  0.00000000000E+00  0.00000000000E+00  0.20303058306E+04  0.20303058306E+04  0.00000000000E+00 0. -1.
         21   -1    0    0  502  503 -0.00000000000E+00 -0.00000000000E+00 -0.28667041789E+02  0.28667041789E+02  0.00000000000E+00 0. -1.
         -6    2    1    2    0  503  0.86669888539E+01 -0.12186903434E+03  0.49054373923E+03  0.53380892592E+03  0.17143987596E+03 0.  0.
        -24    2    3    3    0    0  0.15721969855E+02 -0.11536613322E+03  0.21226460782E+03  0.25532476936E+03  0.81104556483E+02 0.  0.
          6    2    1    2  501    0 -0.86669888539E+01  0.12186903434E+03  0.15110950496E+04  0.15251639465E+04  0.16670223907E+03 0.  0.
         24    2    5    5    0    0  0.17624731661E+02  0.80889024178E+01  0.45390174257E+03  0.46153010375E+03  0.81284581872E+02 0.  0.
          5    1    5    5  501    0 -0.26291720515E+02  0.11378013192E+03  0.10571933070E+04  0.10636338427E+04  0.47000000000E+01 0. -1.
        -13    1    6    6    0    0  0.41573247980E+02  0.11362100799E+02  0.40168300010E+03  0.40398844644E+03  0.00000000000E+00 0.  1.
         14    1    6    6    0    0 -0.23948516319E+02 -0.32731983816E+01  0.52218742471E+02  0.57541657317E+02  0.00000000000E+00 0. -1.
         -5    1    3    3    0  503 -0.70549810007E+01 -0.65029011181E+01  0.27827913141E+03  0.27848415657E+03  0.47000000000E+01 0.  1.
         13    1    4    4    0    0  0.38958621492E+02 -0.85555080268E+02  0.18859941989E+03  0.21073012868E+03  0.00000000000E+00 0. -1.
        -14    1    4    4    0    0 -0.23236651637E+02 -0.29811052955E+02  0.23665187928E+02  0.44594640679E+02  0.00000000000E+00 0.  1.
</event>
<event>
12    1  0.8331241E-002  0.2304020E+03  0.7818608E-02  0.1126651E+00
         21   -1    0    0  501  502  0.00000000000E+00  0.00000000000E+00  0.16777841809E+03  0.16777841809E+03  0.00000000000E+00 0. -1.
         21   -1    0    0  502  503 -0.00000000000E+00 -0.00000000000E+00 -0.62500680846E+03  0.62500680846E+03  0.00000000000E+00 0.  1.
         -6    2    1    2    0  503 -0.12657109501E+03  0.83067347626E+02 -0.50776357579E+03  0.55690622136E+03  0.17146505230E+03 0.  0.
        -24    2    3    3    0    0 -0.78780258631E+02  0.11624060198E+03 -0.29472540455E+03  0.33601760407E+03  0.79539672225E+02 0.  0.
          6    2    1    2  501    0  0.12657109501E+03 -0.83067347626E+02  0.50535185424E+02  0.23587900519E+03  0.17367980248E+03 0.  0.
         24    2    5    5    0    0  0.67839924861E+02 -0.95178559164E+02 -0.20981450718E+02  0.14242981559E+03  0.78643611081E+02 0.  0.
          5    1    5    5  501    0  0.58731170149E+02  0.12111211538E+02  0.71516636142E+02  0.93449189601E+02  0.47000000000E+01 0. -1.
        -13    1    6    6    0    0  0.46921265072E+02 -0.26802814549E+02 -0.41393611289E+02  0.68069281172E+02  0.00000000000E+00 0.  1.
         14    1    6    6    0    0  0.20918659788E+02 -0.68375744616E+02  0.20412160571E+02  0.74360534414E+02  0.00000000000E+00 0. -1.
         -5    1    3    3    0  503 -0.47790836379E+02 -0.33173254350E+02 -0.21303817124E+03  0.22088861730E+03  0.47000000000E+01 0.  1.
         11    1    4    4    0    0 -0.54078347614E+02  0.13535146832E+02 -0.10080427438E+03  0.11519188172E+03  0.00000000000E+00 0. -1.
        -12    1    4    4    0    0 -0.24701911016E+02  0.10270545514E+03 -0.19392113017E+03  0.22082572235E+03  0.00000000000E+00 0.  1.
</event>
<event>
12    1  0.8331241E-002  0.2281434E+03  0.7818608E-02  0.1128291E+00
         21   -1    0    0  503  502  0.00000000000E+00  0.00000000000E+00  0.55239616640E+03  0.55239616640E+03  0.00000000000E+00 0. -1.
         21   -1    0    0  501  503 -0.00000000000E+00 -0.00000000000E+00 -0.39037633963E+03  0.39037633963E+03  0.00000000000E+00 0. -1.
          6    2    1    2  501    0  0.62538530918E+02  0.13373769941E+03 -0.33002273190E+03  0.40120368222E+03  0.17393260464E+03 0.  0.
         24    2    3    3    0    0  0.20178011830E+02  0.13398428093E+03 -0.32160575371E+03  0.35775935115E+03  0.78756287500E+02 0.  0.
         -6    2    1    2    0  502 -0.62538530918E+02 -0.13373769941E+03  0.49204255867E+03  0.54156882381E+03  0.17144699265E+03 0.  0.
        -24    2    5    5    0    0 -0.88694622845E+02 -0.94608925214E+02  0.46025380085E+03  0.48457919985E+03  0.78522957685E+02 0.  0.
          5    1    3    3  501    0  0.42360519089E+02 -0.24658151503E+00 -0.84169781963E+01  0.43444331067E+02  0.47000000000E+01 0. -1.
        -13    1    4    4    0    0  0.42826048794E+02  0.61232020279E+02 -0.11112411056E+03  0.13391041300E+03  0.00000000000E+00 0.  1.
         14    1    4    4    0    0 -0.22648036964E+02  0.72752260650E+02 -0.21048164315E+03  0.22384893815E+03  0.00000000000E+00 0. -1.
         -5    1    5    5    0  502  0.26156091927E+02 -0.39128774199E+02  0.31788757825E+02  0.56989623961E+02  0.47000000000E+01 0.  1.
         13    1    6    6    0    0 -0.44516112911E+02 -0.95495071843E+02  0.35809902474E+03  0.37327724894E+03  0.00000000000E+00 0. -1.
        -14    1    6    6    0    0 -0.44178509934E+02  0.88614662918E+00  0.10215477611E+03  0.11130195092E+03  0.00000000000E+00 0.  1.
</event>
<event>
12    1  0.8331241E-002  0.1728443E+03  0.7818608E-02  0.1175944E+00
         21   -1    0    0  503  502  0.00000000000E+00  0.00000000000E+00  0.50869897007E+03  0.50869897007E+03  0.00000000000E+00 0.  1.
         21   -1    0    0  501  503 -0.00000000000E+00 -0.00000000000E+00 -0.61030593092E+02  0.61030593092E+02  0.00000000000E+00 0.  1.
          6    2    1    2  501    0  0.59756702611E+01 -0.23122130498E+01  0.15173088974E+03  0.22701371926E+03  0.16873621682E+03 0.  0.
         24    2    3    3    0    0  0.19113199933E+02 -0.51669476648E+02  0.14579218268E+03  0.17537950195E+03  0.80421141156E+02 0.  0.
         -6    2    1    2    0  502 -0.59756702611E+01  0.23122130498E+01  0.29593748723E+03  0.34271584390E+03  0.17272549998E+03 0.  0.
        -24    2    5    5    0    0 -0.42053723250E+02  0.15038280990E+02  0.28951601840E+03  0.30364022523E+03  0.79894905532E+02 0.  0.
          5    1    3    3  501    0 -0.13137529672E+02  0.49357263598E+02  0.59387070595E+01  0.51634217311E+02  0.47000000000E+01 0. -1.
        -13    1    4    4    0    0 -0.30643218839E+02 -0.10326473315E+02  0.40841898597E+02  0.52093220221E+02  0.00000000000E+00 0.  1.
         14    1    4    4    0    0  0.49756418772E+02 -0.41343003333E+02  0.10495028409E+03  0.12328628173E+03  0.00000000000E+00 0. -1.
         -5    1    5    5    0  502  0.36078052989E+02 -0.12726067940E+02  0.64214688327E+01  0.39075618672E+02  0.47000000000E+01 0.  1.
         13    1    6    6    0    0 -0.56563321368E+02  0.28507515994E+02  0.15145120815E+03  0.16416320002E+03  0.00000000000E+00 0. -1.
        -14    1    6    6    0    0  0.14509598118E+02 -0.13469235004E+02  0.13806481025E+03  0.13947702520E+03  0.00000000000E+00 0.  1.
</event>
<event>
12    1  0.8331241E-002  0.2048716E+03  0.7818608E-02  0.1147026E+00
         21   -1    0    0  501  502  0.00000000000E+00  0.00000000000E+00  0.16274755180E+03  0.16274755180E+03  0.00000000000E+00 0.  1.
         21   -1    0    0  502  503 -0.00000000000E+00 -0.00000000000E+00 -0.37949936540E+03  0.37949936540E+03  0.00000000000E+00 0.  1.
         -6    2    1    2    0  503 -0.24672685089E+02  0.10058591936E+03 -0.26794025869E+03  0.33728971715E+03  0.17676567119E+03 0.  0.
        -24    2    3    3    0    0 -0.36638167915E+02 -0.34396367429E+01 -0.17452870694E+03  0.19688922890E+03  0.83372132405E+02 0.  0.
          6    2    1    2  501    0  0.24672685089E+02 -0.10058591936E+03  0.51188445089E+02  0.20495720004E+03  0.16929538793E+03 0.  0.
         24    2    5    5    0    0  0.22334117993E+02 -0.60374716805E+02  0.99208592009E+02  0.14210472024E+03  0.78787610257E+02 0.  0.
          5    1    5    5  501    0  0.23385670953E+01 -0.40211202557E+02 -0.48020146920E+02  0.62852479802E+02  0.47000000000E+01 0. -1.
        -13    1    6    6    0    0  0.62505945538E+01 -0.34898001980E+02 -0.29692467556E+01  0.35577477437E+02  0.00000000000E+00 0.  1.
         14    1    6    6    0    0  0.16083523440E+02 -0.25476714826E+02  0.10217783876E+03  0.10652724280E+03  0.00000000000E+00 0. -1.
         -5    1    3    3    0  503  0.11965482827E+02  0.10402555610E+03 -0.93411551743E+02  0.14040048825E+03  0.47000000000E+01 0.  1.
         11    1    4    4    0    0  0.21087295278E+02  0.43275716783E+01 -0.10004961159E+03  0.10233927242E+03  0.00000000000E+00 0. -1.
        -12    1    4    4    0    0 -0.57725463193E+02 -0.77672084212E+01 -0.74479095351E+02  0.94549956488E+02  0.00000000000E+00 0.  1.
</event>
<event>
12    1  0.8331241E-002  0.2417880E+03  0.7818608E-02  0.1118924E+00
         21   -1    0    0  503  502  0.00000000000E+00  0.00000000000E+00  0.20577668269E+04  0.20577668269E+04  0.00000000000E+00 0.  1.
         21   -1    0    0  501  503 -0.00000000000E+00 -0.00000000000E+00 -0.66388558706E+02  0.66388558706E+02  0.00000000000E+00 0. -1.
          6    2    1    2  501    0  0.13778475676E+03  0.94655894848E+02  0.18834544216E+03  0.30498281918E+03  0.17203527775E+03 0.  0.
         24    2    3    3    0    0  0.85938352375E+02  0.10211054921E+03  0.19765311542E+03  0.25157547605E+03  0.80071851743E+02 0.  0.
         -6    2    1    2    0  502 -0.13778475676E+03 -0.94655894848E+02  0.18030328261E+04  0.18191725665E+04  0.17469137658E+03 0.  0.
        -24    2    5    5    0    0 -0.17851422329E+02 -0.30337254545E+02  0.58706492963E+03  0.59560364427E+03  0.94124636329E+02 0.  0.
          5    1    3    3  501    0  0.51846404386E+02 -0.74546543654E+01 -0.93076732628E+01  0.53407343137E+02  0.47000000000E+01 0. -1.
        -13    1    4    4    0    0  0.55133470825E+02  0.72619861497E+01  0.63337357283E+02  0.84285567422E+02  0.00000000000E+00 0.  1.
         14    1    4    4    0    0  0.30804881550E+02  0.94848563064E+02  0.13431575814E+03  0.16728990862E+03  0.00000000000E+00 0. -1.
         -5    1    5    5    0  502 -0.11993333443E+03 -0.64318640303E+02  0.12159678964E+04  0.12235689222E+04  0.47000000000E+01 0.  1.
         11    1    6    6    0    0 -0.23363448359E+02 -0.48994430676E+02  0.17837440583E+03  0.18645035160E+03  0.00000000000E+00 0. -1.
        -12    1    6    6    0    0  0.55120260301E+01  0.18657176131E+02  0.40869052381E+03  0.40915329267E+03  0.00000000000E+00 0.  1.
</event>
<event>
12    1  0.8331241E-002  0.1712043E+03  0.7818608E-02  0.1176891E+00
         21   -1    0    0  501  502  0.00000000000E+00  0.00000000000E+00  0.11328183796E+04  0.11328183796E+04  0.00000000000E+00 0. -1.
         21   -1    0    0  502  503 -0.00000000000E+00 -0.00000000000E+00 -0.29155275202E+02  0.29155275202E+02  0.00000000000E+00 0. -1.
         -6    2    1    2    0  503  0.19946901182E+01  0.78521851326E+01  0.35354764066E+03  0.39281908214E+03  0.17101246000E+03 0.  0.
        -24    2    3    3    0    0  0.52670429926E+02  0.10331431600E+02  0.11273911898E+03  0.14667885507E+03  0.76965348754E+02 0.  0.
          6    2    1    2  501    0 -0.19946901182E+01 -0.78521851326E+01  0.75011546376E+03  0.76915457268E+03  0.16988205352E+03 0.  0.
         24    2    5    5    0    0  0.22613890714E+02  0.50845195716E+02  0.31575557396E+03  0.33013114662E+03  0.78666190320E+02 0.  0.
          5    1    5    5  501    0 -0.24608580832E+02 -0.58697380848E+02  0.43435988980E+03  0.43902342606E+03  0.47000000000E+01 0. -1.
        -13    1    6    6    0    0 -0.59488577794E+01  0.63555849591E+02  0.23560134675E+03  0.24409573843E+03  0.00000000000E+00 0.  1.
         14    1    6    6    0    0  0.28562748494E+02 -0.12710653875E+02  0.80154227210E+02  0.86035408194E+02  0.00000000000E+00 0. -1.
         -5    1    3    3    0  503 -0.50675739808E+02 -0.24792464679E+01  0.24080852168E+03  0.24614022707E+03  0.47000000000E+01 0.  1.
         13    1    4    4    0    0  0.13201800992E+02  0.20351358926E+02  0.10160885847E+03  0.10446446993E+03  0.00000000000E+00 0. -1.
        -14    1    4    4    0    0  0.39468628933E+02 -0.10019927326E+02  0.11130260516E+02  0.42214385139E+02  0.00000000000E+00 0.  1.
</event>
<event>
12    1  0.8331241E-002  0.1929385E+03  0.7818608E-02  0.1156574E+00
         21   -1    0    0  501  502  0.00000000000E+00  0.00000000000E+00  0.94114301898E+03  0.94114301898E+03  0.00000000000E+00 0.  1.
         21   -1    0    0  502  503 -0.00000000000E+00 -0.00000000000E+00 -0.53421079253E+02  0.53421079253E+02  0.00000000000E+00 0.  1.
         -6    2    1    2    0  503 -0.72906405769E+02 -0.29815906038E+02  0.18163159226E+03  0.26258810127E+03  0.17250548794E+03 0.  0.
        -24    2    3    3    0    0 -0.72957555575E+02  0.58886080756E+01  0.19581191496E+03  0.22388427076E+03  0.80152230382E+02 0.  0.
          6    2    1    2  501    0  0.72906405769E+02  0.29815906038E+02  0.70609034747E+03  0.73197599696E+03  0.17612764998E+03 0.  0.
         24    2    5    5    0    0  0.38502908173E+02 -0.52714036119E+02  0.32782327571E+03  0.34325648424E+03  0.78074773965E+02 0.  0.
          5    1    5    5  501    0  0.34403497596E+02  0.82529942158E+02  0.37826707175E+03  0.38871951272E+03  0.47000000000E+01 0. -1.
        -11    1    6    6    0    0  0.32647390022E+02  0.13465148366E+02  0.11089421793E+03  0.11638165606E+03  0.00000000000E+00 0.  1.
         12    1    6    6    0    0  0.58555181513E+01 -0.66179184486E+02  0.21692905778E+03  0.22687482818E+03  0.00000000000E+00 0. -1.
         -5    1    3    3    0  503  0.51149806118E-01 -0.35704514114E+02 -0.14180322696E+02  0.38703830510E+02  0.47000000000E+01 0.  1.
         13    1    4    4    0    0  0.16135519532E+02  0.25632301542E+00  0.14106731416E+02  0.21434098146E+02  0.00000000000E+00 0. -1.
        -14    1    4    4    0    0 -0.89093075107E+02  0.56322850601E+01  0.18170518354E+03  0.20245017262E+03  0.00000000000E+00 0.  1.
</event>
<event>
12    1  0.8331241E-002  0.2184440E+03  0.7818608E-02  0.1135052E+00
         21   -1    0    0  501  502  0.00000000000E+00  0.00000000000E+00  0.16883994710E+03  0.16883994710E+03  0.00000000000E+00 0. -1.
         21   -1    0    0  502  503 -0.00000000000E+00 -0.00000000000E+00 -0.28548565938E+03  0.28548565938E+03  0.00000000000E+00 0. -1.
         -6    2    1    2    0  503 -0.54251525621E+02 -0.12260689713E+03 -0.35457009909E+02  0.22128186272E+03  0.17243196908E+03 0.  0.
        -24    2    3    3    0    0 -0.44442571935E+02 -0.15611777531E+03 -0.43681519474E+02  0.18510276535E+03  0.77505203891E+02 0.  0.
          6    2    1    2  501    0  0.54251525621E+02  0.12260689713E+03 -0.81188702368E+02  0.23304374376E+03  0.17245898601E+03 0.  0.
         24    2    5    5    0    0  0.84554014162E+01  0.68427684677E+02  0.22266991431E+02  0.10751349787E+03  0.79432307488E+02 0.  0.
          5    1    5    5  501    0  0.45796124205E+02  0.54179212454E+02 -0.10345569380E+03  0.12553024589E+03  0.47000000000E+01 0. -1.
        -13    1    6    6    0    0  0.12592137098E+01 -0.18202528979E+02  0.43586801837E+01  0.18759418257E+02  0.00000000000E+00 0.  1.
         14    1    6    6    0    0  0.71961877064E+01  0.86630213656E+02  0.17908311247E+02  0.88754079610E+02  0.00000000000E+00 0. -1.
         -5    1    3    3    0  503 -0.98089536866E+01  0.33510878177E+02  0.82245095649E+01  0.36179097366E+02  0.47000000000E+01 0.  1.
         13    1    4    4    0    0 -0.10827447141E+01 -0.54284044115E+02  0.19461525353E+02  0.57677385089E+02  0.00000000000E+00 0. -1.
        -14    1    4    4    0    0 -0.43359827221E+02 -0.10183373119E+03 -0.63143044827E+02  0.12742538026E+03  0.00000000000E+00 0.  1.
</event>
<event>
12    1  0.8331241E-002  0.1977689E+03  0.7818608E-02  0.1152126E+00
         21   -1    0    0  503  502  0.00000000000E+00  0.00000000000E+00  0.92365265424E+02  0.92365265424E+02  0.00000000000E+00 0.  1.
         21   -1    0    0  501  503 -0.00000000000E+00 -0.00000000000E+00 -0.66819286338E+03  0.66819286338E+03  0.00000000000E+00 0.  1.
          6    2    1    2  501    0  0.23755430949E+02  0.86428660070E+02 -0.52137841747E+03  0.55762712228E+03  0.17629044082E+03 0.  0.
         24    2    3    3    0    0 -0.52560522937E+01  0.92664676403E+02 -0.51151823880E+03  0.52600644577E+03  0.80109325465E+02 0.  0.
         -6    2    1    2    0  502 -0.23755430949E+02 -0.86428660070E+02 -0.54449180494E+02  0.20293100653E+03  0.17372980853E+03 0.  0.
        -24    2    5    5    0    0 -0.14134097113E+02 -0.95489634472E+02 -0.97736161372E+02  0.15742799525E+03  0.76897161554E+02 0.  0.
          5    1    3    3  501    0  0.29011483242E+02 -0.62360163337E+01 -0.98601786621E+01  0.31620676509E+02  0.47000000000E+01 0. -1.
        -13    1    4    4    0    0 -0.10777262595E+02  0.48626293748E+02 -0.43265075942E+03  0.43550814626E+03  0.00000000000E+00 0.  1.
         14    1    4    4    0    0  0.55212103010E+01  0.44038382656E+02 -0.78867479382E+02  0.90498299510E+02  0.00000000000E+00 0. -1.
         -5    1    5    5    0  502 -0.96213338359E+01  0.90609744020E+01  0.43286980879E+02  0.45503011279E+02  0.47000000000E+01 0.  1.
         11    1    6    6    0    0  0.29698383803E+02 -0.19911720031E+02 -0.33380395889E+02  0.48915451800E+02  0.00000000000E+00 0. -1.
        -12    1    6    6    0    0 -0.43832480916E+02 -0.75577914441E+02 -0.64355765484E+02  0.10851254345E+03  0.00000000000E+00 0.  1.
</event>
<event>
12    1  0.8331241E-002  0.1791762E+03  0.7818608E-02  0.1169099E+00
         21   -1    0    0  503  502  0.00000000000E+00  0.00000000000E+00  0.51790706676E+02  0.51790706676E+02  0.00000000000E+00 0.  1.
         21   -1    0    0  501  503 -0.00000000000E+00 -0.00000000000E+00 -0.79613062535E+03  0.79613062535E+03  0.00000000000E+00 0.  1.
          6    2    1    2  501    0 -0.40368653813E+02 -0.31746141007E+02 -0.57719162023E+03  0.60436269017E+03  0.17165852474E+03 0.  0.
         24    2    3    3    0    0 -0.35732011328E+02 -0.16227240555E+01 -0.13715624266E+03  0.16324803136E+03  0.80985646713E+02 0.  0.
         -6    2    1    2    0  502  0.40368653813E+02  0.31746141007E+02 -0.16714829844E+03  0.24355864186E+03  0.16954295230E+03 0.  0.
        -24    2    5    5    0    0  0.40741439488E+02 -0.11012952692E+02 -0.17751386923E+03  0.19930918852E+03  0.80198683530E+02 0.  0.
          5    1    3    3  501    0 -0.46366424846E+01 -0.30123416951E+02 -0.44003537757E+03  0.44111465881E+03  0.47000000000E+01 0. -1.
        -11    1    4    4    0    0 -0.32587014943E+02 -0.61878941599E+01 -0.14767694324E+03  0.15135614669E+03  0.00000000000E+00 0.  1.
         12    1    4    4    0    0 -0.31449963852E+01  0.45651701043E+01  0.10520700574E+02  0.11891884666E+02  0.00000000000E+00 0. -1.
         -5    1    5    5    0  502 -0.37278567472E+00  0.42759093699E+02  0.10365570791E+02  0.44249453341E+02  0.47000000000E+01 0.  1.
         13    1    6    6    0    0  0.56668648214E+02  0.16336435574E+02 -0.11549677149E+03  0.12968314865E+03  0.00000000000E+00 0. -1.
        -14    1    6    6    0    0 -0.15927208726E+02 -0.27349388266E+02 -0.62017097739E+02  0.69626039872E+02  0.00000000000E+00 0.  1.
</event>
<event>
12    1  0.8331241E-002  0.1862370E+03  0.7818608E-02  0.1161988E+00
         21   -1    0    0  503  502  0.00000000000E+00  0.00000000000E+00  0.37698484894E+03  0.37698484894E+03  0.00000000000E+00 0.  1.
         21   -1    0    0  501  503 -0.00000000000E+00 -0.00000000000E+00 -0.94342721177E+02  0.94342721177E+02  0.00000000000E+00 0.  1.
          6    2    1    2  501    0  0.68827512589E+02 -0.21660040375E+02  0.10262296318E+03  0.21230804971E+03  0.17128003843E+03 0.  0.
         24    2    3    3    0    0  0.91695007644E+02  0.32995554408E+02  0.79230508320E+02  0.14843745150E+03  0.79117144305E+02 0.  0.
         -6    2    1    2    0  502 -0.68827512589E+02  0.21660040375E+02  0.18001916458E+03  0.25901952040E+03  0.17169108449E+03 0.  0.
        -24    2    5    5    0    0  0.90599791178E+01 -0.13385676629E+01  0.25598783936E+02  0.84482586501E+02  0.79988341013E+02 0.  0.
          5    1    3    3  501    0 -0.22867495055E+02 -0.54655594783E+02  0.23392454857E+02  0.63870598208E+02  0.47000000000E+01 0. -1.
        -11    1    4    4    0    0  0.89308930299E+02  0.14448772449E+02  0.29262320273E+02  0.95084885467E+02  0.00000000000E+00 0.  1.
         12    1    4    4    0    0  0.23860773452E+01  0.18546781959E+02  0.49968188047E+02  0.53352566038E+02  0.00000000000E+00 0. -1.
         -5    1    5    5    0  502 -0.77887491707E+02  0.22998608038E+02  0.15442038065E+03  0.17453693390E+03  0.47000000000E+01 0.  1.
         13    1    6    6    0    0 -0.30696795877E+02 -0.18925016685E+02  0.18166291831E+02  0.40379000638E+02  0.00000000000E+00 0. -1.
        -14    1    6    6    0    0  0.39756774994E+02  0.17586449022E+02  0.74324921053E+01  0.44103585864E+02  0.00000000000E+00 0.  1.
</event>
<event>
12    1  0.8331241E-002  0.2088905E+03  0.7818608E-02  0.1143034E+00
         21   -1    0    0  501  502  0.00000000000E+00  0.00000000000E+00  0.20567364423E+03  0.20567364423E+03  0.00000000000E+00 0. -1.
         21   -1    0    0  502  503 -0.00000000000E+00 -0.00000000000E+00 -0.21572165197E+03  0.21572165197E+03  0.00000000000E+00 0.  1.
         -6    2    1    2    0  503  0.11162167653E+03 -0.66781592245E+01 -0.41614386624E+02  0.21013316519E+03  0.17297454569E+03 0.  0.
        -24    2    3    3    0    0  0.33355980003E+00  0.74708868780E+01  0.19300632436E+02  0.82391355366E+02  0.79748953684E+02 0.  0.
          6    2    1    2  501    0 -0.11162167653E+03  0.66781592245E+01  0.31566378878E+02  0.21126213101E+03  0.17644051474E+03 0.  0.
         24    2    5    5    0    0 -0.21606487451E+02 -0.54855476423E+02  0.20422358349E+02  0.10155615225E+03  0.80128744819E+02 0.  0.
          5    1    5    5  501    0 -0.90015189080E+02  0.61533635647E+02  0.11144020529E+02  0.10970597876E+03  0.47000000000E+01 0. -1.
        -11    1    6    6    0    0  0.68335129692E+01  0.92381056399E+01 -0.18184237606E+02  0.21510601866E+02  0.00000000000E+00 0.  1.
         12    1    6    6    0    0 -0.28440000420E+02 -0.64093582062E+02  0.38606595955E+02  0.80045550387E+02  0.00000000000E+00 0. -1.
         -5    1    3    3    0  503  0.11128811673E+03 -0.14149046103E+02 -0.60915019060E+02  0.12774180983E+03  0.47000000000E+01 0.  1.
         13    1    4    4    0    0  0.31513761930E+02  0.19851488652E+02  0.29295484907E+02  0.47385907489E+02  0.00000000000E+00 0. -1.
        -14    1    4    4    0    0 -0.31180202130E+02 -0.12380601774E+02 -0.99948524701E+01  0.35005447877E+02  0.00000000000E+00 0.  1.
</event>
<event>
12    1  0.8331241E-002  0.1843989E+03  0.7818608E-02  0.1163735E+00
         21   -1    0    0  503  502  0.00000000000E+00  0.00000000000E+00  0.25891852286E+03  0.25891852286E+03  0.00000000000E+00 0.  1.
         21   -1    0    0  501  503 -0.00000000000E+00 -0.00000000000E+00 -0.16899209663E+03  0.16899209663E+03  0.00000000000E+00 0.  1.
          6    2    1    2  501    0 -0.10176116639E+02 -0.63287281321E+02 -0.56590152980E+02  0.19238979236E+03  0.17234428758E+03 0.  0.
         24    2    3    3    0    0  0.28683716335E+02 -0.48470473065E+01  0.20814979963E+02  0.87800155314E+02  0.80183255309E+02 0.  0.
         -6    2    1    2    0  502  0.10176116639E+02  0.63287281321E+02  0.14651657920E+03  0.23552082713E+03  0.17289915762E+03 0.  0.
        -24    2    5    5    0    0  0.42381696051E+02 -0.62654810242E+01  0.12763150230E+03  0.15644161226E+03  0.79678813092E+02 0.  0.
          5    1    3    3  501    0 -0.38859832974E+02 -0.58440234015E+02 -0.77405132943E+02  0.10458963704E+03  0.47000000000E+01 0. -1.
        -13    1    4    4    0    0  0.20601809898E+02 -0.40993866023E+02  0.12171302212E+01  0.45895675488E+02  0.00000000000E+00 0.  1.
         14    1    4    4    0    0  0.80819064369E+01  0.36146818716E+02  0.19597849742E+02  0.41904479826E+02  0.00000000000E+00 0. -1.
         -5    1    5    5    0  502 -0.32205579412E+02  0.69552762345E+02  0.18885076909E+02  0.79079214873E+02  0.47000000000E+01 0.  1.
         11    1    6    6    0    0  0.57354783214E+02  0.55480372313E+00  0.47016999851E+02  0.74165202351E+02  0.00000000000E+00 0. -1.
        -12    1    6    6    0    0 -0.14973087163E+02 -0.68202847473E+01  0.80614502445E+02  0.82276409910E+02  0.00000000000E+00 0.  1.
</event>
<event>
12    1  0.8331241E-002  0.2293803E+03  0.7818608E-02  0.1127283E+00
         21   -1    0    0  501  502  0.00000000000E+00  0.00000000000E+00  0.40298622836E+03  0.40298622836E+03  0.00000000000E+00 0. -1.
         21   -1    0    0  502  503 -0.00000000000E+00 -0.00000000000E+00 -0.30544662726E+03  0.30544662726E+03  0.00000000000E+00 0.  1.
         -6    2    1    2    0  503 -0.14958044433E+03  0.17322780586E+02 -0.21970971865E+03  0.31762824013E+03  0.17303453530E+03 0.  0.
        -24    2    3    3    0    0 -0.10160297761E+03  0.93155385694E+00 -0.47117838379E+02  0.13768225723E+03  0.80076715779E+02 0.  0.
          6    2    1    2  501    0  0.14958044433E+03 -0.17322780586E+02  0.31724931975E+03  0.39080461549E+03  0.17148390174E+03 0.  0.
         24    2    5    5    0    0  0.16868095034E+03 -0.32098409506E+02  0.31209579876E+03  0.36566903676E+03  0.82622551045E+02 0.  0.
          5    1    5    5  501    0 -0.19100506008E+02  0.14775628921E+02  0.51535209947E+01  0.25135578737E+02  0.47000000000E+01 0. -1.
        -13    1    6    6    0    0  0.12535540486E+03  0.12684286349E+02  0.18120682919E+03  0.22070519611E+03  0.00000000000E+00 0.  1.
         14    1    6    6    0    0  0.43325545480E+02 -0.44782695855E+02  0.13088896957E+03  0.14496384064E+03  0.00000000000E+00 0. -1.
         -5    1    3    3    0  503 -0.47977466714E+02  0.16391226729E+02 -0.17259188027E+03  0.17994598290E+03  0.47000000000E+01 0.  1.
         13    1    4    4    0    0 -0.49296063480E+02 -0.39434296969E+02 -0.19502303940E+02  0.66071972205E+02  0.00000000000E+00 0. -1.
        -14    1    4    4    0    0 -0.52306914134E+02  0.40365850826E+02 -0.27615534439E+02  0.71610285026E+02  0.00000000000E+00 0.  1.
</event>
<event>
12    1  0.8331241E-002  0.1888168E+03  0.7818608E-02  0.1159631E+00
         21   -1    0    0  501  502  0.00000000000E+00  0.00000000000E+00  0.20002379357E+03  0.20002379357E+03  0.00000000000E+00 0. -1.
         21   -1    0    0  502  503 -0.00000000000E+00 -0.00000000000E+00 -0.17972840068E+03  0.17972840068E+03  0.00000000000E+00 0. -1.
         -6    2    1    2    0  503 -0.31363377694E+02 -0.70439970467E+02  0.29679519686E+02  0.19113518848E+03  0.17235525953E+03 0.  0.
        -24    2    3    3    0    0 -0.23156807724E+02  0.26507535749E+02  0.30190404549E+02  0.93726165515E+02  0.81450883236E+02 0.  0.
          6    2    1    2  501    0  0.31363377694E+02  0.70439970467E+02 -0.93841267910E+01  0.18861700576E+03  0.17188037156E+03 0.  0.
         24    2    5    5    0    0  0.63141058941E+02  0.10185146156E+03 -0.70165693057E+01  0.14362591635E+03  0.78858468524E+02 0.  0.
          5    1    5    5  501    0 -0.31777681247E+02 -0.31411491089E+02 -0.23675574854E+01  0.44991089411E+02  0.47000000000E+01 0. -1.
        -11    1    6    6    0    0  0.63472087299E+02  0.35246790107E+02  0.13678795559E+02  0.73879303779E+02  0.00000000000E+00 0.  1.
         12    1    6    6    0    0 -0.33102835790E+00  0.66604671448E+02 -0.20695364865E+02  0.69746612573E+02  0.00000000000E+00 0. -1.
         -5    1    3    3    0  503 -0.82065699698E+01 -0.96947506215E+02 -0.51088486281E+00  0.97409022967E+02  0.47000000000E+01 0.  1.
         11    1    4    4    0    0  0.19886956882E+02 -0.92852088225E+01  0.30705103800E+02  0.37742675531E+02  0.00000000000E+00 0. -1.
        -12    1    4    4    0    0 -0.43043764606E+02  0.35792744571E+02 -0.51469925106E+00  0.55983489984E+02  0.00000000000E+00 0.  1.
</event>
<event>
12    1  0.8331241E-002  0.2073326E+03  0.7818608E-02  0.1143787E+00
         21   -1    0    0  501  502  0.00000000000E+00  0.00000000000E+00  0.59444193046E+03  0.59444193046E+03  0.00000000000E+00 0.  1.
         21   -1    0    0  502  503 -0.00000000000E+00 -0.00000000000E+00 -0.80857402693E+02  0.80857402693E+02  0.00000000000E+00 0.  1.
         -6    2    1    2    0  503 -0.44403843085E+02  0.10795651763E+03  0.14627978381E+03  0.25374118582E+03  0.17134906843E+03 0.  0.
        -24    2    3    3    0    0 -0.83258304571E+02  0.36811113421E+02  0.11293506892E+03  0.16596136053E+03  0.80633988158E+02 0.  0.
          6    2    1    2  501    0  0.44403843085E+02 -0.10795651763E+03  0.36730474395E+03  0.42155814732E+03  0.17079866998E+03 0.  0.
         24    2    5    5    0    0  0.69445957045E+02 -0.87780828843E+02  0.36406458949E+03  0.38889693959E+03  0.78546734122E+02 0.  0.
          5    1    5    5  501    0 -0.25042113959E+02 -0.20175688784E+02  0.32401544574E+01  0.32661207730E+02  0.47000000000E+01 0. -1.
        -13    1    6    6    0    0  0.33644814691E+02 -0.92375224508E+02  0.29529722910E+03  0.31123240380E+03  0.00000000000E+00 0.  1.
         14    1    6    6    0    0  0.35801142354E+02  0.45943956651E+01  0.68767360388E+02  0.77664535794E+02  0.00000000000E+00 0. -1.
         -5    1    3    3    0  503  0.38854461486E+02  0.71145404206E+02  0.33344714891E+02  0.87779825291E+02  0.47000000000E+01 0.  1.
         13    1    4    4    0    0 -0.67376072596E+02  0.17074772176E+02  0.12085703126E+03  0.13941845290E+03  0.00000000000E+00 0. -1.
        -14    1    4    4    0    0 -0.15882231975E+02  0.19736341245E+02 -0.79219623416E+01  0.26542907633E+02  0.00000000000E+00 0.  1.
</event>
<event>
12    1  0.8331241E-002  0.2168324E+03  0.7818608E-02  0.1136850E+00
         21   -1    0    0  503  502  0.00000000000E+00  0.00000000000E+00  0.34176098446E+03  0.34176098446E+03  0.00000000000E+00 0.  1.
         21   -1    0    0  501  503 -0.00000000000E+00 -0.00000000000E+00 -0.24024407825E+03  0.24024407825E+03  0.00000000000E+00 0.  1.
          6    2    1    2  501    0 -0.12580485980E+03 -0.40036957085E+02 -0.14145628325E+03  0.25634842930E+03  0.16815117142E+03 0.  0.
         24    2    3    3    0    0 -0.42753636755E+01  0.15120955497E+02 -0.62459637402E+02  0.10118924071E+03  0.78045718021E+02 0.  0.
         -6    2    1    2    0  502  0.12580485980E+03  0.40036957085E+02  0.24297318945E+03  0.32565663341E+03  0.17200712606E+03 0.  0.
        -24    2    5    5    0    0  0.10974367942E+03  0.68602882727E+02  0.24812396290E+03  0.29215149814E+03  0.83886627107E+02 0.  0.
          5    1    3    3  501    0 -0.12152949612E+03 -0.55157912582E+02 -0.78996645844E+02  0.15515918859E+03  0.47000000000E+01 0. -1.
        -11    1    4    4    0    0 -0.24500233621E+02  0.23784784641E+02  0.85850297357E+00  0.34157202099E+02  0.00000000000E+00 0.  1.
         12    1    4    4    0    0  0.20224869945E+02 -0.86638291442E+01 -0.63318140376E+02  0.67032038611E+02  0.00000000000E+00 0. -1.
         -5    1    5    5    0  502  0.16061180374E+02 -0.28565925642E+02 -0.51507734494E+01  0.33505135276E+02  0.47000000000E+01 0.  1.
         13    1    6    6    0    0  0.18713300255E+02 -0.73864921717E+01  0.36626959852E+01  0.20449039462E+02  0.00000000000E+00 0. -1.
        -14    1    6    6    0    0  0.91030379167E+02  0.75989374898E+02  0.24446126692E+03  0.27170245868E+03  0.00000000000E+00 0.  1.
</event>
<event>
12    1  0.8331241E-002  0.1746137E+03  0.7818608E-02  0.1173181E+00
         21   -1    0    0  501  502  0.00000000000E+00  0.00000000000E+00  0.84687894273E+02  0.84687894273E+02  0.00000000000E+00 0. -1.
         21   -1    0    0  502  503 -0.00000000000E+00 -0.00000000000E+00 -0.38758643725E+03  0.38758643725E+03  0.00000000000E+00 0. -1.
         -6    2    1    2    0  503 -0.23324249368E+02 -0.15729137999E+02 -0.21507956276E+03  0.27703637599E+03  0.17233255327E+03 0.  0.
        -24    2    3    3    0    0  0.10438632440E+02  0.58914680929E+01 -0.22146409679E+03  0.23616786647E+03  0.81149495005E+02 0.  0.
          6    2    1    2  501    0  0.23324249368E+02  0.15729137999E+02 -0.87818980217E+02  0.19523795553E+03  0.17208794148E+03 0.  0.
         24    2    5    5    0    0  0.52612965633E+01 -0.27871502897E+02 -0.13746118341E+02  0.10728248374E+03  0.10254790897E+03 0.  0.
          5    1    5    5  501    0  0.18062952805E+02  0.43600640897E+02 -0.74072861877E+02  0.87955471787E+02  0.47000000000E+01 0. -1.
        -11    1    6    6    0    0  0.36980579745E+02  0.14557779914E+02 -0.32236629600E+02  0.51173162128E+02  0.00000000000E+00 0.  1.
         12    1    6    6    0    0 -0.31719283181E+02 -0.42429282811E+02  0.18490511259E+02  0.56109321614E+02  0.00000000000E+00 0. -1.
         -5    1    3    3    0  503 -0.33762881808E+02 -0.21620606092E+02  0.63845340374E+01  0.40868509524E+02  0.47000000000E+01 0.  1.
         11    1    4    4    0    0  0.40655393974E+02  0.20642271294E+02 -0.96027143097E+02  0.10630228894E+03  0.00000000000E+00 0. -1.
        -12    1    4    4    0    0 -0.30216761534E+02 -0.14750803201E+02 -0.12543695370E+03  0.12986557752E+03  0.00000000000E+00 0.  1.
</event>
<event>
12    1  0.8331241E-002  0.1792681E+03  0.7818608E-02  0.1168571E+00
         21   -1    0    0  503  502  0.00000000000E+00  0.00000000000E+00  0.15893781202E+03  0.15893781202E+03  0.00000000000E+00 0.  1.
         21   -1    0    0  501  503 -0.00000000000E+00 -0.00000000000E+00 -0.32509690572E+03  0.32509690572E+03  0.00000000000E+00 0.  1.
          6    2    1    2  501    0  0.48036062087E+02  0.12181525257E+02 -0.23201091651E+03  0.29305427471E+03  0.17203455968E+03 0.  0.
         24    2    3    3    0    0  0.49558524155E+02  0.54802918510E+02 -0.22530650724E+03  0.24962686220E+03  0.78045761781E+02 0.  0.
         -6    2    1    2    0  502 -0.48036062087E+02 -0.12181525257E+02  0.65851822819E+02  0.19098044303E+03  0.17228236774E+03 0.  0.
        -24    2    5    5    0    0 -0.33816290382E+02 -0.34323090193E+02 -0.22323304433E+02  0.98842536226E+02  0.83366066424E+02 0.  0.
          5    1    3    3  501    0 -0.15224620676E+01 -0.42621393254E+02 -0.67044092712E+01  0.43427412510E+02  0.47000000000E+01 0. -1.
        -11    1    4    4    0    0  0.78196564920E+01  0.63701251031E+02 -0.14815001098E+03  0.16145408686E+03  0.00000000000E+00 0.  1.
         12    1    4    4    0    0  0.41738867663E+02 -0.88983325207E+01 -0.77156496262E+02  0.88172775339E+02  0.00000000000E+00 0. -1.
         -5    1    5    5    0  502 -0.14219771705E+02  0.22141564936E+02  0.88175127252E+02  0.92137906809E+02  0.47000000000E+01 0.  1.
         13    1    6    6    0    0 -0.32861846887E+02 -0.41893179224E+02  0.19218036950E+02  0.56606292853E+02  0.00000000000E+00 0. -1.
        -14    1    6    6    0    0 -0.95444349487E+00  0.75700890307E+01 -0.41541341383E+02  0.42236243373E+02  0.00000000000E+00 0.  1.
</event>
<event>
12    1  0.8331241E-002  0.2290079E+03  0.7818608E-02  0.1127540E+00
         21   -1    0    0  503  502  0.00000000000E+00  0.00000000000E+00  0.12682583241E+03  0.12682583241E+03  0.00000000000E+00 0.  1.
         21   -1    0    0  501  503 -0.00000000000E+00 -0.00000000000E+00 -0.73708340174E+03  0.73708340174E+03  0.00000000000E+00 0.  1.
          6    2    1    2  501    0 -0.27119716958E+02  0.14881756057E+03 -0.59264202730E+03  0.63534966946E+03  0.17193744382E+03 0.  0.
         24    2    3    3    0    0  0.30116356607E+02  0.12795458640E+03 -0.31853984261E+03  0.35451995334E+03  0.83291025141E+02 0.  0.
         -6    2    1    2    0  502  0.27119716958E+02 -0.14881756057E+03 -0.17615542034E+02  0.22855956469E+03  0.17043186881E+03 0.  0.
        -24    2    5    5    0    0 -0.65294042780E+01 -0.96349265380E+01 -0.17797192979E+02  0.85289916916E+02  0.82596397742E+02 0.  0.
          5    1    3    3  501    0 -0.57236073565E+02  0.20862974166E+02 -0.27410218469E+03  0.28082971612E+03  0.47000000000E+01 0. -1.
        -13    1    4    4    0    0 -0.10347699277E+02  0.53537052475E+02 -0.20929754307E+03  0.21628396243E+03  0.00000000000E+00 0.  1.
         14    1    4    4    0    0  0.40464055884E+02  0.74417533929E+02 -0.10924229953E+03  0.13823599091E+03  0.00000000000E+00 0. -1.
         -5    1    5    5    0  502  0.33649121236E+02 -0.13918263403E+03  0.18165094460E+00  0.14326964777E+03  0.47000000000E+01 0.  1.
         11    1    6    6    0    0 -0.30049299304E+02 -0.47887617737E+01 -0.41558450839E+02  0.51507256422E+02  0.00000000000E+00 0. -1.
        -12    1    6    6    0    0  0.23519895026E+02 -0.48461647644E+01  0.23761257860E+02  0.33782660494E+02  0.00000000000E+00 0.  1.
</event>
<event>
12    1  0.8331241E-002  0.2510877E+03  0.7818608E-02  0.1112911E+00
         21   -1    0    0  503  502  0.00000000000E+00  0.00000000000E+00  0.19380346520E+03  0.19380346520E+03  0.00000000000E+00 0. -1.
         21   -1    0    0  501  503 -0.00000000000E+00 -0.00000000000E+00 -0.39024992646E+03  0.39024992646E+03  0.00000000000E+00 0.  1.
          6    2    1    2  501    0 -0.16589573377E+03  0.70879891570E+02  0.23380026020E+02  0.25033385926E+03  0.17197401537E+03 0.  0.
         24    2    3    3    0    0 -0.85167901276E+02 -0.24837422579E+02  0.11434446424E+01  0.12307293549E+03  0.85294613053E+02 0.  0.
         -6    2    1    2    0  502  0.16589573377E+03 -0.70879891570E+02 -0.21982648728E+03  0.33371953241E+03  0.17464159953E+03 0.  0.
        -24    2    5    5    0    0  0.14288311390E+03 -0.10235120027E+03 -0.21818571499E+03  0.29441551126E+03  0.90466207012E+02 0.  0.
          5    1    3    3  501    0 -0.80727832495E+02  0.95717314149E+02  0.22236581378E+02  0.12726092377E+03  0.47000000000E+01 0. -1.
        -13    1    4    4    0    0 -0.73598130306E+02  0.27565326672E+01 -0.30326351148E+02  0.79649047897E+02  0.00000000000E+00 0.  1.
         14    1    4    4    0    0 -0.11569770970E+02 -0.27593955246E+02  0.31469795791E+02  0.43423887591E+02  0.00000000000E+00 0. -1.
         -5    1    5    5    0  502  0.23012619868E+02  0.31471308701E+02 -0.16407722935E+01  0.39304021146E+02  0.47000000000E+01 0.  1.
         13    1    6    6    0    0 -0.28500488066E+01  0.11745521063E+02 -0.18947774846E+02  0.22474390200E+02  0.00000000000E+00 0. -1.
        -14    1    6    6    0    0  0.14573316271E+03 -0.11409672133E+03 -0.19923794014E+03  0.27194112106E+03  0.00000000000E+00 0.  1.
</event>
<event>
12    1  0.8331241E-002  0.2039398E+03  0.7818608E-02  0.1146717E+00
         21   -1    0    0  501  502  0.00000000000E+00  0.00000000000E+00  0.32928950808E+03  0.32928950808E+03  0.00000000000E+00 0. -1.
         21   -1    0    0  502  503 -0.00000000000E+00 -0.00000000000E+00 -0.26639571326E+03  0.26639571326E+03  0.00000000000E+00 0.  1.
         -6    2    1    2    0  503  0.52600021706E+02 -0.94477731039E+02 -0.18509293289E+03  0.27541028673E+03  0.17291219820E+03 0.  0.
        -24    2    3    3    0    0  0.66315802545E+01 -0.80155186812E+02 -0.19717106868E+03  0.22554843512E+03  0.74342682417E+02 0.  0.
          6    2    1    2  501    0 -0.52600021706E+02  0.94477731039E+02  0.24798672771E+03  0.32027493461E+03  0.17142290591E+03 0.  0.
         24    2    5    5    0    0 -0.97272846754E+01  0.99150554673E+01  0.38708559707E+02  0.90474239910E+02  0.80587263886E+02 0.  0.
          5    1    5    5  501    0 -0.42872737031E+02  0.84562675572E+02  0.20927816800E+03  0.22980069470E+03  0.47000000000E+01 0. -1.
        -13    1    6    6    0    0  0.28565028428E+02  0.23947377981E+02  0.50892187818E+01  0.37620976982E+02  0.00000000000E+00 0.  1.
         14    1    6    6    0    0 -0.38292313103E+02 -0.14032322514E+02  0.33619340925E+02  0.52853262929E+02  0.00000000000E+00 0. -1.
         -5    1    3    3    0  503  0.45968441452E+02 -0.14322544227E+02  0.12078135792E+02  0.49861851619E+02  0.47000000000E+01 0.  1.
         11    1    4    4    0    0 -0.26992939965E+02 -0.19600502728E+02 -0.31079232658E+02  0.45592951404E+02  0.00000000000E+00 0. -1.
        -12    1    4    4    0    0  0.33624520219E+02 -0.60554684084E+02 -0.16609183602E+03  0.17995548371E+03  0.00000000000E+00 0.  1.
</event>
<event>
12    1  0.8331241E-002  0.2095798E+03  0.7818608E-02  0.1145577E+00
         21   -1    0    0  503  502  0.00000000000E+00  0.00000000000E+00  0.61081274692E+02  0.61081274692E+02  0.00000000000E+00 0. -1.
         21   -1    0    0  501  503 -0.00000000000E+00 -0.00000000000E+00 -0.75171706274E+03  0.75171706274E+03  0.00000000000E+00 0.  1.
          6    2    1    2  501    0 -0.17183714197E+01 -0.87692917323E+02 -0.50070149817E+03  0.54279431918E+03  0.19034358964E+03 0.  0.
         24    2    3    3    0    0 -0.51008782011E+02  0.15125554988E+01 -0.33519183191E+03  0.34836515320E+03  0.80003325680E+02 0.  0.
         -6    2    1    2    0  502  0.17183714197E+01  0.87692917323E+02 -0.18993428989E+03  0.27000401826E+03  0.17068724279E+03 0.  0.
        -24    2    5    5    0    0 -0.22334451430E+02  0.94819029603E+02 -0.20487780328E+03  0.24042838038E+03  0.79633006489E+02 0.  0.
          5    1    3    3  501    0  0.49290410591E+02 -0.89205472822E+02 -0.16550966626E+03  0.19442916598E+03  0.47000000000E+01 0. -1.
        -11    1    4    4    0    0  0.12976701232E+02 -0.11092992934E+02 -0.16861823518E+03  0.16948025992E+03  0.00000000000E+00 0.  1.
         12    1    4    4    0    0 -0.63985483243E+02  0.12605548433E+02 -0.16657359673E+03  0.17888489328E+03  0.00000000000E+00 0. -1.
         -5    1    5    5    0  502  0.24052822849E+02 -0.71261122794E+01  0.14943513392E+02  0.29575637875E+02  0.47000000000E+01 0.  1.
         13    1    6    6    0    0  0.21850275954E+02  0.14839423334E+01 -0.27195725132E+02  0.34917676176E+02  0.00000000000E+00 0. -1.
        -14    1    6    6    0    0 -0.44184727383E+02  0.93335087269E+02 -0.17768207815E+03  0.20551070421E+03  0.00000000000E+00 0.  1.
</event>
<event>
12    1  0.8331241E-002  0.1937362E+03  0.7818608E-02  0.1157700E+00
         21   -1    0    0  503  502  0.00000000000E+00  0.00000000000E+00  0.17220605486E+03  0.17220605486E+03  0.00000000000E+00 0. -1.
         21   -1    0    0  501  503 -0.00000000000E+00 -0.00000000000E+00 -0.26807259185E+03  0.26807259185E+03  0.00000000000E+00 0. -1.
          6    2    1    2  501    0  0.31740485469E+02  0.76446584772E+02 -0.15541584229E+03  0.24837031247E+03  0.17516332190E+03 0.  0.
         24    2    3    3    0    0  0.72637237908E+02  0.98730144303E+02 -0.10915212270E+03  0.18255600448E+03  0.79929338533E+02 0.  0.
         -6    2    1    2    0  502 -0.31740485469E+02 -0.76446584772E+02  0.59549305303E+02  0.19190833424E+03  0.16257659810E+03 0.  0.
        -24    2    5    5    0    0 -0.61932540352E+02 -0.94933169197E+02  0.22448004640E+02  0.14041163054E+03  0.79771968196E+02 0.  0.
          5    1    3    3  501    0 -0.40896752439E+02 -0.22283559531E+02 -0.46263719586E+02  0.65814307983E+02  0.47000000000E+01 0. -1.
        -13    1    4    4    0    0  0.46954159281E+02  0.38027084961E+02 -0.67809592697E+01  0.60800770333E+02  0.00000000000E+00 0.  1.
         14    1    4    4    0    0  0.25683078627E+02  0.60703059341E+02 -0.10237116343E+03  0.12175523415E+03  0.00000000000E+00 0. -1.
         -5    1    5    5    0  502  0.30192054883E+02  0.18486584424E+02  0.37101300663E+02  0.51496703706E+02  0.47000000000E+01 0.  1.
         11    1    6    6    0    0 -0.54604788560E+01 -0.14481818989E+02  0.37875136219E+02  0.40915349861E+02  0.00000000000E+00 0. -1.
        -12    1    6    6    0    0 -0.56472061496E+02 -0.80451350208E+02 -0.15427131579E+02  0.99496280677E+02  0.00000000000E+00 0.  1.
</event>
<event>
12    1  0.8331241E-002  0.1806218E+03  0.7818608E-02  0.1167383E+00
         21   -1    0    0  501  502  0.00000000000E+00  0.00000000000E+00  0.15535080216E+03  0.15535080216E+03  0.00000000000E+00 0.  1.
         21   -1    0    0  502  503 -0.00000000000E+00 -0.00000000000E+00 -0.14328514112E+04  0.14328514112E+04  0.00000000000E+00 0.  1.
         -6    2    1    2    0  503  0.14441054446E+02  0.51518061098E+02 -0.13724207603E+04  0.13841579637E+04  0.17173197317E+03 0.  0.
        -24    2    3    3    0    0  0.24219238984E+02  0.99393627754E+02 -0.92603450291E+03  0.93508061677E+03  0.79813498243E+02 0.  0.
          6    2    1    2  501    0 -0.14441054446E+02 -0.51518061098E+02  0.94920151251E+02  0.20404424962E+03  0.17251540806E+03 0.  0.
         24    2    5    5    0    0  0.36880112274E+02  0.17723685780E+02  0.21068044936E+02  0.90446251084E+02  0.77861351766E+02 0.  0.
          5    1    5    5  501    0 -0.51321166721E+02 -0.69241746878E+02  0.73852106316E+02  0.11359799854E+03  0.47000000000E+01 0. -1.
        -13    1    6    6    0    0  0.17215748045E+02  0.31127484145E+02  0.44553134534E+02  0.57011262456E+02  0.00000000000E+00 0.  1.
         14    1    6    6    0    0  0.19664364229E+02 -0.13403798365E+02 -0.23485089599E+02  0.33434988629E+02  0.00000000000E+00 0. -1.
         -5    1    3    3    0  503 -0.97781845377E+01 -0.47875566656E+02 -0.44638625740E+03  0.44907734698E+03  0.47000000000E+01 0.  1.
         13    1    4    4    0    0  0.22651387618E+02  0.17697221082E+02 -0.78166375633E+02  0.83284207834E+02  0.00000000000E+00 0. -1.
        -14    1    4    4    0    0  0.15678513664E+01  0.81696406672E+02 -0.84786812728E+03  0.85179640894E+03  0.00000000000E+00 0.  1.
</event>
<event>
12    1  0.8331241E-002  0.2321622E+03  0.7818608E-02  0.1125617E+00
         21   -1    0    0  501  502  0.00000000000E+00  0.00000000000E+00  0.60600189157E+03  0.60600189157E+03  0.00000000000E+00 0. -1.
         21   -1    0    0  502  503 -0.00000000000E+00 -0.00000000000E+00 -0.87876371437E+02  0.87876371437E+02  0.00000000000E+00 0. -1.
         -6    2    1    2    0  503  0.12393765773E+03 -0.90546770917E+02  0.25849175025E+03  0.34744393133E+03  0.17418392505E+03 0.  0.
        -24    2    3    3    0    0  0.54449097891E+02  0.82976917110E+01  0.18121657091E+03  0.20394330038E+03  0.75629810597E+02 0.  0.
          6    2    1    2  501    0 -0.12393765773E+03  0.90546770917E+02  0.25963376988E+03  0.34643433167E+03  0.17043412502E+03 0.  0.
         24    2    5    5    0    0 -0.10729132950E+03  0.83659697949E+02  0.10249135095E+03  0.18819286478E+03  0.80010642325E+02 0.  0.
          5    1    5    5  501    0 -0.16646328225E+02  0.68870729682E+01  0.15714241893E+03  0.15824146689E+03  0.47000000000E+01 0. -1.
        -13    1    6    6    0    0 -0.13968704899E+02 -0.14198544857E+02  0.26257212570E+01  0.20090241529E+02  0.00000000000E+00 0.  1.
         14    1    6    6    0    0 -0.93322624606E+02  0.97858242805E+02  0.99865629695E+02  0.16810262325E+03  0.00000000000E+00 0. -1.
         -5    1    3    3    0  503  0.69488559838E+02 -0.98844462628E+02  0.77275179339E+02  0.14350063095E+03  0.47000000000E+01 0.  1.
         13    1    4    4    0    0  0.68876517734E+01 -0.29186503988E+02  0.86224625433E+02  0.91290622701E+02  0.00000000000E+00 0. -1.
        -14    1    4    4    0    0  0.47561446118E+02  0.37484195699E+02  0.94991945474E+02  0.11265267768E+03  0.00000000000E+00 0.  1.
</event>
<event>
12    1  0.8331241E-002  0.1791455E+03  0.7818608E-02  0.1168842E+00
         21   -1    0    0  501  502  0.00000000000E+00  0.00000000000E+00  0.16298694828E+04  0.16298694828E+04  0.00000000000E+00 0.  1.
         21   -1    0    0  502  503 -0.00000000000E+00 -0.00000000000E+00 -0.88129466609E+02  0.88129466609E+02  0.00000000000E+00 0.  1.
         -6    2    1    2    0  503 -0.49819982059E+02 -0.10605366157E+01  0.12961656616E+02  0.17876005018E+03  0.17118409870E+03 0.  0.
        -24    2    3    3    0    0 -0.16701433919E+02  0.16020274563E+02  0.72843248016E+02  0.10807421475E+03  0.76408834705E+02 0.  0.
          6    2    1    2  501    0  0.49819982059E+02  0.10605366157E+01  0.15287783596E+04  0.15392388992E+04  0.17207545102E+03 0.  0.
         24    2    5    5    0    0  0.71490351962E+02  0.12579547079E+02  0.14852983602E+04  0.14890901916E+04  0.77519445266E+02 0.  0.
          5    1    5    5  501    0 -0.21670369903E+02 -0.11519010463E+02  0.43479999363E+02  0.50148707644E+02  0.47000000000E+01 0. -1.
        -13    1    6    6    0    0  0.40661168045E+02 -0.21627682202E+02  0.11133323051E+04  0.11142844829E+04  0.00000000000E+00 0.  1.
         14    1    6    6    0    0  0.30829183917E+02  0.34207229281E+02  0.37196605514E+03  0.37480570873E+03  0.00000000000E+00 0. -1.
         -5    1    3    3    0  503 -0.33118548140E+02 -0.17080811179E+02 -0.59881591400E+02  0.70685835427E+02  0.47000000000E+01 0.  1.
         13    1    4    4    0    0  0.16648264568E+01  0.16846460646E+02 -0.12327754200E+02  0.20941547389E+02  0.00000000000E+00 0. -1.
        -14    1    4    4    0    0 -0.18366260376E+02 -0.82618608289E+00  0.85171002216E+02  0.87132667365E+02  0.00000000000E+00 0.  1.
</event>
<event>
12    1  0.8331241E-002  0.2397102E+03  0.7818608E-02  0.1120119E+00
         21   -1    0    0  501  502  0.00000000000E+00  0.00000000000E+00  0.37354963379E+03  0.37354963379E+03  0.00000000000E+00 0.  1.
         21   -1    0    0  502  503 -0.00000000000E+00 -0.00000000000E+00 -0.18010484444E+03  0.18010484444E+03  0.00000000000E+00 0.  1.
         -6    2    1    2    0  503 -0.36995960401E+01 -0.16630813778E+03 -0.10177944631E+02  0.23913393151E+03  0.17149158271E+03 0.  0.
        -24    2    3    3    0    0 -0.38257923693E+02 -0.61105189754E+02  0.47096864965E+02  0.11437643836E+03  0.75275108919E+02 0.  0.
          6    2    1    2  501    0  0.36995960401E+01  0.16630813778E+03  0.20362273398E+03  0.31452054672E+03  0.17259453299E+03 0.  0.
         24    2    5    5    0    0  0.51930233402E+02  0.13417559971E+03  0.19635817403E+03  0.25592397503E+03  0.78998150550E+02 0.  0.
          5    1    5    5  501    0 -0.48230637362E+02  0.32132538064E+02  0.72645599547E+01  0.58596571692E+02  0.47000000000E+01 0. -1.
        -13    1    6    6    0    0  0.12439278810E+02  0.76590457853E+02  0.15855175169E+03  0.17652051398E+03  0.00000000000E+00 0.  1.
         14    1    6    6    0    0  0.39490954592E+02  0.57585141859E+02  0.37806422337E+02  0.79403461054E+02  0.00000000000E+00 0. -1.
         -5    1    3    3    0  503  0.34558327653E+02 -0.10520294802E+03 -0.57274809596E+02  0.12475749315E+03  0.47000000000E+01 0.  1.
         11    1    4    4    0    0  0.12758590212E+02  0.10243841212E+02  0.51735071176E+01  0.17160509400E+02  0.00000000000E+00 0. -1.
        -12    1    4    4    0    0 -0.51016513905E+02 -0.71349030965E+02  0.41923357847E+02  0.97215928962E+02  0.00000000000E+00 0.  1.
</event>
<event>
12    1  0.8331241E-002  0.1944432E+03  0.7818608E-02  0.1155008E+00
         21   -1    0    0  501  502  0.00000000000E+00  0.00000000000E+00  0.41545630860E+02  0.41545630860E+02  0.00000000000E+00 0.  1.
         21   -1    0    0  502  503 -0.00000000000E+00 -0.00000000000E+00 -0.97688183830E+03  0.97688183830E+03  0.00000000000E+00 0.  1.
         -6    2    1    2    0  503  0.74124534476E+02  0.47216867645E+02 -0.61342139792E+03  0.64350133793E+03  0.17344820924E+03 0.  0.
        -24    2    3    3    0    0  0.18729516679E+02  0.44262864814E+02 -0.55542357789E+03  0.56310748706E+03  0.79276068966E+02 0.  0.
          6    2    1    2  501    0 -0.74124534476E+02 -0.47216867645E+02 -0.32191480952E+03  0.37492613123E+03  0.17092858184E+03 0.  0.
         24    2    5    5    0    0 -0.87259257036E+02 -0.80054445545E+02 -0.30469371857E+03  0.33530942475E+03  0.74640846728E+02 0.  0.
          5    1    5    5  501    0  0.13134722560E+02  0.32837577900E+02 -0.17221090952E+02  0.39616706484E+02  0.47000000000E+01 0. -1.
        -11    1    6    6    0    0  0.56656922114E+01 -0.26106082195E+02 -0.29061553892E+02  0.39474061236E+02  0.00000000000E+00 0.  1.
         12    1    6    6    0    0 -0.92924949247E+02 -0.53948363349E+02 -0.27563216468E+03  0.29583536351E+03  0.00000000000E+00 0. -1.
         -5    1    3    3    0  503  0.55395017797E+02  0.29540028311E+01 -0.57997820037E+02  0.80393850875E+02  0.47000000000E+01 0.  1.
         11    1    4    4    0    0  0.34794348806E+02 -0.83884873592E+01 -0.27620898221E+03  0.27851824946E+03  0.00000000000E+00 0. -1.
        -12    1    4    4    0    0 -0.16064832127E+02  0.52651352173E+02 -0.27921459568E+03  0.28458923760E+03  0.00000000000E+00 0.  1.
</event>
<event>
12    1  0.8331241E-002  0.2546357E+03  0.7818608E-02  0.1110437E+00
         21   -1    0    0  501  502  0.00000000000E+00  0.00000000000E+00  0.11566648118E+03  0.11566648118E+03  0.00000000000E+00 0. -1.
         21   -1    0    0  502  503 -0.00000000000E+00 -0.00000000000E+00 -0.56180423344E+03  0.56180423344E+03  0.00000000000E+00 0.  1.
         -6    2    1    2    0  503  0.17563842658E+03  0.66739891685E+02 -0.24119308842E+03  0.35060425983E+03  0.17159886676E+03 0.  0.
        -24    2    3    3    0    0  0.75037379171E+02  0.96642593983E+02 -0.16867380987E+03  0.22294895008E+03  0.79277871827E+02 0.  0.
          6    2    1    2  501    0 -0.17563842658E+03 -0.66739891685E+02 -0.20494466384E+03  0.32686645479E+03  0.17186126381E+03 0.  0.
         24    2    5    5    0    0 -0.97604824995E+02 -0.89922227709E+02 -0.18866786459E+03  0.24371786566E+03  0.78677353905E+02 0.  0.
          5    1    5    5  501    0 -0.78033601588E+02  0.23182336023E+02 -0.16276799252E+02  0.83148589129E+02  0.47000000000E+01 0. -1.
        -11    1    6    6    0    0 -0.41761844308E+02 -0.12392019439E+01 -0.92427068256E+02  0.10143150501E+03  0.00000000000E+00 0.  1.
         12    1    6    6    0    0 -0.55842980687E+02 -0.88683025765E+02 -0.96240796332E+02  0.14228636066E+03  0.00000000000E+00 0. -1.
         -5    1    3    3    0  503  0.10060104741E+03 -0.29902702298E+02 -0.72519278549E+02  0.12765530975E+03  0.47000000000E+01 0.  1.
         11    1    4    4    0    0  0.54486979424E+01 -0.30910673766E+01  0.69329318614E+01  0.93439044830E+01  0.00000000000E+00 0. -1.
        -12    1    4    4    0    0  0.69588681229E+02  0.99733661360E+02 -0.17560674173E+03  0.21360504560E+03  0.00000000000E+00 0.  1.
</event>
<event>
12    1  0.8331241E-002  0.1887613E+03  0.7818608E-02  0.1159658E+00
         21   -1    0    0  501  502  0.00000000000E+00  0.00000000000E+00  0.58623474231E+03  0.58623474231E+03  0.00000000000E+00 0. -1.
         21   -1    0    0  502  503 -0.00000000000E+00 -0.00000000000E+00 -0.16271983212E+03  0.16271983212E+03  0.00000000000E+00 0. -1.
         -6    2    1    2    0  503  0.31059248912E+02 -0.70567829857E+02 -0.84727484301E+02  0.20690473910E+03  0.17229721098E+03 0.  0.
        -24    2    3    3    0    0  0.28451366384E+02  0.29683215244E+02 -0.37933433403E+02  0.96139914834E+02  0.78188006358E+02 0.  0.
          6    2    1    2  501    0 -0.31059248912E+02  0.70567829857E+02  0.50824239450E+03  0.54204983533E+03  0.17193951514E+03 0.  0.
         24    2    5    5    0    0 -0.47694500915E+02  0.47733438083E+02  0.14931598428E+03  0.18198262076E+03  0.79178056110E+02 0.  0.
          5    1    5    5  501    0  0.16635252003E+02  0.22834391774E+02  0.35892641022E+03  0.36006721457E+03  0.47000000000E+01 0. -1.
        -13    1    6    6    0    0 -0.39504069444E+02  0.28365207391E+02  0.22766688326E+02  0.53698031531E+02  0.00000000000E+00 0.  1.
         14    1    6    6    0    0 -0.81904314711E+01  0.19368230692E+02  0.12654929596E+03  0.12828458923E+03  0.00000000000E+00 0. -1.
         -5    1    3    3    0  503  0.26078825285E+01 -0.10025104510E+03 -0.46794050898E+02  0.11076482427E+03  0.47000000000E+01 0.  1.
         13    1    4    4    0    0 -0.19866897894E+02  0.22537645975E+02 -0.36500676160E+02  0.47275135940E+02  0.00000000000E+00 0. -1.
        -14    1    4    4    0    0  0.48318264278E+02  0.71455692694E+01 -0.14327572427E+01  0.48864778894E+02  0.00000000000E+00 0.  1.
</event>
<event>
12    1  0.8331241E-002  0.2001303E+03  0.7818608E-02  0.1150058E+00
         21   -1    0    0  503  502  0.00000000000E+00  0.00000000000E+00  0.11508506136E+04  0.11508506136E+04  0.00000000000E+00 0. -1.
         21   -1    0    0  501  503 -0.00000000000E+00 -0.00000000000E+00 -0.68957819161E+02  0.68957819161E+02  0.00000000000E+00 0. -1.
          6    2    1    2  501    0  0.51202853027E+02  0.83393181749E+02  0.11088187110E+03  0.22879452105E+03  0.17457373400E+03 0.  0.
         24    2    3    3    0    0 -0.19259667734E+02  0.88967245688E+02  0.10071125816E+03  0.15722938716E+03  0.79323496269E+02 0.  0.
         -6    2    1    2    0  502 -0.51202853027E+02 -0.83393181749E+02  0.97101092331E+03  0.99101391168E+03  0.17225041377E+03 0.  0.
        -24    2    5    5    0    0 -0.94331481659E+02 -0.89873514070E+02  0.71267815956E+03  0.72898341701E+03  0.80814517207E+02 0.  0.
          5    1    3    3  501    0  0.70462520761E+02 -0.55740639391E+01  0.10170612941E+02  0.71565133888E+02  0.47000000000E+01 0. -1.
        -11    1    4    4    0    0 -0.37100748684E+02  0.11124432068E+02  0.47384105056E+02  0.61200261059E+02  0.00000000000E+00 0.  1.
         12    1    4    4    0    0  0.17841080950E+02  0.77842813620E+02  0.53327153104E+02  0.96029126102E+02  0.00000000000E+00 0. -1.
         -5    1    5    5    0  502  0.43128628632E+02  0.64803323212E+01  0.25833276374E+03  0.26203049467E+03  0.47000000000E+01 0.  1.
         11    1    6    6    0    0 -0.11607484255E+02  0.15485098564E+02  0.86955696275E+02  0.89083191922E+02  0.00000000000E+00 0. -1.
        -12    1    6    6    0    0 -0.82723997404E+02 -0.10535861263E+03  0.62572246329E+03  0.63990022509E+03  0.00000000000E+00 0.  1.
</event>
<event>
12    1  0.8331241E-002  0.2122435E+03  0.7818608E-02  0.1140046E+00
         21   -1    0    0  501  502  0.00000000000E+00  0.00000000000E+00  0.61119171507E+03  0.61119171507E+03  0.00000000000E+00 0.  1.
         21   -1    0    0  502  503 -0.00000000000E+00 -0.00000000000E+00 -0.11628731458E+03  0.11628731458E+03  0.00000000000E+00 0. -1.
         -6    2    1    2    0  503  0.11577568424E+03 -0.40818954205E+02  0.26685520482E+02  0.21391449844E+03  0.17313896026E+03 0.  0.
        -24    2    3    3    0    0  0.31972903236E+02  0.37598643001E+02  0.19766926247E+01  0.96420490814E+02  0.82807482984E+02 0.  0.
          6    2    1    2  501    0 -0.11577568424E+03  0.40818954205E+02  0.46821888001E+03  0.51356453121E+03  0.17160830993E+03 0.  0.
         24    2    5    5    0    0 -0.64168842865E+02 -0.27786211152E+02  0.37716813108E+03  0.38833568601E+03  0.60490428998E+02 0.  0.
          5    1    5    5  501    0 -0.51606841371E+02  0.68605165357E+02  0.91050748928E+02  0.12522884520E+03  0.47000000000E+01 0. -1.
        -13    1    6    6    0    0 -0.11328372523E+02 -0.10369372576E+02  0.23746942136E+03  0.23796550589E+03  0.00000000000E+00 0.  1.
         14    1    6    6    0    0 -0.52840470342E+02 -0.17416838575E+02  0.13969870972E+03  0.15037018012E+03  0.00000000000E+00 0. -1.
         -5    1    3    3    0  503  0.83802780999E+02 -0.78417597206E+02  0.24708827857E+02  0.11749400763E+03  0.47000000000E+01 0.  1.
         13    1    4    4    0    0  0.16626791907E+02  0.38768671822E+01 -0.38155700294E+02  0.41801169519E+02  0.00000000000E+00 0. -1.
        -14    1    4    4    0    0  0.15346111329E+02  0.33721775819E+02  0.40132392919E+02  0.54619321294E+02  0.00000000000E+00 0.  1.
</event>
<event>
12    1  0.8331241E-002  0.2026008E+03  0.7818608E-02  0.1147703E+00
         21   -1    0    0  503  502  0.00000000000E+00  0.00000000000E+00  0.59662002194E+02  0.59662002194E+02  0.00000000000E+00 0. -1.
         21   -1    0    0  501  503 -0.00000000000E+00 -0.00000000000E+00 -0.68965577203E+03  0.68965577203E+03  0.00000000000E+00 0.  1.
          6    2    1    2  501    0  0.69965039225E+02 -0.80965538225E+02 -0.28717281767E+03  0.35144743564E+03  0.17203647205E+03 0.  0.
         24    2    3    3    0    0  0.60282886696E+01  0.18496290167E+02 -0.14657079938E+03  0.16767697848E+03  0.79082974568E+02 0.  0.
         -6    2    1    2    0  502 -0.69965039225E+02  0.80965538225E+02 -0.34282095217E+03  0.39787033858E+03  0.17124273995E+03 0.  0.
        -24    2    5    5    0    0 -0.10479406099E+03  0.41067003597E+02 -0.18533937048E+03  0.23165513954E+03  0.81517650978E+02 0.  0.
          5    1    3    3  501    0  0.63936750555E+02 -0.99461828392E+02 -0.14060201829E+03  0.18377045716E+03  0.47000000000E+01 0. -1.
        -13    1    4    4    0    0  0.33412596187E+02  0.35855648503E+02 -0.89297648615E+02  0.10186313937E+03  0.00000000000E+00 0.  1.
         14    1    4    4    0    0 -0.27384307518E+02 -0.17359358336E+02 -0.57273150765E+02  0.65813839112E+02  0.00000000000E+00 0. -1.
         -5    1    5    5    0  502  0.34829021769E+02  0.39898534628E+02 -0.15748158169E+03  0.16621519905E+03  0.47000000000E+01 0.  1.
         11    1    6    6    0    0 -0.29746719602E+02  0.17175482000E+02 -0.47977650695E+01  0.34682604555E+02  0.00000000000E+00 0. -1.
        -12    1    6    6    0    0 -0.75047341392E+02  0.23891521597E+02 -0.18054160541E+03  0.19697253498E+03  0.00000000000E+00 0.  1.
</event>
<event>
12    1  0.8331241E-002  0.2006616E+03  0.7818608E-02  0.1150851E+00
         21   -1    0    0  503  502  0.00000000000E+00  0.00000000000E+00  0.14119668968E+04  0.14119668968E+04  0.00000000000E+00 0. -1.
         21   -1    0    0  501  503 -0.00000000000E+00 -0.00000000000E+00 -0.40293076114E+02  0.40293076114E+02  0.00000000000E+00 0. -1.
          6    2    1    2  501    0 -0.19307298919E+02  0.92107713748E+02  0.28472161087E+03  0.34832665095E+03  0.17722431363E+03 0.  0.
         24    2    3    3    0    0  0.40485924495E+02  0.65175762577E+02  0.94606244445E+02  0.14716377636E+03  0.82582355718E+02 0.  0.
         -6    2    1    2    0  502  0.19307298919E+02 -0.92107713748E+02  0.10869522098E+04  0.11039333220E+04  0.16836588193E+03 0.  0.
        -24    2    5    5    0    0  0.55202131875E+02 -0.10477064851E+03  0.63719701036E+03  0.65254588484E+03  0.75973269434E+02 0.  0.
          5    1    3    3  501    0 -0.59793223414E+02  0.26931951172E+02  0.19011536642E+03  0.20116287458E+03  0.47000000000E+01 0. -1.
        -11    1    4    4    0    0  0.46821349898E+01 -0.17155347624E+02  0.35412573152E+02  0.39626741948E+02  0.00000000000E+00 0.  1.
         12    1    4    4    0    0  0.35803789505E+02  0.82331110200E+02  0.59193671293E+02  0.10753703442E+03  0.00000000000E+00 0. -1.
         -5    1    5    5    0  502 -0.35894832956E+02  0.12662934757E+02  0.44975519946E+03  0.45138743713E+03  0.47000000000E+01 0.  1.
         13    1    6    6    0    0  0.45104573502E+02 -0.22159966851E+02  0.34806362571E+03  0.35167282270E+03  0.00000000000E+00 0. -1.
        -14    1    6    6    0    0  0.10097558373E+02 -0.82610681655E+02  0.28913338464E+03  0.30087306214E+03  0.00000000000E+00 0.  1.
</event>
<event>
12    1  0.8331241E-002  0.1915449E+03  0.7818608E-02  0.1157180E+00
         21   -1    0    0  501  502  0.00000000000E+00  0.00000000000E+00  0.35915291432E+03  0.35915291432E+03  0.00000000000E+00 0. -1.
         21   -1    0    0  502  503 -0.00000000000E+00 -0.00000000000E+00 -0.10294846508E+03  0.10294846508E+03  0.00000000000E+00 0. -1.
         -6    2    1    2    0  503 -0.61987305418E+02  0.54698731635E+02  0.10501452988E+03  0.21844336396E+03  0.17278621037E+03 0.  0.
        -24    2    3    3    0    0 -0.26357489774E+02 -0.20972684130E+02  0.25579453252E+01  0.86098780968E+02  0.79195241353E+02 0.  0.
          6    2    1    2  501    0  0.61987305418E+02 -0.54698731635E+02  0.15118991935E+03  0.24365801544E+03  0.17226856794E+03 0.  0.
         24    2    5    5    0    0  0.48016756763E+02 -0.65029093303E+02  0.28076981448E+02  0.11923624049E+03  0.83033561009E+02 0.  0.
          5    1    5    5  501    0  0.13970548656E+02  0.10330361668E+02  0.12311293791E+03  0.12442177495E+03  0.47000000000E+01 0. -1.
        -13    1    6    6    0    0  0.57109512569E+02 -0.25469721369E+02  0.43109108849E+02  0.75951289641E+02  0.00000000000E+00 0.  1.
         14    1    6    6    0    0 -0.90927558060E+01 -0.39559371934E+02 -0.15032127401E+02  0.43284950851E+02  0.00000000000E+00 0. -1.
         -5    1    3    3    0  503 -0.35629815644E+02  0.75671415766E+02  0.10245658456E+03  0.13234458299E+03  0.47000000000E+01 0.  1.
         13    1    4    4    0    0  0.59894440474E+01 -0.38306946972E+02  0.21988604768E+02  0.44573471549E+02  0.00000000000E+00 0. -1.
        -14    1    4    4    0    0 -0.32346933821E+02  0.17334262842E+02 -0.19430659442E+02  0.41525309418E+02  0.00000000000E+00 0.  1.
</event>
<event>
12    1  0.8331241E-002  0.1762958E+03  0.7818608E-02  0.1171809E+00
         21   -1    0    0  501  502  0.00000000000E+00  0.00000000000E+00  0.53658702058E+03  0.53658702058E+03  0.00000000000E+00 0. -1.
         21   -1    0    0  502  503 -0.00000000000E+00 -0.00000000000E+00 -0.60803187878E+02  0.60803187878E+02  0.00000000000E+00 0. -1.
         -6    2    1    2    0  503  0.37131920093E+02  0.27840136391E+01  0.16662519564E+03  0.24149800211E+03  0.17079461051E+03 0.  0.
        -24    2    3    3    0    0  0.81625794417E+02 -0.32604847732E+02  0.11020619547E+03  0.16126540311E+03  0.78328017408E+02 0.  0.
          6    2    1    2  501    0 -0.37131920093E+02 -0.27840136391E+01  0.30915863706E+03  0.35589220635E+03  0.17231851163E+03 0.  0.
         24    2    5    5    0    0 -0.47662377303E+02  0.39735045538E+02  0.10207078200E+03  0.14417014648E+03  0.80721809589E+02 0.  0.
          5    1    5    5  501    0  0.10530457210E+02 -0.42519059177E+02  0.20708785506E+03  0.21172205987E+03  0.47000000000E+01 0. -1.
        -13    1    6    6    0    0 -0.69310497956E+02  0.29818483829E+02  0.90095158910E+02  0.11751691267E+03  0.00000000000E+00 0.  1.
         14    1    6    6    0    0  0.21648120653E+02  0.99165617092E+01  0.11975623089E+02  0.26653233806E+02  0.00000000000E+00 0. -1.
         -5    1    3    3    0  503 -0.44493874325E+02  0.35388861371E+02  0.56419000175E+02  0.80232599000E+02  0.47000000000E+01 0.  1.
         13    1    4    4    0    0  0.11848208431E+02  0.22224033113E+02  0.91988517418E+01  0.26812433016E+02  0.00000000000E+00 0. -1.
        -14    1    4    4    0    0  0.69777585986E+02 -0.54828880845E+02  0.10100734372E+03  0.13445297009E+03  0.00000000000E+00 0.  1.
</event>
<event>
12    1  0.8331241E-002  0.1833016E+03  0.7818608E-02  0.1164912E+00
         21   -1    0    0  503  502  0.00000000000E+00  0.00000000000E+00  0.28770476656E+03  0.28770476656E+03  0.00000000000E+00 0.  1.
         21   -1    0    0  501  503 -0.00000000000E+00 -0.00000000000E+00 -0.11617060091E+03  0.11617060091E+03  0.00000000000E+00 0.  1.
          6    2    1    2  501    0  0.25585801476E+02  0.54205975484E+02  0.92007218413E+02  0.20509703542E+03  0.17322397260E+03 0.  0.
         24    2    3    3    0    0 -0.49838146623E+02  0.39244961533E+02  0.75896388019E+02  0.12639346027E+03  0.78683144454E+02 0.  0.
         -6    2    1    2    0  502 -0.25585801476E+02 -0.54205975484E+02  0.79526947234E+02  0.19877833205E+03  0.17203304607E+03 0.  0.
        -24    2    5    5    0    0 -0.10951527238E+02  0.23455375202E+02  0.37561892407E+01  0.89193911895E+02  0.85272236905E+02 0.  0.
          5    1    3    3  501    0  0.75423948099E+02  0.14961013950E+02  0.16110830394E+02  0.78703575149E+02  0.47000000000E+01 0. -1.
        -13    1    4    4    0    0  0.16831381498E+02  0.13275762473E+02 -0.86919183868E+00  0.21454527886E+02  0.00000000000E+00 0.  1.
         14    1    4    4    0    0 -0.66669528121E+02  0.25969199061E+02  0.76765579858E+02  0.10493893239E+03  0.00000000000E+00 0. -1.
         -5    1    5    5    0  502 -0.14634274238E+02 -0.77661350686E+02  0.75770757994E+02  0.10958442015E+03  0.47000000000E+01 0.  1.
         11    1    6    6    0    0 -0.18960211432E+02  0.51851234961E+02  0.15648107242E+02  0.57383825637E+02  0.00000000000E+00 0. -1.
        -12    1    6    6    0    0  0.80086841938E+01 -0.28395859759E+02 -0.11891918001E+02  0.31810086258E+02  0.00000000000E+00 0.  1.
</event>
<event>
12    1  0.8331241E-002  0.1935888E+03  0.7818608E-02  0.1155282E+00
         21   -1    0    0  503  502  0.00000000000E+00  0.00000000000E+00  0.36720776086E+03  0.36720776086E+03  0.00000000000E+00 0.  1.
         21   -1    0    0  501  503 -0.00000000000E+00 -0.00000000000E+00 -0.10290445008E+04  0.10290445008E+04  0.00000000000E+00 0. -1.
          6    2    1    2  501    0 -0.75972044900E+02  0.46505790914E+02 -0.99354442413E+03  0.10122287976E+04  0.17187808390E+03 0.  0.
         24    2    3    3    0    0 -0.52513312828E+02  0.50680937292E+02 -0.97651173650E+03  0.98256490697E+03  0.80823384404E+02 0.  0.
         -6    2    1    2    0  502  0.75972044900E+02 -0.46505790914E+02  0.33170768416E+03  0.38402346411E+03  0.17178327353E+03 0.  0.
        -24    2    5    5    0    0  0.36824181490E+02  0.33886947221E+02  0.15098221375E+03  0.18233228134E+03  0.89135214227E+02 0.  0.
          5    1    3    3  501    0 -0.23458732072E+02 -0.41751463778E+01 -0.17032687632E+02  0.29663890603E+02  0.47000000000E+01 0. -1.
        -13    1    4    4    0    0 -0.42417566629E+01  0.59648520666E+02 -0.53448384515E+03  0.53781866763E+03  0.00000000000E+00 0.  1.
         14    1    4    4    0    0 -0.48271556165E+02 -0.89675833739E+01 -0.44202789135E+03  0.44474623935E+03  0.00000000000E+00 0. -1.
         -5    1    5    5    0  502  0.39147863410E+02 -0.80392738135E+02  0.18072547041E+03  0.20169118277E+03  0.47000000000E+01 0.  1.
         11    1    6    6    0    0  0.53371213294E+02 -0.74772403411E+01  0.10659074611E+03  0.11944028921E+03  0.00000000000E+00 0. -1.
        -12    1    6    6    0    0 -0.16547031804E+02  0.41364187562E+02  0.44391467647E+02  0.62891992130E+02  0.00000000000E+00 0.  1.
</event>
<event>
12    1  0.8331241E-002  0.2307111E+03  0.7818608E-02  0.1126898E+00
         21   -1    0    0  501  502  0.00000000000E+00  0.00000000000E+00  0.66414143378E+02  0.66414143378E+02  0.00000000000E+00 0.  1.
         21   -1    0    0  502  503 -0.00000000000E+00 -0.00000000000E+00 -0.78886791253E+03  0.78886791253E+03  0.00000000000E+00 0. -1.
         -6    2    1    2    0  503  0.58292851141E+02 -0.14197624686E+03 -0.33516202716E+03  0.40447997087E+03  0.16647868096E+03 0.  0.
        -24    2    3    3    0    0  0.92345713744E+02 -0.13794851061E+03 -0.23566483421E+03  0.29913481665E+03  0.79913716131E+02 0.  0.
          6    2    1    2  501    0 -0.58292851141E+02  0.14197624686E+03 -0.38729174199E+03  0.45080208504E+03  0.17225653919E+03 0.  0.
         24    2    5    5    0    0 -0.87053126338E+02  0.15195138919E+03 -0.28597026632E+03  0.34490218738E+03  0.80691103309E+02 0.  0.
          5    1    5    5  501    0  0.28760275198E+02 -0.99751423248E+01 -0.10132147567E+03  0.10589989766E+03  0.47000000000E+01 0. -1.
        -11    1    6    6    0    0 -0.16270192631E+02  0.88021978331E+02 -0.18772403343E+03  0.20797331696E+03  0.00000000000E+00 0.  1.
         12    1    6    6    0    0 -0.70782933707E+02  0.63929410858E+02 -0.98246232888E+02  0.13692887042E+03  0.00000000000E+00 0. -1.
         -5    1    3    3    0  503 -0.34052862604E+02 -0.40277362554E+01 -0.99497192953E+02  0.10534515421E+03  0.47000000000E+01 0.  1.
         11    1    4    4    0    0  0.37524677789E+02 -0.57343840184E+02 -0.16520731569E+03  0.17885713463E+03  0.00000000000E+00 0. -1.
        -12    1    4    4    0    0  0.54821035955E+02 -0.80604670425E+02 -0.70457518518E+02  0.12027768202E+03  0.00000000000E+00 0.  1.
</event>
<event>
12    1  0.8331241E-002  0.1840411E+03  0.7818608E-02  0.1164849E+00
         21   -1    0    0  503  502  0.00000000000E+00  0.00000000000E+00  0.49828175734E+02  0.49828175734E+02  0.00000000000E+00 0. -1.
         21   -1    0    0  501  503 -0.00000000000E+00 -0.00000000000E+00 -0.10563742793E+04  0.10563742793E+04  0.00000000000E+00 0. -1.
          6    2    1    2  501    0 -0.49361962108E+02  0.43994417704E+02 -0.83626181590E+03  0.85546777870E+03  0.16768775619E+03 0.  0.
         24    2    3    3    0    0  0.23962179162E+02  0.47496517519E+02 -0.32958911705E+03  0.34348339598E+03  0.80757365164E+02 0.  0.
         -6    2    1    2    0  502  0.49361962108E+02 -0.43994417704E+02 -0.17028428768E+03  0.25073467634E+03  0.17175280841E+03 0.  0.
        -24    2    5    5    0    0  0.50348207016E+02  0.39881578452E+02 -0.93716240632E+02  0.13706449011E+03  0.76671105644E+02 0.  0.
          5    1    3    3  501    0 -0.73324141270E+02 -0.35020998148E+01 -0.50667269884E+03  0.51198438272E+03  0.47000000000E+01 0. -1.
        -11    1    4    4    0    0  0.19733092537E+02  0.48542963724E+02 -0.92168872203E+02  0.10602318271E+03  0.00000000000E+00 0.  1.
         12    1    4    4    0    0  0.42290866250E+01 -0.10464462055E+01 -0.23742024485E+03  0.23746021327E+03  0.00000000000E+00 0. -1.
         -5    1    5    5    0  502 -0.98624490767E+00 -0.83875996156E+02 -0.76568047049E+02  0.11367018624E+03  0.47000000000E+01 0.  1.
         13    1    6    6    0    0  0.31505105649E+02  0.76647010226E+01 -0.94319236942E+02  0.99736842646E+02  0.00000000000E+00 0. -1.
        -14    1    6    6    0    0  0.18843101367E+02  0.32216877429E+02  0.60299631006E+00  0.37327647461E+02  0.00000000000E+00 0.  1.
</event>
<event>
12    1  0.8331241E-002  0.1919634E+03  0.7818608E-02  0.1156769E+00
         21   -1    0    0  501  502  0.00000000000E+00  0.00000000000E+00  0.28269588511E+03  0.28269588511E+03  0.00000000000E+00 0. -1.
         21   -1    0    0  502  503 -0.00000000000E+00 -0.00000000000E+00 -0.17304678113E+03  0.17304678113E+03  0.00000000000E+00 0. -1.
         -6    2    1    2    0  503  0.62983965462E+02 -0.52615928084E+02 -0.58599804026E+02  0.20070842627E+03  0.17353535533E+03 0.  0.
        -24    2    3    3    0    0  0.65135291009E+02 -0.65963370062E+02 -0.99171295758E+02  0.15768612566E+03  0.80225906022E+02 0.  0.
          6    2    1    2  501    0 -0.62983965462E+02  0.52615928084E+02  0.16824890801E+03  0.25503423997E+03  0.17320321221E+03 0.  0.
         24    2    5    5    0    0  0.11427416769E+02  0.77790740716E+02  0.96937347208E+02  0.14883511710E+03  0.81074395478E+02 0.  0.
          5    1    5    5  501    0 -0.74411382231E+02 -0.25174812631E+02  0.71311560799E+02  0.10619912288E+03  0.47000000000E+01 0. -1.
        -13    1    6    6    0    0  0.16392381690E+02  0.83804210867E+02  0.45399749156E+02  0.96710874052E+02  0.00000000000E+00 0.  1.
         14    1    6    6    0    0 -0.49649649207E+01 -0.60134701510E+01  0.51537598052E+02  0.52124243044E+02  0.00000000000E+00 0. -1.
         -5    1    3    3    0  503 -0.21513255473E+01  0.13347441977E+02  0.40571491732E+02  0.43022300616E+02  0.47000000000E+01 0.  1.
         13    1    4    4    0    0  0.59694841146E+02 -0.17835103797E+02 -0.21038277534E+02  0.65758452754E+02  0.00000000000E+00 0. -1.
        -14    1    4    4    0    0  0.54404498629E+01 -0.48128266265E+02 -0.78133018224E+02  0.91927672902E+02  0.00000000000E+00 0.  1.
</event>
<event>
12    1  0.8331241E-002  0.3533719E+03  0.7818608E-02  0.1061318E+00
         21   -1    0    0  503  502  0.00000000000E+00  0.00000000000E+00  0.76549554065E+03  0.76549554065E+03  0.00000000000E+00 0.  1.
         21   -1    0    0  501  503 -0.00000000000E+00 -0.00000000000E+00 -0.17126863362E+03  0.17126863362E+03  0.00000000000E+00 0. -1.
          6    2    1    2  501    0 -0.25169474825E+03 -0.17767193308E+03  0.19245332386E+03  0.40169996262E+03  0.17148473986E+03 0.  0.
         24    2    3    3    0    0 -0.37507561238E+02 -0.35074958715E+02  0.52564547076E+02  0.10878187160E+03  0.80208441580E+02 0.  0.
         -6    2    1    2    0  502  0.25169474825E+03  0.17767193308E+03  0.40177358316E+03  0.53506421165E+03  0.17307263319E+03 0.  0.
        -24    2    5    5    0    0  0.25626806699E+03  0.13009425601E+03  0.37768982069E+03  0.48133648869E+03  0.80233266698E+02 0.  0.
          5    1    3    3  501    0 -0.21418718701E+03 -0.14259697436E+03  0.13988877679E+03  0.29291809102E+03  0.47000000000E+01 0. -1.
        -11    1    4    4    0    0 -0.50580836742E+02 -0.24638906369E+02  0.66430282996E+02  0.87054461410E+02  0.00000000000E+00 0.  1.
         12    1    4    4    0    0  0.13073275504E+02 -0.10436052346E+02 -0.13865735920E+02  0.21727410190E+02  0.00000000000E+00 0. -1.
         -5    1    5    5    0  502 -0.45733187407E+01  0.47577677069E+02  0.24083762474E+02  0.53727722961E+02  0.47000000000E+01 0.  1.
         11    1    6    6    0    0  0.63008849583E+02  0.30710667013E+01  0.51251059481E+02  0.81278642179E+02  0.00000000000E+00 0. -1.
        -12    1    6    6    0    0  0.19325921740E+03  0.12702318931E+03  0.32643876121E+03  0.40005784651E+03  0.00000000000E+00 0.  1.
</event>
<event>
12    1  0.8331241E-002  0.1850057E+03  0.7818608E-02  0.1163704E+00
         21   -1    0    0  501  502  0.00000000000E+00  0.00000000000E+00  0.33164205767E+03  0.33164205767E+03  0.00000000000E+00 0.  1.
         21   -1    0    0  502  503 -0.00000000000E+00 -0.00000000000E+00 -0.10190992204E+03  0.10190992204E+03  0.00000000000E+00 0.  1.
         -6    2    1    2    0  503  0.55938921677E+02  0.21957472895E+02  0.12673892336E+03  0.22425400402E+03  0.17497374103E+03 0.  0.
        -24    2    3    3    0    0 -0.20994110759E+02 -0.24839731352E+02  0.27508366290E+02  0.90173941138E+02  0.79478704721E+02 0.  0.
          6    2    1    2  501    0 -0.55938921677E+02 -0.21957472895E+02  0.10299321226E+03  0.20929797569E+03  0.17200798610E+03 0.  0.
         24    2    5    5    0    0 -0.36753925906E+02  0.69951575386E+01  0.13489250048E+03  0.16190627325E+03  0.81350300131E+02 0.  0.
          5    1    5    5  501    0 -0.19184995770E+02 -0.28952630433E+02 -0.31899288221E+02  0.47391702446E+02  0.47000000000E+01 0. -1.
        -11    1    6    6    0    0 -0.28235043321E+02 -0.78234221120E+01  0.36154081895E+01  0.29521090448E+02  0.00000000000E+00 0.  1.
         12    1    6    6    0    0 -0.85188825854E+01  0.14818579651E+02  0.13127709229E+03  0.13238518280E+03  0.00000000000E+00 0. -1.
         -5    1    3    3    0  503  0.76933032436E+02  0.46797204247E+02  0.99230557070E+02  0.13408006288E+03  0.47000000000E+01 0.  1.
         13    1    4    4    0    0  0.12776768969E+02 -0.14651018274E+02  0.46293492391E+02  0.50209417439E+02  0.00000000000E+00 0. -1.
        -14    1    4    4    0    0 -0.33770879729E+02 -0.10188713078E+02 -0.18785126101E+02  0.39964523699E+02  0.00000000000E+00 0.  1.
</event>
<event>
12    1  0.8331241E-002  0.1933064E+03  0.7818608E-02  0.1155970E+00
         21   -1    0    0  503  502  0.00000000000E+00  0.00000000000E+00  0.24507623179E+04  0.24507623179E+04  0.00000000000E+00 0. -1.
         21   -1    0    0  501  503 -0.00000000000E+00 -0.00000000000E+00 -0.37531965276E+02  0.37531965276E+02  0.00000000000E+00 0. -1.
          6    2    1    2  501    0  0.42411957225E+02  0.73967778167E+02  0.24185155277E+03  0.30832793699E+03  0.17118392689E+03 0.  0.
         24    2    3    3    0    0  0.80377446484E+02  0.11685505272E+02  0.17718678527E+03  0.21073653343E+03  0.80110203549E+02 0.  0.
         -6    2    1    2    0  502 -0.42411957225E+02 -0.73967778167E+02  0.21713787999E+04  0.21799663462E+04  0.17348594107E+03 0.  0.
        -24    2    5    5    0    0 -0.85774973134E+02 -0.89784620544E+02  0.15216301981E+04  0.15285633534E+04  0.75689108960E+02 0.  0.
          5    1    3    3  501    0 -0.37965489259E+02  0.62282272895E+02  0.64664767505E+02  0.97591403556E+02  0.47000000000E+01 0. -1.
        -11    1    4    4    0    0  0.38326827173E+02 -0.25341829723E+02  0.12864568811E+03  0.13660478427E+03  0.00000000000E+00 0.  1.
         12    1    4    4    0    0  0.42050619311E+02  0.37027334995E+02  0.48541097157E+02  0.74131749166E+02  0.00000000000E+00 0. -1.
         -5    1    5    5    0  502  0.43363015909E+02  0.15816842377E+02  0.64974860172E+03  0.65140299284E+03  0.47000000000E+01 0.  1.
         13    1    6    6    0    0 -0.54207670479E+02 -0.87880888750E+02  0.13570349659E+04  0.13609575382E+04  0.00000000000E+00 0. -1.
        -14    1    6    6    0    0 -0.31567302655E+02 -0.19037317943E+01  0.16459523222E+03  0.16760581512E+03  0.00000000000E+00 0.  1.
</event>
<event>
12    1  0.8331241E-002  0.1916783E+03  0.7818608E-02  0.1157805E+00
         21   -1    0    0  503  502  0.00000000000E+00  0.00000000000E+00  0.10314954825E+04  0.10314954825E+04  0.00000000000E+00 0. -1.
         21   -1    0    0  501  503 -0.00000000000E+00 -0.00000000000E+00 -0.35032455592E+02  0.35032455592E+02  0.00000000000E+00 0.  1.
          6    2    1    2  501    0  0.84800758158E+02  0.12003870448E+01  0.47327065749E+03  0.51061305272E+03  0.17189521476E+03 0.  0.
         24    2    3    3    0    0  0.10059841911E+03  0.51001590091E+02  0.32685706792E+03  0.35508570745E+03  0.80802924883E+02 0.  0.
         -6    2    1    2    0  502 -0.84800758158E+02 -0.12003870448E+01  0.52319236945E+03  0.55591488540E+03  0.16768570257E+03 0.  0.
        -24    2    5    5    0    0 -0.19759280459E+02  0.24607942662E+02  0.13654575658E+03  0.16295921749E+03  0.83156376285E+02 0.  0.
          5    1    3    3  501    0 -0.15797660947E+02 -0.49801203046E+02  0.14641358957E+03  0.15552734527E+03  0.47000000000E+01 0. -1.
        -11    1    4    4    0    0  0.46390454219E+02  0.39352492391E+02  0.71960250425E+02  0.94228289496E+02  0.00000000000E+00 0.  1.
         12    1    4    4    0    0  0.54207964886E+02  0.11649097700E+02  0.25489681749E+03  0.26085741795E+03  0.00000000000E+00 0. -1.
         -5    1    5    5    0  502 -0.65041477699E+02 -0.25808329707E+02  0.38664661287E+03  0.39295566791E+03  0.47000000000E+01 0.  1.
         13    1    6    6    0    0 -0.45759620974E+01  0.37461838247E+02  0.13794687644E+03  0.14301632590E+03  0.00000000000E+00 0. -1.
        -14    1    6    6    0    0 -0.15183318362E+02 -0.12853895584E+02 -0.14011198546E+01  0.19942891591E+02  0.00000000000E+00 0.  1.
</event>
<event>
12    1  0.8331241E-002  0.3345775E+03  0.7818608E-02  0.1069312E+00
         21   -1    0    0  501  502  0.00000000000E+00  0.00000000000E+00  0.10432983045E+03  0.10432983045E+03  0.00000000000E+00 0.  1.
         21   -1    0    0  502  503 -0.00000000000E+00 -0.00000000000E+00 -0.11063606488E+04  0.11063606488E+04  0.00000000000E+00 0. -1.
         -6    2    1    2    0  503 -0.47262214172E+02 -0.28100063981E+03 -0.38890116641E+03  0.51301678280E+03  0.17534829836E+03 0.  0.
        -24    2    3    3    0    0 -0.51681758319E+02 -0.25200936825E+03 -0.39837805534E+03  0.48184102907E+03  0.85357931616E+02 0.  0.
          6    2    1    2  501    0  0.47262214172E+02  0.28100063981E+03 -0.61312965196E+03  0.69767369648E+03  0.17212071398E+03 0.  0.
         24    2    5    5    0    0 -0.13199631571E+02  0.19319995696E+03 -0.50163336626E+03  0.54334253817E+03  0.78004012696E+02 0.  0.
          5    1    5    5  501    0  0.60461845743E+02  0.87800682851E+02 -0.11149628571E+03  0.15433115831E+03  0.47000000000E+01 0. -1.
        -11    1    6    6    0    0 -0.94335358858E+01  0.61235778002E+01 -0.95713001032E+02  0.96371512238E+02  0.00000000000E+00 0.  1.
         12    1    6    6    0    0 -0.37660956854E+01  0.18707637916E+03 -0.40592036522E+03  0.44697102593E+03  0.00000000000E+00 0. -1.
         -5    1    3    3    0  503  0.44195441465E+01 -0.28991271561E+02  0.94768889257E+01  0.31175753734E+02  0.47000000000E+01 0.  1.
         13    1    4    4    0    0 -0.41987854656E+01 -0.94453990963E+01 -0.70410614041E+02  0.71165300064E+02  0.00000000000E+00 0. -1.
        -14    1    4    4    0    0 -0.47482972853E+02 -0.24256396915E+03 -0.32796744130E+03  0.41067572901E+03  0.00000000000E+00 0.  1.
</event>
<event>
12    1  0.8331241E-002  0.2505787E+03  0.7818608E-02  0.1113108E+00
         21   -1    0    0  503  502  0.00000000000E+00  0.00000000000E+00  0.97624512582E+03  0.97624512582E+03  0.00000000000E+00 0.  1.
         21   -1    0    0  501  503 -0.00000000000E+00 -0.00000000000E+00 -0.64850622541E+02  0.64850622541E+02  0.00000000000E+00 0. -1.
          6    2    1    2  501    0 -0.78827446181E+02 -0.16427779499E+03  0.39668445258E+03  0.46863079781E+03  0.17045618071E+03 0.  0.
         24    2    3    3    0    0 -0.81077462734E+02 -0.14906592448E+03  0.40771064061E+03  0.44913386468E+03  0.81847768049E+02 0.  0.
         -6    2    1    2    0  502  0.78827446181E+02  0.16427779499E+03  0.51471005070E+03  0.57246495055E+03  0.17201372945E+03 0.  0.
        -24    2    5    5    0    0  0.38467954560E+02  0.72686143080E+02  0.12122380424E+03  0.16642131322E+03  0.78979642034E+02 0.  0.
          5    1    3    3  501    0  0.22500165535E+01 -0.15211870513E+02 -0.11026188030E+02  0.19496933130E+02  0.47000000000E+01 0. -1.
        -13    1    4    4    0    0 -0.32366971101E+02 -0.25026752073E+01  0.94367065368E+02  0.99794925861E+02  0.00000000000E+00 0.  1.
         14    1    4    4    0    0 -0.48710491634E+02 -0.14656324927E+03  0.31334357524E+03  0.34933893882E+03  0.00000000000E+00 0. -1.
         -5    1    5    5    0  502  0.40359491621E+02  0.91591651909E+02  0.39348624646E+03  0.40604363733E+03  0.47000000000E+01 0.  1.
         11    1    6    6    0    0  0.33149513129E+02  0.79867025291E+02  0.12850753771E+03  0.15489292817E+03  0.00000000000E+00 0. -1.
        -12    1    6    6    0    0  0.53184414314E+01 -0.71808822109E+01 -0.72837334692E+01  0.11528385049E+02  0.00000000000E+00 0.  1.
</event>
<event>
12    1  0.8331241E-002  0.1928817E+03  0.7818608E-02  0.1155951E+00
         21   -1    0    0  501  502  0.00000000000E+00  0.00000000000E+00  0.22306502891E+03  0.22306502891E+03  0.00000000000E+00 0.  1.
         21   -1    0    0  502  503 -0.00000000000E+00 -0.00000000000E+00 -0.16674090893E+03  0.16674090893E+03  0.00000000000E+00 0. -1.
         -6    2    1    2    0  503 -0.87738814141E+02 -0.22689321597E+01  0.21280956358E+02  0.19376670680E+03  0.17143339815E+03 0.  0.
        -24    2    3    3    0    0  0.10327511811E+02 -0.14185756604E+02  0.43686709913E+02  0.92360973316E+02  0.79461484872E+02 0.  0.
          6    2    1    2  501    0  0.87738814141E+02  0.22689321597E+01  0.35043163628E+02  0.19603923105E+03  0.17175595836E+03 0.  0.
         24    2    5    5    0    0  0.87787251902E+02  0.61974971263E+02  0.20050831913E+02  0.13430047934E+03  0.78019768213E+02 0.  0.
          5    1    5    5  501    0 -0.48437761220E-01 -0.59706039103E+02  0.14992331716E+02  0.61738751703E+02  0.47000000000E+01 0. -1.
        -13    1    6    6    0    0  0.58542188002E+01 -0.17588917532E+02  0.15298010502E+01  0.18600596468E+02  0.00000000000E+00 0.  1.
         14    1    6    6    0    0  0.81933033102E+02  0.79563888794E+02  0.18521030863E+02  0.11569988288E+03  0.00000000000E+00 0. -1.
         -5    1    3    3    0  503 -0.98066325952E+02  0.11916824444E+02 -0.22405753555E+02  0.10140573348E+03  0.47000000000E+01 0.  1.
         11    1    4    4    0    0 -0.13067636960E+02  0.29011276705E+02  0.12580132853E+02  0.34215158254E+02  0.00000000000E+00 0. -1.
        -12    1    4    4    0    0  0.23395148771E+02 -0.43197033309E+02  0.31106577060E+02  0.58145815061E+02  0.00000000000E+00 0.  1.
</event>
<event>
12    1  0.8331241E-002  0.2019078E+03  0.7818608E-02  0.1148261E+00
         21   -1    0    0  503  502  0.00000000000E+00  0.00000000000E+00  0.55433543738E+03  0.55433543738E+03  0.00000000000E+00 0.  1.
         21   -1    0    0  501  503 -0.00000000000E+00 -0.00000000000E+00 -0.73356240011E+02  0.73356240011E+02  0.00000000000E+00 0.  1.
          6    2    1    2  501    0  0.76121312948E+02  0.74539335134E+02  0.23415006407E+03  0.30880084394E+03  0.17082488679E+03 0.  0.
         24    2    3    3    0    0  0.74991766332E+02 -0.12719368503E+02  0.10260097508E+03  0.15086854816E+03  0.80304491677E+02 0.  0.
         -6    2    1    2    0  502 -0.76121312948E+02 -0.74539335134E+02  0.24682913330E+03  0.31889083345E+03  0.17151144524E+03 0.  0.
        -24    2    5    5    0    0 -0.58886695399E+02 -0.11218890119E+03  0.14714865848E+03  0.21085005908E+03  0.82164635195E+02 0.  0.
          5    1    3    3  501    0  0.11295466162E+01  0.87258703637E+02  0.13154908899E+03  0.15793229578E+03  0.47000000000E+01 0. -1.
        -11    1    4    4    0    0  0.60245584301E+02 -0.49090878471E+01  0.11510899505E+03  0.13001426965E+03  0.00000000000E+00 0.  1.
         12    1    4    4    0    0  0.14746182031E+02 -0.78102806562E+01 -0.12508019972E+02  0.20854278507E+02  0.00000000000E+00 0. -1.
         -5    1    5    5    0  502 -0.17234617549E+02  0.37649566059E+02  0.99680474818E+02  0.10804077437E+03  0.47000000000E+01 0.  1.
         13    1    6    6    0    0 -0.27045871629E+02 -0.69569942144E+02  0.26869879273E+02  0.79331245006E+02  0.00000000000E+00 0. -1.
        -14    1    6    6    0    0 -0.31840823770E+02 -0.42618959049E+02  0.12027877920E+03  0.13151881407E+03  0.00000000000E+00 0.  1.
</event>
<event>
12    1  0.8331241E-002  0.2336189E+03  0.7818608E-02  0.1124159E+00
         21   -1    0    0  503  502  0.00000000000E+00  0.00000000000E+00  0.26473705913E+03  0.26473705913E+03  0.00000000000E+00 0.  1.
         21   -1    0    0  501  503 -0.00000000000E+00 -0.00000000000E+00 -0.23051756006E+03  0.23051756006E+03  0.00000000000E+00 0. -1.
          6    2    1    2  501    0  0.13846257778E+03  0.75887318099E+02 -0.63724727646E+02  0.24215412862E+03  0.17218307292E+03 0.  0.
         24    2    3    3    0    0  0.78768207723E+02 -0.25975329760E+02 -0.35827649455E+02  0.12074674080E+03  0.80106221009E+02 0.  0.
         -6    2    1    2    0  502 -0.13846257778E+03 -0.75887318099E+02  0.97944226720E+02  0.25310049057E+03  0.17186045585E+03 0.  0.
        -24    2    5    5    0    0 -0.98552674385E+02 -0.11444162094E+03  0.55804188984E+02  0.18326420031E+03  0.87533681390E+02 0.  0.
          5    1    3    3  501    0  0.59694370058E+02  0.10186264786E+03 -0.27897078192E+02  0.12140738782E+03  0.47000000000E+01 0. -1.
        -13    1    4    4    0    0  0.69594476612E+02 -0.49109928984E+02 -0.11510119958E+02  0.85951493071E+02  0.00000000000E+00 0.  1.
         14    1    4    4    0    0  0.91737311115E+01  0.23134599224E+02 -0.24317529496E+02  0.34795247729E+02  0.00000000000E+00 0. -1.
         -5    1    5    5    0  502 -0.39909903396E+02  0.38554302838E+02  0.42140037736E+02  0.69836290256E+02  0.47000000000E+01 0.  1.
         11    1    6    6    0    0  0.14757122698E+02 -0.23051742456E+02  0.22840322261E-01  0.27370714683E+02  0.00000000000E+00 0. -1.
        -12    1    6    6    0    0 -0.11330979708E+03 -0.91389878481E+02  0.55781348662E+02  0.15589348563E+03  0.00000000000E+00 0.  1.
</event>
<event>
12    1  0.8331241E-002  0.2396050E+03  0.7818608E-02  0.1120609E+00
         21   -1    0    0  503  502  0.00000000000E+00  0.00000000000E+00  0.74803395414E+03  0.74803395414E+03  0.00000000000E+00 0. -1.
         21   -1    0    0  501  503 -0.00000000000E+00 -0.00000000000E+00 -0.12096373183E+03  0.12096373183E+03  0.00000000000E+00 0. -1.
          6    2    1    2  501    0 -0.87680483024E+02  0.13812205909E+03  0.49102641301E+02  0.24458463084E+03  0.17505713911E+03 0.  0.
         24    2    3    3    0    0 -0.11852414303E+03  0.10057931886E+03  0.32894622299E+02  0.19314944263E+03  0.10982021284E+03 0.  0.
         -6    2    1    2    0  502  0.87680483024E+02 -0.13812205909E+03  0.57796758101E+03  0.62441305513E+03  0.17052732451E+03 0.  0.
        -24    2    5    5    0    0  0.59895412162E+02 -0.11090586772E+03  0.25433730163E+03  0.29842014268E+03  0.92084453969E+02 0.  0.
          5    1    3    3  501    0  0.30843660010E+02  0.37542740222E+02  0.16208019002E+02  0.51435188210E+02  0.47000000000E+01 0. -1.
        -11    1    4    4    0    0  0.49118773894E+01  0.34929423933E+01 -0.25044999025E+02  0.25760030323E+02  0.00000000000E+00 0.  1.
         12    1    4    4    0    0 -0.12343602042E+03  0.97086376471E+02  0.57939621324E+02  0.16738941231E+03  0.00000000000E+00 0. -1.
         -5    1    5    5    0  502  0.27785070862E+02 -0.27216191369E+02  0.32363027938E+03  0.32599291245E+03  0.47000000000E+01 0.  1.
         13    1    6    6    0    0  0.43104949402E+02 -0.49786766638E+02  0.21250917267E+03  0.22247900410E+03  0.00000000000E+00 0. -1.
        -14    1    6    6    0    0  0.16790462760E+02 -0.61119101080E+02  0.41828128960E+02  0.75941138580E+02  0.00000000000E+00 0.  1.
</event>
<event>
12    1  0.8331241E-002  0.2085649E+03  0.7818608E-02  0.1143221E+00
         21   -1    0    0  501  502  0.00000000000E+00  0.00000000000E+00  0.40482288504E+03  0.40482288504E+03  0.00000000000E+00 0. -1.
         21   -1    0    0  502  503 -0.00000000000E+00 -0.00000000000E+00 -0.27627504536E+03  0.27627504536E+03  0.00000000000E+00 0. -1.
         -6    2    1    2    0  503  0.11526799595E+03 -0.56496370632E+01 -0.20281438575E+03  0.29091751258E+03  0.17372591853E+03 0.  0.
        -24    2    3    3    0    0  0.29969742371E+02 -0.42829635985E+02 -0.16520287936E+03  0.19044433310E+03  0.79022082243E+02 0.  0.
          6    2    1    2  501    0 -0.11526799595E+03  0.56496370632E+01  0.33136222542E+03  0.39018041782E+03  0.17064936192E+03 0.  0.
         24    2    5    5    0    0 -0.18403023810E+02 -0.46952786399E+01  0.66299702410E+02  0.10774445833E+03  0.82779833499E+02 0.  0.
          5    1    5    5  501    0 -0.96864972136E+02  0.10344915703E+02  0.26506252301E+03  0.28243595949E+03  0.47000000000E+01 0. -1.
        -11    1    6    6    0    0 -0.20920490397E+02 -0.42171580710E+02  0.41303725965E+02  0.62626726856E+02  0.00000000000E+00 0.  1.
         12    1    6    6    0    0  0.25174665874E+01  0.37476302070E+02  0.24995976445E+02  0.45117731473E+02  0.00000000000E+00 0. -1.
         -5    1    3    3    0  503  0.85298253574E+02  0.37179998922E+02 -0.37611506383E+02  0.10047317948E+03  0.47000000000E+01 0.  1.
         11    1    4    4    0    0  0.47690582446E+02 -0.55219165451E+02 -0.12260195775E+03  0.14267020688E+03  0.00000000000E+00 0. -1.
        -12    1    4    4    0    0 -0.17720840075E+02  0.12389529466E+02 -0.42600921611E+02  0.47774126213E+02  0.00000000000E+00 0.  1.
</event>
<event>
12    1  0.8331241E-002  0.2361376E+03  0.7818608E-02  0.1122506E+00
         21   -1    0    0  501  502  0.00000000000E+00  0.00000000000E+00  0.93967604979E+03  0.93967604979E+03  0.00000000000E+00 0.  1.
         21   -1    0    0  502  503 -0.00000000000E+00 -0.00000000000E+00 -0.59191917108E+02  0.59191917108E+02  0.00000000000E+00 0.  1.
         -6    2    1    2    0  503  0.99619047824E+02 -0.12795418575E+03  0.43227641808E+03  0.49256865425E+03  0.17165299060E+03 0.  0.
        -24    2    3    3    0    0  0.28321798404E+02 -0.85770000894E+02  0.35551590265E+03  0.37953295212E+03  0.97442739042E+02 0.  0.
          6    2    1    2  501    0 -0.99619047824E+02  0.12795418575E+03  0.44820771460E+03  0.50629931265E+03  0.17074135475E+03 0.  0.
         24    2    5    5    0    0 -0.43345879813E+02  0.11921987994E+03  0.41420358860E+03  0.43980624443E+03  0.75978120290E+02 0.  0.
          5    1    5    5  501    0 -0.56273168010E+02  0.87343058031E+01  0.34004126005E+02  0.66493068219E+02  0.47000000000E+01 0. -1.
        -13    1    6    6    0    0 -0.58755671185E+02  0.68771807345E+02  0.31123535769E+03  0.32411300230E+03  0.00000000000E+00 0.  1.
         14    1    6    6    0    0  0.15409791372E+02  0.50448072599E+02  0.10296823091E+03  0.11569324213E+03  0.00000000000E+00 0. -1.
         -5    1    3    3    0  503  0.71297249419E+02 -0.42184184852E+02  0.76760515439E+02  0.11303570213E+03  0.47000000000E+01 0.  1.
         11    1    4    4    0    0 -0.33379543260E+02 -0.98094767576E+01  0.10298251797E+03  0.10870059222E+03  0.00000000000E+00 0. -1.
        -12    1    4    4    0    0  0.61701341664E+02 -0.75960524137E+02  0.25253338468E+03  0.27083235990E+03  0.00000000000E+00 0.  1.
</event>
<event>
12    1  0.8331241E-002  0.1811794E+03  0.7818608E-02  0.1166743E+00
         21   -1    0    0  503  502  0.00000000000E+00  0.00000000000E+00  0.13680851242E+03  0.13680851242E+03  0.00000000000E+00 0.  1.
         21   -1    0    0  501  503 -0.00000000000E+00 -0.00000000000E+00 -0.43182585593E+03  0.43182585593E+03  0.00000000000E+00 0.  1.
          6    2    1    2  501    0 -0.55780791841E+02 -0.56851826229E+01 -0.33717054065E+03  0.38261587609E+03  0.17195091484E+03 0.  0.
         24    2    3    3    0    0 -0.24628443527E+01  0.52974510255E+02 -0.13657155012E+03  0.16687110073E+03  0.79886241729E+02 0.  0.
         -6    2    1    2    0  502  0.55780791841E+02  0.56851826229E+01  0.42153197132E+02  0.18601849226E+03  0.17228513980E+03 0.  0.
        -24    2    5    5    0    0  0.14987400624E+02 -0.29110185719E+02 -0.34170333746E+02  0.92625827716E+02  0.79623533968E+02 0.  0.
          5    1    3    3  501    0 -0.53317947488E+02 -0.58659692878E+02 -0.20059899053E+03  0.21574477536E+03  0.47000000000E+01 0. -1.
        -13    1    4    4    0    0  0.94302597281E+01  0.39049447999E+02 -0.13403401919E+02  0.42349030338E+02  0.00000000000E+00 0.  1.
         14    1    4    4    0    0 -0.11893104081E+02  0.13925062256E+02 -0.12316814820E+03  0.12452207039E+03  0.00000000000E+00 0. -1.
         -5    1    5    5    0  502  0.40793391217E+02  0.34795368342E+02  0.76323530878E+02  0.93392664545E+02  0.47000000000E+01 0.  1.
         11    1    6    6    0    0  0.16788264954E+02 -0.78558525693E+01 -0.57855100740E+02  0.60751732003E+02  0.00000000000E+00 0. -1.
        -12    1    6    6    0    0 -0.18008643300E+01 -0.21254333150E+02  0.23684766993E+02  0.31874095713E+02  0.00000000000E+00 0.  1.
</event>
<event>
12    1  0.8331241E-002  0.1872924E+03  0.7818608E-02  0.1161708E+00
         21   -1    0    0  501  502  0.00000000000E+00  0.00000000000E+00  0.46599790740E+02  0.46599790740E+02  0.00000000000E+00 0. -1.
         21   -1    0    0  502  503 -0.00000000000E+00 -0.00000000000E+00 -0.96132381818E+03  0.96132381818E+03  0.00000000000E+00 0.  1.
         -6    2    1    2    0  503 -0.30108663686E+02  0.53285792822E+02 -0.70275043268E+03  0.72728027686E+03  0.17700995210E+03 0.  0.
        -24    2    3    3    0    0  0.24564260335E+02 -0.17352497277E+02 -0.22561628299E+03  0.24183410740E+03  0.81709952298E+02 0.  0.
          6    2    1    2  501    0  0.30108663686E+02 -0.53285792822E+02 -0.21197359477E+03  0.28064333206E+03  0.17344153945E+03 0.  0.
         24    2    5    5    0    0 -0.29497138071E+02 -0.12000056280E+02 -0.41793104575E+02  0.95600491379E+02  0.79866813238E+02 0.  0.
          5    1    5    5  501    0  0.59605801757E+02 -0.41285736543E+02 -0.17018049019E+03  0.18504284068E+03  0.47000000000E+01 0. -1.
        -13    1    6    6    0    0  0.14824963832E+02  0.42659400213E+01 -0.45693229146E+02  0.48227056583E+02  0.00000000000E+00 0.  1.
         14    1    6    6    0    0 -0.44322101903E+02 -0.16265996301E+02  0.39001245706E+01  0.47373434796E+02  0.00000000000E+00 0. -1.
         -5    1    3    3    0  503 -0.54672924021E+02  0.70638290100E+02 -0.47713414969E+03  0.48544616947E+03  0.47000000000E+01 0.  1.
         11    1    4    4    0    0 -0.29989571785E+02 -0.22555025625E+01 -0.67693198949E+02  0.74073145549E+02  0.00000000000E+00 0. -1.
        -12    1    4    4    0    0  0.54553832119E+02 -0.15096994715E+02 -0.15792308404E+03  0.16776096185E+03  0.00000000000E+00 0.  1.
</event>
<event>
12    1  0.8331241E-002  0.1760199E+03  0.7818608E-02  0.1172246E+00
         21   -1    0    0  501  502  0.00000000000E+00  0.00000000000E+00  0.28345120851E+03  0.28345120851E+03  0.00000000000E+00 0. -1.
         21   -1    0    0  502  503 -0.00000000000E+00 -0.00000000000E+00 -0.19865891791E+03  0.19865891791E+03  0.00000000000E+00 0. -1.
         -6    2    1    2    0  503  0.21387518169E+02  0.27349147139E+02  0.20539035221E+03  0.27049619735E+03  0.17256185620E+03 0.  0.
        -24    2    3    3    0    0  0.50342874534E+02 -0.11909751537E+02  0.64366986603E+02  0.12120000371E+03  0.88713498054E+02 0.  0.
          6    2    1    2  501    0 -0.21387518169E+02 -0.27349147139E+02 -0.12059806161E+03  0.21161392907E+03  0.17038533015E+03 0.  0.
         24    2    5    5    0    0  0.41311591908E+02 -0.54551753537E+02 -0.62345022104E+02  0.12168803285E+03  0.78984391609E+02 0.  0.
          5    1    5    5  501    0 -0.62699110076E+02  0.27202606398E+02 -0.58253039504E+02  0.89925896218E+02  0.47000000000E+01 0. -1.
        -11    1    6    6    0    0 -0.13415056394E+02  0.10916071788E+02 -0.19963960659E+02  0.26413710200E+02  0.00000000000E+00 0.  1.
         12    1    6    6    0    0  0.54726648302E+02 -0.65467825325E+02 -0.42381061445E+02  0.95274322649E+02  0.00000000000E+00 0. -1.
         -5    1    3    3    0  503 -0.28955356366E+02  0.39258898676E+02  0.14102336560E+03  0.14929619364E+03  0.47000000000E+01 0.  1.
         13    1    4    4    0    0  0.22183349399E+02  0.37300362423E+02  0.14686615199E+02  0.45816096444E+02  0.00000000000E+00 0. -1.
        -14    1    4    4    0    0  0.28159525136E+02 -0.49210113960E+02  0.49680371405E+02  0.75383907266E+02  0.00000000000E+00 0.  1.
</event>
<event>
12    1  0.8331241E-002  0.1946293E+03  0.7818608E-02  0.1154629E+00
         21   -1    0    0  503  502  0.00000000000E+00  0.00000000000E+00  0.52574305651E+03  0.52574305651E+03  0.00000000000E+00 0.  1.
         21   -1    0    0  501  503 -0.00000000000E+00 -0.00000000000E+00 -0.72764781937E+02  0.72764781937E+02  0.00000000000E+00 0.  1.
          6    2    1    2  501    0  0.38651624956E+02 -0.80394441770E+02  0.26389082967E+03  0.32715080124E+03  0.17155775235E+03 0.  0.
         24    2    3    3    0    0 -0.40975835223E+02 -0.43491353173E+02  0.17801396126E+03  0.20427160491E+03  0.80420154800E+02 0.  0.
         -6    2    1    2    0  502 -0.38651624956E+02  0.80394441770E+02  0.18908744491E+03  0.27135703721E+03  0.17298371438E+03 0.  0.
        -24    2    5    5    0    0  0.10819415539E+02  0.80864257397E+02  0.19576545545E+03  0.22121433685E+03  0.62893413024E+02 0.  0.
          5    1    3    3  501    0  0.79627460179E+02 -0.36903088597E+02  0.85876868408E+02  0.12287919633E+03  0.47000000000E+01 0. -1.
        -11    1    4    4    0    0 -0.53447372770E+02 -0.34582529713E+02  0.17789731013E+03  0.18894450500E+03  0.00000000000E+00 0.  1.
         12    1    4    4    0    0  0.12471537548E+02 -0.89088234600E+01  0.11665112481E+00  0.15327099912E+02  0.00000000000E+00 0. -1.
         -5    1    5    5    0  502 -0.49471040495E+02 -0.46981562641E+00 -0.66780105447E+01  0.50142700358E+02  0.47000000000E+01 0.  1.
         13    1    6    6    0    0 -0.15768260179E+02  0.50990891765E+01  0.70514753880E+02  0.72435966579E+02  0.00000000000E+00 0. -1.
        -14    1    6    6    0    0  0.26587675718E+02  0.75765168220E+02  0.12525070157E+03  0.14877837027E+03  0.00000000000E+00 0.  1.
</event>
<event>
12    1  0.8331241E-002  0.2100525E+03  0.7818608E-02  0.1141757E+00
         21   -1    0    0  501  502  0.00000000000E+00  0.00000000000E+00  0.10756770459E+03  0.10756770459E+03  0.00000000000E+00 0. -1.
         21   -1    0    0  502  503 -0.00000000000E+00 -0.00000000000E+00 -0.40972952785E+03  0.40972952785E+03  0.00000000000E+00 0.  1.
         -6    2    1    2    0  503  0.42554228130E+02  0.11298956893E+03 -0.16797563411E+03  0.26804234198E+03  0.17045051605E+03 0.  0.
        -24    2    3    3    0    0  0.90194127798E+02  0.10125444100E+03 -0.14573300665E+03  0.21396741485E+03  0.78463385592E+02 0.  0.
          6    2    1    2  501    0 -0.42554228130E+02 -0.11298956893E+03 -0.13418618914E+03  0.24925489046E+03  0.17188531654E+03 0.  0.
         24    2    5    5    0    0  0.36815451994E+02 -0.33418024516E+02 -0.40446009133E+02  0.10282918182E+03  0.80410317186E+02 0.  0.
          5    1    5    5  501    0 -0.79369680123E+02 -0.79571544416E+02 -0.93740180010E+02  0.14642570864E+03  0.47000000000E+01 0. -1.
        -11    1    6    6    0    0 -0.10559192735E+02 -0.35727980051E+02 -0.40995474109E+02  0.55395072047E+02  0.00000000000E+00 0.  1.
         12    1    6    6    0    0  0.47374644729E+02  0.23099555346E+01  0.54946497520E+00  0.47434109768E+02  0.00000000000E+00 0. -1.
         -5    1    3    3    0  503 -0.47639899668E+02  0.11735127928E+02 -0.22242627460E+02  0.54074927131E+02  0.47000000000E+01 0.  1.
         11    1    4    4    0    0  0.17516949627E+02  0.72265636485E+02 -0.95300197541E+02  0.12087718309E+03  0.00000000000E+00 0. -1.
        -12    1    4    4    0    0  0.72677178171E+02  0.28988804519E+02 -0.50432809107E+02  0.93090231758E+02  0.00000000000E+00 0.  1.
</event>
<event>
12    1  0.8331241E-002  0.2100123E+03  0.7818608E-02  0.1144471E+00
         21   -1    0    0  501  502  0.00000000000E+00  0.00000000000E+00  0.20709275707E+03  0.20709275707E+03  0.00000000000E+00 0. -1.
         21   -1    0    0  502  503 -0.00000000000E+00 -0.00000000000E+00 -0.19919233097E+03  0.19919233097E+03  0.00000000000E+00 0.  1.
         -6    2    1    2    0  503  0.34805359458E+02  0.11397566787E+03 -0.45652503258E+01  0.21006189285E+03  0.17292568173E+03 0.  0.
        -24    2    3    3    0    0 -0.18796814873E+02  0.57874564866E+01 -0.27588218288E+02  0.87057709059E+02  0.80194264236E+02 0.  0.
          6    2    1    2  501    0 -0.34805359458E+02 -0.11397566787E+03  0.12465676418E+02  0.19622319519E+03  0.15539074402E+03 0.  0.
         24    2    5    5    0    0 -0.62256400348E+02 -0.35226418889E+02 -0.13722318182E+02  0.10868517532E+03  0.80668490413E+02 0.  0.
          5    1    5    5  501    0  0.27451040889E+02 -0.78749248986E+02  0.26187994600E+02  0.87538019871E+02  0.47000000000E+01 0. -1.
        -11    1    6    6    0    0 -0.15771698289E+02 -0.34535695583E+02 -0.40109378037E+02  0.55228823478E+02  0.00000000000E+00 0.  1.
         12    1    6    6    0    0 -0.46484702059E+02 -0.69072330587E+00  0.26387059855E+02  0.53456351839E+02  0.00000000000E+00 0. -1.
         -5    1    3    3    0  503  0.53602174331E+02  0.10818821139E+03  0.23022967962E+02  0.12300418379E+03  0.47000000000E+01 0.  1.
         13    1    4    4    0    0 -0.16872096630E+02 -0.12821194618E+02  0.24098021434E+02  0.32089956578E+02  0.00000000000E+00 0. -1.
        -14    1    4    4    0    0 -0.19247182424E+01  0.18608651104E+02 -0.51686239722E+02  0.54967752481E+02  0.00000000000E+00 0.  1.
</event>
<event>
12    1  0.8331241E-002  0.3240201E+03  0.7818608E-02  0.1074066E+00
         21   -1    0    0  503  502  0.00000000000E+00  0.00000000000E+00  0.33180695334E+03  0.33180695334E+03  0.00000000000E+00 0.  1.
         21   -1    0    0  501  503 -0.00000000000E+00 -0.00000000000E+00 -0.40542060719E+03  0.40542060719E+03  0.00000000000E+00 0.  1.
          6    2    1    2  501    0  0.46903722582E+02 -0.26820969443E+03 -0.21150522955E+03  0.38508679287E+03  0.17152543991E+03 0.  0.
         24    2    3    3    0    0 -0.13178282315E+02 -0.65193985213E+02 -0.39906562840E+02  0.11251860338E+03  0.81510609844E+02 0.  0.
         -6    2    1    2    0  502 -0.46903722582E+02  0.26820969443E+03  0.13789157570E+03  0.35214076765E+03  0.17564917937E+03 0.  0.
        -24    2    5    5    0    0  0.15752209656E+02  0.55088198020E+02  0.17930724949E+02  0.99634859227E+02  0.79515738101E+02 0.  0.
          5    1    3    3  501    0  0.60082004897E+02 -0.20301570922E+03 -0.17159866671E+03  0.27256818948E+03  0.47000000000E+01 0. -1.
        -11    1    4    4    0    0  0.76568658507E+01 -0.60606724427E+02 -0.58230475166E+02  0.84395443470E+02  0.00000000000E+00 0.  1.
         12    1    4    4    0    0 -0.20835148165E+02 -0.45872607863E+01  0.18323912327E+02  0.28123159914E+02  0.00000000000E+00 0. -1.
         -5    1    5    5    0  502 -0.62655932239E+02  0.21312149641E+03  0.11996085075E+03  0.25250590843E+03  0.47000000000E+01 0.  1.
         13    1    6    6    0    0  0.11769182525E+02  0.59230627933E+02 -0.18183091238E+02  0.63066677014E+02  0.00000000000E+00 0. -1.
        -14    1    6    6    0    0  0.39830271312E+01 -0.41424299125E+01  0.36113816188E+02  0.36568182213E+02  0.00000000000E+00 0.  1.
</event>
<event>
12    1  0.8331241E-002  0.1896225E+03  0.7818608E-02  0.1158940E+00
         21   -1    0    0  503  502  0.00000000000E+00  0.00000000000E+00  0.19218657914E+03  0.19218657914E+03  0.00000000000E+00 0.  1.
         21   -1    0    0  501  503 -0.00000000000E+00 -0.00000000000E+00 -0.30424694634E+03  0.30424694634E+03  0.00000000000E+00 0.  1.
          6    2    1    2  501    0  0.60957283359E+01  0.79669499815E+02 -0.21039605469E+03  0.28282971707E+03  0.17129437213E+03 0.  0.
         24    2    3    3    0    0  0.29922655561E+02  0.11547862182E+03 -0.18971376368E+03  0.23487283183E+03  0.70308303840E+02 0.  0.
         -6    2    1    2    0  502 -0.60957283359E+01 -0.79669499815E+02  0.98335687499E+02  0.21360380841E+03  0.17196596299E+03 0.  0.
        -24    2    5    5    0    0  0.51390677376E+02 -0.54127403718E+02  0.18707547665E+02  0.11201731242E+03  0.81407176511E+02 0.  0.
          5    1    3    3  501    0 -0.23826927225E+02 -0.35809122009E+02 -0.20682291010E+02  0.47956885236E+02  0.47000000000E+01 0. -1.
        -11    1    4    4    0    0 -0.15607905176E+02  0.75511067625E+02 -0.93764918342E+02  0.12139764392E+03  0.00000000000E+00 0.  1.
         12    1    4    4    0    0  0.45530560737E+02  0.39967554199E+02 -0.95948845341E+02  0.11347518791E+03  0.00000000000E+00 0. -1.
         -5    1    5    5    0  502 -0.57486405712E+02 -0.25542096097E+02  0.79628139833E+02  0.10158649599E+03  0.47000000000E+01 0.  1.
         13    1    6    6    0    0  0.48760668250E+02 -0.66242272040E+02  0.36779460118E+02  0.90101998090E+02  0.00000000000E+00 0. -1.
        -14    1    6    6    0    0  0.26300091257E+01  0.12114868322E+02 -0.18071912453E+02  0.21915314329E+02  0.00000000000E+00 0.  1.
</event>
<event>
12    1  0.8331241E-002  0.1974911E+03  0.7818608E-02  0.1152313E+00
         21   -1    0    0  503  502  0.00000000000E+00  0.00000000000E+00  0.21743432644E+02  0.21743432644E+02  0.00000000000E+00 0.  1.
         21   -1    0    0  501  503 -0.00000000000E+00 -0.00000000000E+00 -0.23212130011E+04  0.23212130011E+04  0.00000000000E+00 0.  1.
          6    2    1    2  501    0  0.18493102624E+01 -0.96793805145E+02 -0.17132835070E+04  0.17243961564E+04  0.16979183839E+03 0.  0.
         24    2    3    3    0    0  0.64696347058E+02 -0.43055481677E+02 -0.95690211070E+03  0.96349375529E+03  0.81358313555E+02 0.  0.
         -6    2    1    2    0  502 -0.18493102624E+01  0.96793805145E+02 -0.58618606153E+03  0.61856027736E+03  0.17213441647E+03 0.  0.
        -24    2    5    5    0    0  0.55045473401E+02  0.16540590546E+02 -0.33378476345E+03  0.34762467591E+03  0.78275486022E+02 0.  0.
          5    1    3    3  501    0 -0.62847036795E+02 -0.53738323468E+02 -0.75638139627E+03  0.76090240114E+03  0.47000000000E+01 0. -1.
        -13    1    4    4    0    0  0.42250362560E+02  0.16540840180E+02 -0.51985448257E+03  0.52183079209E+03  0.00000000000E+00 0.  1.
         14    1    4    4    0    0  0.22445984498E+02 -0.59596321858E+02 -0.43704762813E+03  0.44166296319E+03  0.00000000000E+00 0. -1.
         -5    1    5    5    0  502 -0.56894783664E+02  0.80253214600E+02 -0.25240129808E+03  0.27093560146E+03  0.47000000000E+01 0.  1.
         13    1    6    6    0    0  0.46426663839E+02  0.25087112696E+01 -0.74502456766E+02  0.87819956796E+02  0.00000000000E+00 0. -1.
        -14    1    6    6    0    0  0.86188095625E+01  0.14031879276E+02 -0.25928230668E+03  0.25980471911E+03  0.00000000000E+00 0.  1.
</event>
<event>
12    1  0.8331241E-002  0.1989290E+03  0.7818608E-02  0.1150700E+00
         21   -1    0    0  501  502  0.00000000000E+00  0.00000000000E+00  0.44310368564E+03  0.44310368564E+03  0.00000000000E+00 0.  1.
         21   -1    0    0  502  503 -0.00000000000E+00 -0.00000000000E+00 -0.16005714147E+03  0.16005714147E+03  0.00000000000E+00 0.  1.
         -6    2    1    2    0  503  0.98461334666E+02  0.23716091894E+02 -0.59193976500E+02  0.20730565494E+03  0.17092284890E+03 0.  0.
        -24    2    3    3    0    0  0.10387417693E+03  0.58220199053E+02 -0.51971402315E+01  0.14282635129E+03  0.78695108777E+02 0.  0.
          6    2    1    2  501    0 -0.98461334666E+02 -0.23716091894E+02  0.34224052067E+03  0.39585517216E+03  0.17121815296E+03 0.  0.
         24    2    5    5    0    0 -0.12809062774E+03 -0.29635862619E+02  0.21167471780E+03  0.26175648622E+03  0.80154716982E+02 0.  0.
          5    1    5    5  501    0  0.29629293075E+02  0.59197707252E+01  0.13056580287E+03  0.13409868595E+03  0.47000000000E+01 0. -1.
        -13    1    6    6    0    0 -0.14686156571E+02  0.18070547385E+02  0.71758868567E+02  0.75442448898E+02  0.00000000000E+00 0.  1.
         14    1    6    6    0    0 -0.11340447117E+03 -0.47706410005E+02  0.13991584923E+03  0.18631403732E+03  0.00000000000E+00 0. -1.
         -5    1    3    3    0  503 -0.54128422650E+01 -0.34504107159E+02 -0.53996836268E+02  0.64479303650E+02  0.47000000000E+01 0.  1.
         13    1    4    4    0    0  0.20370298340E+02  0.30026859310E+02  0.30828773347E+02  0.47612756700E+02  0.00000000000E+00 0. -1.
        -14    1    4    4    0    0  0.83503878592E+02  0.28193339744E+02 -0.36025913579E+02  0.95213594591E+02  0.00000000000E+00 0.  1.
</event>
<event>
12    1  0.8331241E-002  0.1998385E+03  0.7818608E-02  0.1150669E+00
         21   -1    0    0  503  502  0.00000000000E+00  0.00000000000E+00  0.21941791987E+03  0.21941791987E+03  0.00000000000E+00 0.  1.
         21   -1    0    0  501  503 -0.00000000000E+00 -0.00000000000E+00 -0.21633535052E+03  0.21633535052E+03  0.00000000000E+00 0.  1.
          6    2    1    2  501    0  0.35322799149E+02  0.86087389776E+02 -0.89399446980E+02  0.21892393885E+03  0.17685217291E+03 0.  0.
         24    2    3    3    0    0  0.30616662418E+02 -0.23437905488E+02 -0.23276967501E+02  0.90813789692E+02  0.78858174915E+02 0.  0.
         -6    2    1    2    0  502 -0.35322799149E+02 -0.86087389776E+02  0.92482016337E+02  0.21682933154E+03  0.17263631382E+03 0.  0.
        -24    2    5    5    0    0 -0.87893648964E+02 -0.50070587401E+02  0.41570085146E+02  0.13512854181E+03  0.79368089199E+02 0.  0.
          5    1    3    3  501    0  0.47061367310E+01  0.10952529526E+03 -0.66122479479E+02  0.12811014916E+03  0.47000000000E+01 0. -1.
        -13    1    4    4    0    0  0.52535927251E+02 -0.37401916680E+01 -0.29962957384E+02  0.60595309233E+02  0.00000000000E+00 0.  1.
         14    1    4    4    0    0 -0.21919264833E+02 -0.19697713820E+02  0.66859898834E+01  0.30218480459E+02  0.00000000000E+00 0. -1.
         -5    1    5    5    0  502  0.52570849814E+02 -0.36016802375E+02  0.50911931192E+02  0.81700789722E+02  0.47000000000E+01 0.  1.
         11    1    6    6    0    0 -0.29796464340E+02 -0.54817395212E+02  0.44702852247E+02  0.76753639028E+02  0.00000000000E+00 0. -1.
        -12    1    6    6    0    0 -0.58097184624E+02  0.47468078116E+01 -0.31327671011E+01  0.58374902787E+02  0.00000000000E+00 0.  1.
</event>
<event>
12    1  0.8331241E-002  0.2106613E+03  0.7818608E-02  0.1141095E+00
         21   -1    0    0  501  502  0.00000000000E+00  0.00000000000E+00  0.17279633506E+03  0.17279633506E+03  0.00000000000E+00 0.  1.
         21   -1    0    0  502  503 -0.00000000000E+00 -0.00000000000E+00 -0.45152199169E+03  0.45152199169E+03  0.00000000000E+00 0. -1.
         -6    2    1    2    0  503 -0.10567867961E+03 -0.58597440609E+02 -0.34446490047E+03  0.40363790601E+03  0.17223776630E+03 0.  0.
        -24    2    3    3    0    0 -0.10820630778E+02 -0.59577208088E+02 -0.10422403759E+03  0.14530329437E+03  0.81141035050E+02 0.  0.
          6    2    1    2  501    0  0.10567867961E+03  0.58597440609E+02  0.65739243838E+02  0.22068042074E+03  0.17255884952E+03 0.  0.
         24    2    5    5    0    0  0.64204571973E+02  0.58239648184E+02  0.10892473935E+03  0.16061956292E+03  0.80124662040E+02 0.  0.
          5    1    5    5  501    0  0.41474107637E+02  0.35779242531E+00 -0.43185495511E+02  0.60060857821E+02  0.47000000000E+01 0. -1.
        -13    1    6    6    0    0  0.65854783494E+02  0.67038152714E+02  0.61388028209E+02  0.11224730035E+03  0.00000000000E+00 0.  1.
         14    1    6    6    0    0 -0.16502115211E+01 -0.87985045302E+01  0.47536711139E+02  0.48372262568E+02  0.00000000000E+00 0. -1.
         -5    1    3    3    0  503 -0.94858048831E+02  0.97976747844E+00 -0.24024086288E+03  0.25833461164E+03  0.47000000000E+01 0.  1.
         11    1    4    4    0    0  0.11796510471E+02 -0.14848938297E+01 -0.75908793624E+02  0.76834286087E+02  0.00000000000E+00 0. -1.
        -12    1    4    4    0    0 -0.22617141250E+02 -0.58092314258E+02 -0.28315243962E+02  0.68469008280E+02  0.00000000000E+00 0.  1.
</event>
<event>
12    1  0.8331241E-002  0.2358688E+03  0.7818608E-02  0.1122759E+00
         21   -1    0    0  501  502  0.00000000000E+00  0.00000000000E+00  0.70771844643E+03  0.70771844643E+03  0.00000000000E+00 0.  1.
         21   -1    0    0  502  503 -0.00000000000E+00 -0.00000000000E+00 -0.13335805606E+03  0.13335805606E+03  0.00000000000E+00 0.  1.
         -6    2    1    2    0  503 -0.14620076656E+03 -0.63273663342E+02  0.16471548648E+02  0.23537520155E+03  0.17248754440E+03 0.  0.
        -24    2    3    3    0    0 -0.57305285709E+02 -0.76944627738E+02  0.56642088745E+02  0.13675946206E+03  0.79312374426E+02 0.  0.
          6    2    1    2  501    0  0.14620076656E+03  0.63273663342E+02  0.55788884172E+03  0.60570130094E+03  0.17394219049E+03 0.  0.
         24    2    5    5    0    0  0.16371401219E+03  0.85847599636E+02  0.52260942831E+03  0.56006114995E+03  0.79848537723E+02 0.  0.
          5    1    5    5  501    0 -0.17513245623E+02 -0.22573936294E+02  0.35279413404E+02  0.45640150988E+02  0.47000000000E+01 0. -1.
        -13    1    6    6    0    0  0.13605644586E+03  0.95626723630E+02  0.48259996027E+03  0.51044935928E+03  0.00000000000E+00 0.  1.
         14    1    6    6    0    0  0.27657566325E+02 -0.97791239940E+01  0.40009468038E+02  0.49611790673E+02  0.00000000000E+00 0. -1.
         -5    1    3    3    0  503 -0.88895480853E+02  0.13670964396E+02 -0.40170540098E+02  0.98615739491E+02  0.47000000000E+01 0.  1.
         11    1    4    4    0    0 -0.43366640432E+02  0.92482892933E+00  0.32000855865E+02  0.53903391238E+02  0.00000000000E+00 0. -1.
        -12    1    4    4    0    0 -0.13938645277E+02 -0.77869456668E+02  0.24641232880E+02  0.82856070820E+02  0.00000000000E+00 0.  1.
</event>
<event>
12    1  0.8331241E-002  0.2024916E+03  0.7818608E-02  0.1148952E+00
         21   -1    0    0  501  502  0.00000000000E+00  0.00000000000E+00  0.17243819635E+03  0.17243819635E+03  0.00000000000E+00 0.  1.
         21   -1    0    0  502  503 -0.00000000000E+00 -0.00000000000E+00 -0.23141010478E+03  0.23141010478E+03  0.00000000000E+00 0. -1.
         -6    2    1    2    0  503 -0.96495052177E+02  0.15696764111E+01 -0.41775163587E+02  0.20675591737E+03  0.17801428622E+03 0.  0.
        -24    2    3    3    0    0 -0.10750661598E+03  0.31203746309E+02 -0.78286169475E+02  0.15823194199E+03  0.79857854164E+02 0.  0.
          6    2    1    2  501    0  0.96495052177E+02 -0.15696764111E+01 -0.17196744843E+02  0.19709238375E+03  0.17098514766E+03 0.  0.
         24    2    5    5    0    0 -0.17214324559E+02 -0.85677776968E+01 -0.15405032802E+02  0.83056880457E+02  0.79318286485E+02 0.  0.
          5    1    5    5  501    0  0.11370937674E+03  0.69981012857E+01 -0.17917120408E+01  0.11403550329E+03  0.47000000000E+01 0. -1.
        -13    1    6    6    0    0 -0.15348942200E+02 -0.12028239792E+02 -0.47173994802E+02  0.51045610631E+02  0.00000000000E+00 0.  1.
         14    1    6    6    0    0 -0.18653823595E+01  0.34604620954E+01  0.31768962000E+02  0.32011269825E+02  0.00000000000E+00 0. -1.
         -5    1    3    3    0  503  0.11011563803E+02 -0.29634069897E+02  0.36511005888E+02  0.48523975384E+02  0.47000000000E+01 0.  1.
         11    1    4    4    0    0 -0.77014839949E+02 -0.90899096951E+01 -0.18076553489E+02  0.79628348072E+02  0.00000000000E+00 0. -1.
        -12    1    4    4    0    0 -0.30491776031E+02  0.40293656004E+02 -0.60209615986E+02  0.78603593918E+02  0.00000000000E+00 0.  1.
</event>
<event>
12    1  0.8331241E-002  0.2356398E+03  0.7818608E-02  0.1122947E+00
         21   -1    0    0  501  502  0.00000000000E+00  0.00000000000E+00  0.20323282077E+03  0.20323282077E+03  0.00000000000E+00 0.  1.
         21   -1    0    0  502  503 -0.00000000000E+00 -0.00000000000E+00 -0.91336836492E+03  0.91336836492E+03  0.00000000000E+00 0.  1.
         -6    2    1    2    0  503 -0.81031900273E+02  0.13851342686E+03 -0.82328116027E+03  0.85633987277E+03  0.17255135631E+03 0.  0.
        -24    2    3    3    0    0 -0.71478067592E+02  0.81473078223E+02 -0.75349791846E+03  0.76558378246E+03  0.81316899973E+02 0.  0.
          6    2    1    2  501    0  0.81031900273E+02 -0.13851342686E+03  0.11314561612E+03  0.26026131292E+03  0.17082705369E+03 0.  0.
         24    2    5    5    0    0  0.25047038981E+02 -0.45618920755E+01  0.12508526529E+02  0.83549026512E+02  0.78586331980E+02 0.  0.
          5    1    5    5  501    0  0.55984861291E+02 -0.13395153478E+03  0.10063708959E+03  0.17671228641E+03  0.47000000000E+01 0. -1.
        -11    1    6    6    0    0 -0.31563976258E+01 -0.22581675494E+02  0.36032164469E+02  0.42640494726E+02  0.00000000000E+00 0.  1.
         12    1    6    6    0    0  0.28203436607E+02  0.18019783419E+02 -0.23523637941E+02  0.40908531786E+02  0.00000000000E+00 0. -1.
         -5    1    3    3    0  503 -0.95538326808E+01  0.57040348637E+02 -0.69783241807E+02  0.90756090311E+02  0.47000000000E+01 0.  1.
         13    1    4    4    0    0  0.17046623801E+02  0.10968812648E+02 -0.74001888832E+02  0.76727972634E+02  0.00000000000E+00 0. -1.
        -14    1    4    4    0    0 -0.88524691393E+02  0.70504265576E+02 -0.67949602963E+03  0.68885580982E+03  0.00000000000E+00 0.  1.
</event>
<event>
12    1  0.8331241E-002  0.2172631E+03  0.7818608E-02  0.1135972E+00
         21   -1    0    0  503  502  0.00000000000E+00  0.00000000000E+00  0.35582403304E+03  0.35582403304E+03  0.00000000000E+00 0.  1.
         21   -1    0    0  501  503 -0.00000000000E+00 -0.00000000000E+00 -0.22750696951E+03  0.22750696951E+03  0.00000000000E+00 0.  1.
          6    2    1    2  501    0  0.54751705815E+02 -0.12082305556E+03 -0.12427847512E+03  0.25015276311E+03  0.17185838783E+03 0.  0.
         24    2    3    3    0    0  0.40333070344E+02 -0.35307004868E+02 -0.14989130128E+02  0.11055640605E+03  0.95523315172E+02 0.  0.
         -6    2    1    2    0  502 -0.54751705815E+02  0.12082305556E+03  0.25259553864E+03  0.33317823944E+03  0.17206764091E+03 0.  0.
        -24    2    5    5    0    0  0.17137197082E+02  0.11297798124E+03  0.20040241542E+03  0.24387106356E+03  0.79083878069E+02 0.  0.
          5    1    3    3  501    0  0.14418635470E+02 -0.85516050693E+02 -0.10928934499E+03  0.13959635705E+03  0.47000000000E+01 0. -1.
        -13    1    4    4    0    0  0.40899325786E+02 -0.63403491535E+02 -0.26806131778E+02  0.80070758017E+02  0.00000000000E+00 0.  1.
         14    1    4    4    0    0 -0.56625544120E+00  0.28096486667E+02  0.11817001650E+02  0.30485648037E+02  0.00000000000E+00 0. -1.
         -5    1    5    5    0  502 -0.71888902896E+02  0.78450743247E+01  0.52193123224E+02  0.89307175875E+02  0.47000000000E+01 0.  1.
         13    1    6    6    0    0  0.29828313228E+02  0.51554782473E+01  0.48157524308E+02  0.56881054609E+02  0.00000000000E+00 0. -1.
        -14    1    6    6    0    0 -0.12691116146E+02  0.10782250299E+03  0.15224489111E+03  0.18699000895E+03  0.00000000000E+00 0.  1.
</event>
<event>
12    1  0.8331241E-002  0.1872378E+03  0.7818608E-02  0.1161372E+00
         21   -1    0    0  503  502  0.00000000000E+00  0.00000000000E+00  0.51132949063E+02  0.51132949063E+02  0.00000000000E+00 0. -1.
         21   -1    0    0  501  503 -0.00000000000E+00 -0.00000000000E+00 -0.72897868548E+03  0.72897868548E+03  0.00000000000E+00 0. -1.
          6    2    1    2  501    0 -0.72715021580E+02  0.55782017637E+01 -0.44211973955E+03  0.48013317990E+03  0.17245119784E+03 0.  0.
         24    2    3    3    0    0 -0.17580715693E+02  0.61032756953E+02 -0.19600872553E+03  0.22185480178E+03  0.82256024737E+02 0.  0.
         -6    2    1    2    0  502  0.72715021580E+02 -0.55782017637E+01 -0.23572599686E+03  0.29997845465E+03  0.17059231212E+03 0.  0.
        -24    2    5    5    0    0  0.10623822235E+03  0.14455807834E+02 -0.21889810047E+03  0.25719487570E+03  0.82081029655E+02 0.  0.
          5    1    3    3  501    0 -0.55134305887E+02 -0.55454555189E+02 -0.24611101403E+03  0.25827837812E+03  0.47000000000E+01 0. -1.
        -13    1    4    4    0    0  0.29755162189E+02  0.13754697022E+02 -0.37512537923E+02  0.49817184469E+02  0.00000000000E+00 0.  1.
         14    1    4    4    0    0 -0.47335877881E+02  0.47278059930E+02 -0.15849618760E+03  0.17203761731E+03  0.00000000000E+00 0. -1.
         -5    1    5    5    0  502 -0.33523200769E+02 -0.20034009598E+02 -0.16827896396E+02  0.42783578947E+02  0.47000000000E+01 0.  1.
         11    1    6    6    0    0  0.45580707660E+02 -0.25557966905E+02 -0.45892959826E+02  0.69548359756E+02  0.00000000000E+00 0. -1.
        -12    1    6    6    0    0  0.60657514689E+02  0.40013774739E+02 -0.17300514064E+03  0.18764651594E+03  0.00000000000E+00 0.  1.
</event>
<event>
12    1  0.8331241E-002  0.2380658E+03  0.7818608E-02  0.1121116E+00
         21   -1    0    0  503  502  0.00000000000E+00  0.00000000000E+00  0.44056699456E+03  0.44056699456E+03  0.00000000000E+00 0.  1.
         21   -1    0    0  501  503 -0.00000000000E+00 -0.00000000000E+00 -0.12885208332E+03  0.12885208332E+03  0.00000000000E+00 0. -1.
          6    2    1    2  501    0 -0.78021322989E+02  0.14483043994E+03  0.16953197650E+03  0.29212627325E+03  0.17185309218E+03 0.  0.
         24    2    3    3    0    0 -0.78850322314E+01  0.19319970633E+02  0.93417239968E+01  0.76824196655E+02  0.73343400425E+02 0.  0.
         -6    2    1    2    0  502  0.78021322989E+02 -0.14483043994E+03  0.14218293473E+03  0.27729280464E+03  0.17208175208E+03 0.  0.
        -24    2    5    5    0    0 -0.24772758913E+02 -0.97822148643E+02  0.60136684294E+02  0.13754274225E+03  0.71545250010E+02 0.  0.
          5    1    3    3  501    0 -0.70136290757E+02  0.12551046931E+03  0.16019025251E+03  0.21530207659E+03  0.47000000000E+01 0. -1.
        -11    1    4    4    0    0 -0.32469419271E+02 -0.11891599199E+02 -0.42364115544E+01  0.34837056451E+02  0.00000000000E+00 0.  1.
         12    1    4    4    0    0  0.24584387040E+02  0.31211569832E+02  0.13578135551E+02  0.41987140204E+02  0.00000000000E+00 0. -1.
         -5    1    5    5    0  502  0.10279408190E+03 -0.47008291300E+02  0.82046250441E+02  0.13975006238E+03  0.47000000000E+01 0.  1.
         11    1    6    6    0    0 -0.51894630096E+00 -0.69778480948E+02  0.35240093930E+01  0.69869337702E+02  0.00000000000E+00 0. -1.
        -12    1    6    6    0    0 -0.24253812612E+02 -0.28043667695E+02  0.56612674901E+02  0.67673404550E+02  0.00000000000E+00 0.  1.
</event>
<event>
12    1  0.8331241E-002  0.1898924E+03  0.7818608E-02  0.1160348E+00
         21   -1    0    0  501  502  0.00000000000E+00  0.00000000000E+00  0.13372635243E+03  0.13372635243E+03  0.00000000000E+00 0.  1.
         21   -1    0    0  502  503 -0.00000000000E+00 -0.00000000000E+00 -0.26040768978E+03  0.26040768978E+03  0.00000000000E+00 0.  1.
         -6    2    1    2    0  503 -0.79514612487E+02  0.12028730982E+02 -0.48912382643E+02  0.19609065271E+03  0.17202284423E+03 0.  0.
        -24    2    3    3    0    0 -0.10170279073E+03 -0.30462374252E+02 -0.62832944129E+02  0.14595402628E+03  0.77994775668E+02 0.  0.
          6    2    1    2  501    0  0.79514612487E+02 -0.12028730982E+02 -0.77768954711E+02  0.19804338950E+03  0.16341942920E+03 0.  0.
         24    2    5    5    0    0  0.98877622047E+02 -0.51220428943E+02 -0.58638365752E+02  0.15009566002E+03  0.81792008997E+02 0.  0.
          5    1    5    5  501    0 -0.19363009561E+02  0.39191697961E+02 -0.19130588959E+02  0.47947729479E+02  0.47000000000E+01 0. -1.
        -13    1    6    6    0    0 -0.11416243314E+02 -0.19894645931E+02 -0.15047264242E+02  0.27432603035E+02  0.00000000000E+00 0.  1.
         14    1    6    6    0    0  0.11029386536E+03 -0.31325783012E+02 -0.43591101511E+02  0.12266305698E+03  0.00000000000E+00 0. -1.
         -5    1    3    3    0  503  0.22188178247E+02  0.42491105234E+02  0.13920561486E+02  0.50136626432E+02  0.47000000000E+01 0.  1.
         13    1    4    4    0    0 -0.22077510036E+01  0.10890154896E+01 -0.38757360208E+02  0.38835461752E+02  0.00000000000E+00 0. -1.
        -14    1    4    4    0    0 -0.99495039731E+02 -0.31551389742E+02 -0.24075583921E+02  0.10711856453E+03  0.00000000000E+00 0.  1.
</event>
<event>
12    1  0.8331241E-002  0.1939546E+03  0.7818608E-02  0.1156055E+00
         21   -1    0    0  503  502  0.00000000000E+00  0.00000000000E+00  0.38957630708E+03  0.38957630708E+03  0.00000000000E+00 0. -1.
         21   -1    0    0  501  503 -0.00000000000E+00 -0.00000000000E+00 -0.26315829456E+03  0.26315829456E+03  0.00000000000E+00 0.  1.
          6    2    1    2  501    0 -0.40640619544E+02 -0.82282925629E+02 -0.19808337850E+03  0.27722808103E+03  0.17086908517E+03 0.  0.
         24    2    3    3    0    0 -0.71392000603E+02 -0.79100434660E+02 -0.20530983951E+03  0.24513310596E+03  0.81144395531E+02 0.  0.
         -6    2    1    2    0  502  0.40640619544E+02  0.82282925629E+02  0.32450139102E+03  0.37550652062E+03  0.16517219635E+03 0.  0.
        -24    2    5    5    0    0  0.32167687540E+02 -0.18173781267E+02  0.14708206477E+03  0.17139123979E+03  0.79854723439E+02 0.  0.
          5    1    3    3  501    0  0.30751381058E+02 -0.31824909691E+01  0.72264610086E+01  0.32094975066E+02  0.47000000000E+01 0. -1.
        -13    1    4    4    0    0 -0.22858325043E+01 -0.96257173642E+01 -0.10296880428E+03  0.10344299938E+03  0.00000000000E+00 0.  1.
         14    1    4    4    0    0 -0.69106168098E+02 -0.69474717295E+02 -0.10234103523E+03  0.14169010658E+03  0.00000000000E+00 0. -1.
         -5    1    5    5    0  502  0.84729320045E+01  0.10045670690E+03  0.17741932625E+03  0.20411528082E+03  0.47000000000E+01 0.  1.
         13    1    6    6    0    0  0.28157237678E+02  0.87206166902E+01  0.14030459325E+03  0.14336756285E+03  0.00000000000E+00 0. -1.
        -14    1    6    6    0    0  0.40104498621E+01 -0.26894397957E+02  0.67774715135E+01  0.28023676948E+02  0.00000000000E+00 0.  1.
</event>
<event>
12    1  0.8331241E-002  0.2279965E+03  0.7818608E-02  0.1128214E+00
         21   -1    0    0  503  502  0.00000000000E+00  0.00000000000E+00  0.10891376451E+03  0.10891376451E+03  0.00000000000E+00 0. -1.
         21   -1    0    0  501  503 -0.00000000000E+00 -0.00000000000E+00 -0.51741193630E+03  0.51741193630E+03  0.00000000000E+00 0. -1.
          6    2    1    2  501    0 -0.14779988645E+03 -0.19633398900E+02 -0.11470254019E+03  0.25444095106E+03  0.17132789633E+03 0.  0.
         24    2    3    3    0    0 -0.12852853714E+03 -0.69348470616E+02 -0.56072268762E+02  0.17505221138E+03  0.78551780044E+02 0.  0.
         -6    2    1    2    0  502  0.14779988645E+03  0.19633398900E+02 -0.29379563159E+03  0.37188474976E+03  0.17248802037E+03 0.  0.
        -24    2    5    5    0    0  0.15102745705E+03  0.23329834236E+02 -0.30973712309E+03  0.35455552597E+03  0.80118422516E+02 0.  0.
          5    1    3    3  501    0 -0.19271349313E+02  0.49715071716E+02 -0.58630271432E+02  0.79388739682E+02  0.47000000000E+01 0. -1.
        -11    1    4    4    0    0 -0.60603658852E+02 -0.62629020924E+02 -0.61370429955E+02  0.10659046581E+03  0.00000000000E+00 0.  1.
         12    1    4    4    0    0 -0.67924878286E+02 -0.67194496921E+01  0.52981611932E+01  0.68461745569E+02  0.00000000000E+00 0. -1.
         -5    1    5    5    0  502 -0.32275706023E+01 -0.36964353362E+01  0.15941491493E+02  0.17329223791E+02  0.47000000000E+01 0.  1.
         11    1    6    6    0    0  0.49500747925E+02 -0.58248743846E+01 -0.18251329476E+03  0.18919660666E+03  0.00000000000E+00 0. -1.
        -12    1    6    6    0    0  0.10152670913E+03  0.29154708621E+02 -0.12722382833E+03  0.16535891931E+03  0.00000000000E+00 0.  1.
</event>
<event>
12    1  0.8331241E-002  0.2217521E+03  0.7818608E-02  0.1132586E+00
         21   -1    0    0  501  502  0.00000000000E+00  0.00000000000E+00  0.36881474814E+03  0.36881474814E+03  0.00000000000E+00 0.  1.
         21   -1    0    0  502  503 -0.00000000000E+00 -0.00000000000E+00 -0.14021742684E+03  0.14021742684E+03  0.00000000000E+00 0. -1.
         -6    2    1    2    0  503 -0.10611603501E+03 -0.91623616410E+02  0.57854739658E+02  0.22917492336E+03  0.17180941367E+03 0.  0.
        -24    2    3    3    0    0 -0.10547043389E+03 -0.57546891785E+02 -0.19621244539E+02  0.14440312328E+03  0.77663450838E+02 0.  0.
          6    2    1    2  501    0  0.10611603501E+03  0.91623616410E+02  0.17074258164E+03  0.27985725163E+03  0.17178926664E+03 0.  0.
         24    2    5    5    0    0  0.63614492698E+01  0.59477944891E+02  0.28877424819E+02  0.10341424583E+03  0.79262264741E+02 0.  0.
          5    1    5    5  501    0  0.99754585737E+02  0.32145671519E+02  0.14186515682E+03  0.17644300579E+03  0.47000000000E+01 0. -1.
        -13    1    6    6    0    0  0.10989075452E+02  0.76790791734E+02  0.11443866022E+02  0.78412674639E+02  0.00000000000E+00 0.  1.
         14    1    6    6    0    0 -0.46276261825E+01 -0.17312846843E+02  0.17433558797E+02  0.25001571195E+02  0.00000000000E+00 0. -1.
         -5    1    3    3    0  503 -0.64560111698E+00 -0.34076724625E+02  0.77475984197E+02  0.84771800083E+02  0.47000000000E+01 0.  1.
         13    1    4    4    0    0 -0.35004821333E+01  0.13538732961E+02  0.92829002032E+01  0.16784603109E+02  0.00000000000E+00 0. -1.
        -14    1    4    4    0    0 -0.10196995176E+03 -0.71085624746E+02 -0.28904144742E+02  0.12761852017E+03  0.00000000000E+00 0.  1.
</event>
<event>
12    1  0.8331241E-002  0.2429655E+03  0.7818608E-02  0.1117915E+00
         21   -1    0    0  501  502  0.00000000000E+00  0.00000000000E+00  0.21003121983E+03  0.21003121983E+03  0.00000000000E+00 0.  1.
         21   -1    0    0  502  503 -0.00000000000E+00 -0.00000000000E+00 -0.28651960337E+03  0.28651960337E+03  0.00000000000E+00 0. -1.
         -6    2    1    2    0  503 -0.15427584082E+03 -0.73636346652E+02 -0.74318447877E+02  0.25407765290E+03  0.17265247000E+03 0.  0.
        -24    2    3    3    0    0 -0.15411380347E+03 -0.20968353050E+02 -0.13516854462E+02  0.17349932102E+03  0.75687335735E+02 0.  0.
          6    2    1    2  501    0  0.15427584082E+03  0.73636346652E+02 -0.21699356654E+01  0.24247317030E+03  0.17194529097E+03 0.  0.
         24    2    5    5    0    0  0.82320157837E+02  0.10606819220E+03  0.27129253657E+02  0.15815248829E+03  0.79051523488E+02 0.  0.
          5    1    5    5  501    0  0.71955682986E+02 -0.32431845549E+02 -0.29299189323E+02  0.84320682010E+02  0.47000000000E+01 0. -1.
        -13    1    6    6    0    0  0.79310381441E+02  0.89049853298E+02  0.50152072575E+02  0.12936476862E+03  0.00000000000E+00 0.  1.
         14    1    6    6    0    0  0.30097763960E+01  0.17018338904E+02 -0.23022818917E+02  0.28787719672E+02  0.00000000000E+00 0. -1.
         -5    1    3    3    0  503 -0.16203735132E+00 -0.52667993602E+02 -0.60801593414E+02  0.80578331876E+02  0.47000000000E+01 0.  1.
         11    1    4    4    0    0 -0.14040995702E+03 -0.11863159508E+02 -0.36192072075E+02  0.14548387081E+03  0.00000000000E+00 0. -1.
        -12    1    4    4    0    0 -0.13703846451E+02 -0.91051935418E+01  0.22675217613E+02  0.28015450215E+02  0.00000000000E+00 0.  1.
</event>
<event>
12    1  0.8331241E-002  0.1975063E+03  0.7818608E-02  0.1151873E+00
         21   -1    0    0  501  502  0.00000000000E+00  0.00000000000E+00  0.36266449605E+03  0.36266449605E+03  0.00000000000E+00 0. -1.
         21   -1    0    0  502  503 -0.00000000000E+00 -0.00000000000E+00 -0.10965266519E+03  0.10965266519E+03  0.00000000000E+00 0. -1.
         -6    2    1    2    0  503  0.91455810718E+02  0.32098013733E+02  0.15938331486E+03  0.25379477709E+03  0.17208805891E+03 0.  0.
        -24    2    3    3    0    0  0.10997412853E+03  0.13072467855E+01  0.60559144700E+02  0.14853649460E+03  0.79370412499E+02 0.  0.
          6    2    1    2  501    0 -0.91455810718E+02 -0.32098013733E+02  0.93628515998E+02  0.21852238415E+03  0.17202117767E+03 0.  0.
         24    2    5    5    0    0 -0.12974588626E+03 -0.14998935807E+02  0.72883930832E+02  0.17150179117E+03  0.83915635754E+02 0.  0.
          5    1    5    5  501    0  0.38290075541E+02 -0.17099077926E+02  0.20744585167E+02  0.47020592984E+02  0.47000000000E+01 0. -1.
        -11    1    6    6    0    0 -0.63065284468E+00  0.20887755573E+02  0.13817559528E+02  0.25052365301E+02  0.00000000000E+00 0.  1.
         12    1    6    6    0    0 -0.12911523341E+03 -0.35886691380E+02  0.59066371303E+02  0.14644942587E+03  0.00000000000E+00 0. -1.
         -5    1    3    3    0  503 -0.18518317816E+02  0.30790766947E+02  0.98824170164E+02  0.10525828249E+03  0.47000000000E+01 0.  1.
         13    1    4    4    0    0 -0.64678128270E+01  0.16399777417E+02  0.34291544004E+01  0.17959521207E+02  0.00000000000E+00 0. -1.
        -14    1    4    4    0    0  0.11644194136E+03 -0.15092530631E+02  0.57129990300E+02  0.13057697339E+03  0.00000000000E+00 0.  1.
</event>
<event>
12    1  0.8331241E-002  0.1889789E+03  0.7818608E-02  0.1160252E+00
         21   -1    0    0  501  502  0.00000000000E+00  0.00000000000E+00  0.49531420953E+03  0.49531420953E+03  0.00000000000E+00 0. -1.
         21   -1    0    0  502  503 -0.00000000000E+00 -0.00000000000E+00 -0.80146512870E+02  0.80146512870E+02  0.00000000000E+00 0. -1.
         -6    2    1    2    0  503  0.53813478412E+02 -0.55269263544E+02  0.10679914574E+03  0.21379210427E+03  0.16837584259E+03 0.  0.
        -24    2    3    3    0    0  0.22858036480E+02  0.25396685580E+02  0.96422441788E+01  0.83689113326E+02  0.75785310887E+02 0.  0.
          6    2    1    2  501    0 -0.53813478412E+02  0.55269263544E+02  0.30836855092E+03  0.36166861812E+03  0.17251795323E+03 0.  0.
         24    2    5    5    0    0 -0.45635691748E+02 -0.75108581860E+01  0.72542731260E+02  0.11744714671E+03  0.79952204852E+02 0.  0.
          5    1    5    5  501    0 -0.81777866647E+01  0.62780121730E+02  0.23582581966E+03  0.24422147141E+03  0.47000000000E+01 0. -1.
        -11    1    6    6    0    0 -0.11059227624E+02 -0.42052393285E+02  0.33318790011E+02  0.54780033447E+02  0.00000000000E+00 0.  1.
         12    1    6    6    0    0 -0.34576464124E+02  0.34541535099E+02  0.39223941248E+02  0.62667113268E+02  0.00000000000E+00 0. -1.
         -5    1    3    3    0  503  0.30955441932E+02 -0.80665949124E+02  0.97156901559E+02  0.13010299095E+03  0.47000000000E+01 0.  1.
         11    1    4    4    0    0  0.82179993584E+01 -0.23892446834E+02 -0.11915904351E+02  0.27935162532E+02  0.00000000000E+00 0. -1.
        -12    1    4    4    0    0  0.14640037122E+02  0.49289132414E+02  0.21558148530E+02  0.55753950794E+02  0.00000000000E+00 0.  1.
</event>
<event>
12    1  0.8331241E-002  0.2001265E+03  0.7818608E-02  0.1150877E+00
         21   -1    0    0  501  502  0.00000000000E+00  0.00000000000E+00  0.29198138825E+03  0.29198138825E+03  0.00000000000E+00 0. -1.
         21   -1    0    0  502  503 -0.00000000000E+00 -0.00000000000E+00 -0.14718901070E+03  0.14718901070E+03  0.00000000000E+00 0.  1.
         -6    2    1    2    0  503 -0.68112287019E+02  0.61132356974E+02  0.37700764677E+01  0.19434819567E+03  0.17140758143E+03 0.  0.
        -24    2    3    3    0    0 -0.51516128019E+02  0.69917875839E+02 -0.57462255157E+02  0.13012899083E+03  0.78033471520E+02 0.  0.
          6    2    1    2  501    0  0.68112287019E+02 -0.61132356974E+02  0.14102230108E+03  0.24482220327E+03  0.17797239421E+03 0.  0.
         24    2    5    5    0    0 -0.15396384504E+02 -0.68826523930E+02  0.11214926314E+03  0.15600418289E+03  0.82375413833E+02 0.  0.
          5    1    5    5  501    0  0.83508671524E+02  0.76941669562E+01  0.28873037935E+02  0.88818020381E+02  0.47000000000E+01 0. -1.
        -13    1    6    6    0    0 -0.20666746040E+02  0.73411521353E+01  0.20570670204E+01  0.22028128184E+02  0.00000000000E+00 0.  1.
         14    1    6    6    0    0  0.52703615361E+01 -0.76167676066E+02  0.11009219612E+03  0.13397605471E+03  0.00000000000E+00 0. -1.
         -5    1    3    3    0  503 -0.16596159000E+02 -0.87855188650E+01  0.61232331625E+02  0.64219204850E+02  0.47000000000E+01 0.  1.
         11    1    4    4    0    0 -0.52004934209E+01 -0.17145000127E+02 -0.60092796002E+01  0.18897290877E+02  0.00000000000E+00 0. -1.
        -12    1    4    4    0    0 -0.46315634598E+02  0.87062875966E+02 -0.51452975557E+02  0.11123169995E+03  0.00000000000E+00 0.  1.
</event>
<event>
12    1  0.8331241E-002  0.1795198E+03  0.7818608E-02  0.1168445E+00
         21   -1    0    0  503  502  0.00000000000E+00  0.00000000000E+00  0.46481346542E+03  0.46481346542E+03  0.00000000000E+00 0. -1.
         21   -1    0    0  501  503 -0.00000000000E+00 -0.00000000000E+00 -0.75108573542E+02  0.75108573542E+02  0.00000000000E+00 0. -1.
          6    2    1    2  501    0 -0.33430947721E+01  0.46708723425E+02  0.11856619798E+03  0.21514022925E+03  0.17330462720E+03 0.  0.
         24    2    3    3    0    0 -0.50259300055E+02  0.59296047789E+02  0.35513248053E+02  0.11881030895E+03  0.82538961712E+02 0.  0.
         -6    2    1    2    0  502  0.33430947721E+01 -0.46708723425E+02  0.27113869390E+03  0.32478180972E+03  0.17255188051E+03 0.  0.
        -24    2    5    5    0    0 -0.51077436773E+02 -0.64047783913E+02  0.21951656945E+03  0.24765094038E+03  0.80202498933E+02 0.  0.
          5    1    3    3  501    0  0.46916205283E+02 -0.12587324363E+02  0.83052949926E+02  0.96329920295E+02  0.47000000000E+01 0. -1.
        -13    1    4    4    0    0 -0.66152362828E+02  0.19261478279E+02  0.12672354618E+02  0.70055179856E+02  0.00000000000E+00 0.  1.
         14    1    4    4    0    0  0.15893062773E+02  0.40034569510E+02  0.22840893436E+02  0.48755129095E+02  0.00000000000E+00 0. -1.
         -5    1    5    5    0  502  0.54420531545E+02  0.17339060488E+02  0.51622124450E+02  0.77130869339E+02  0.47000000000E+01 0.  1.
         13    1    6    6    0    0 -0.37294794050E+02 -0.88613118505E+01  0.26948843683E+02  0.46857920214E+02  0.00000000000E+00 0. -1.
        -14    1    6    6    0    0 -0.13782642723E+02 -0.55186472062E+02  0.19256772577E+03  0.20079302017E+03  0.00000000000E+00 0.  1.
</event>
<event>
12    1  0.8331241E-002  0.2316979E+03  0.7818608E-02  0.1125560E+00
         21   -1    0    0  501  502  0.00000000000E+00  0.00000000000E+00  0.22814087009E+03  0.22814087009E+03  0.00000000000E+00 0. -1.
         21   -1    0    0  502  503 -0.00000000000E+00 -0.00000000000E+00 -0.24294328846E+03  0.24294328846E+03  0.00000000000E+00 0. -1.
         -6    2    1    2    0  503 -0.13648807418E+03 -0.73538309819E+02 -0.50872483242E+02  0.23721706341E+03  0.17218318215E+03 0.  0.
        -24    2    3    3    0    0 -0.25751498704E+02 -0.21695886544E+02  0.28737674316E+02  0.91237293624E+02  0.79778058664E+02 0.  0.
          6    2    1    2  501    0  0.13648807418E+03  0.73538309819E+02  0.36070064866E+02  0.23386709514E+03  0.17133560986E+03 0.  0.
         24    2    5    5    0    0  0.21220931296E+02 -0.19277046830E+01  0.47339259442E+02  0.95553255200E+02  0.80220789851E+02 0.  0.
          5    1    5    5  501    0  0.11526714288E+03  0.75466014502E+02 -0.11269194576E+02  0.13831383994E+03  0.47000000000E+01 0. -1.
        -11    1    6    6    0    0  0.29393338247E+02 -0.30315255094E+02  0.30752174557E+01  0.42337217517E+02  0.00000000000E+00 0.  1.
         12    1    6    6    0    0 -0.81724069505E+01  0.28387550411E+02  0.44264041986E+02  0.53216037683E+02  0.00000000000E+00 0. -1.
         -5    1    3    3    0  503 -0.11073657548E+03 -0.51842423275E+02 -0.79610157558E+02  0.14597976978E+03  0.47000000000E+01 0.  1.
         11    1    4    4    0    0 -0.42866024571E+02 -0.28388457335E+02 -0.61751168199E+01  0.51783517070E+02  0.00000000000E+00 0. -1.
        -12    1    4    4    0    0  0.17114525867E+02  0.66925707912E+01  0.34912791136E+02  0.39453776554E+02  0.00000000000E+00 0.  1.
</event>
<event>
12    1  0.8331241E-002  0.1856091E+03  0.7818608E-02  0.1162655E+00
         21   -1    0    0  501  502  0.00000000000E+00  0.00000000000E+00  0.30513999725E+02  0.30513999725E+02  0.00000000000E+00 0. -1.
         21   -1    0    0  502  503 -0.00000000000E+00 -0.00000000000E+00 -0.11253878327E+04  0.11253878327E+04  0.00000000000E+00 0. -1.
         -6    2    1    2    0  503 -0.40268415625E+02  0.41248290955E+02 -0.53228359264E+03  0.56371673586E+03  0.17643063365E+03 0.  0.
        -24    2    3    3    0    0 -0.74674337228E+02  0.82355109449E+01 -0.20403927828E+03  0.23199391332E+03  0.80901597350E+02 0.  0.
          6    2    1    2  501    0  0.40268415625E+02 -0.41248290955E+02 -0.56259024034E+03  0.59218509657E+03  0.17564863584E+03 0.  0.
         24    2    5    5    0    0  0.31367927338E+02  0.10833625101E+02 -0.51179510944E+03  0.51874137666E+03  0.77827164349E+02 0.  0.
          5    1    5    5  501    0  0.89004882867E+01 -0.52081916056E+02 -0.50795130899E+02  0.73443719914E+02  0.47000000000E+01 0. -1.
        -13    1    6    6    0    0  0.38690687086E+02 -0.25685204184E+02 -0.32134740240E+03  0.32468577426E+03  0.00000000000E+00 0.  1.
         14    1    6    6    0    0 -0.73227597476E+01  0.36518829285E+02 -0.19044770705E+03  0.19405560240E+03  0.00000000000E+00 0. -1.
         -5    1    3    3    0  503  0.34405921603E+02  0.33012780010E+02 -0.32824431436E+03  0.33172282254E+03  0.47000000000E+01 0.  1.
         13    1    4    4    0    0 -0.88458477266E+02  0.92827164125E+00 -0.19458896390E+03  0.21375366374E+03  0.00000000000E+00 0. -1.
        -14    1    4    4    0    0  0.13784140038E+02  0.73072393036E+01 -0.94503143753E+01  0.18240249577E+02  0.00000000000E+00 0.  1.
</event>
<event>
12    1  0.8331241E-002  0.2947496E+03  0.7818608E-02  0.1087935E+00
         21   -1    0    0  501  502  0.00000000000E+00  0.00000000000E+00  0.12557227339E+03  0.12557227339E+03  0.00000000000E+00 0.  1.
         21   -1    0    0  502  503 -0.00000000000E+00 -0.00000000000E+00 -0.88970802742E+03  0.88970802742E+03  0.00000000000E+00 0. -1.
         -6    2    1    2    0  503  0.10155138493E+03  0.21682477247E+03 -0.62206439523E+03  0.68836141516E+03  0.17190596361E+03 0.  0.
        -24    2    3    3    0    0  0.87554284866E+02  0.17283688605E+03 -0.60687017844E+03  0.63953716723E+03  0.56374043724E+02 0.  0.
          6    2    1    2  501    0 -0.10155138493E+03 -0.21682477247E+03 -0.14207135880E+03  0.32691888566E+03  0.17136516878E+03 0.  0.
         24    2    5    5    0    0 -0.43157448304E+02 -0.20865117048E+03 -0.14349594201E+03  0.26775150409E+03  0.75510967973E+02 0.  0.
          5    1    5    5  501    0 -0.58393936622E+02 -0.81736019885E+01  0.14245832106E+01  0.59167381563E+02  0.47000000000E+01 0. -1.
        -13    1    6    6    0    0 -0.50472773835E+02 -0.16405986500E+03 -0.78886108718E+02  0.18890780384E+03  0.00000000000E+00 0.  1.
         14    1    6    6    0    0  0.73153255314E+01 -0.44591305484E+02 -0.64609833292E+02  0.78843700258E+02  0.00000000000E+00 0. -1.
         -5    1    3    3    0  503  0.13997100060E+02  0.43987886423E+02 -0.15194216791E+02  0.48824247930E+02  0.47000000000E+01 0.  1.
         11    1    4    4    0    0  0.49378575869E+02  0.11461561514E+03 -0.30105818151E+03  0.32590030937E+03  0.00000000000E+00 0. -1.
        -12    1    4    4    0    0  0.38175708997E+02  0.58221270907E+02 -0.30581199693E+03  0.31363685786E+03  0.00000000000E+00 0.  1.
</event>
<event>
12    1  0.8331241E-002  0.2581912E+03  0.7818608E-02  0.1108412E+00
         21   -1    0    0  501  502  0.00000000000E+00  0.00000000000E+00  0.93634747120E+02  0.93634747120E+02  0.00000000000E+00 0.  1.
         21   -1    0    0  502  503 -0.00000000000E+00 -0.00000000000E+00 -0.83940154745E+03  0.83940154745E+03  0.00000000000E+00 0. -1.
         -6    2    1    2    0  503 -0.16427637188E+03  0.96757053542E+02 -0.55623072561E+03  0.61274485085E+03  0.17238033055E+03 0.  0.
        -24    2    3    3    0    0 -0.18455179341E+03  0.58040664758E+02 -0.41047333818E+03  0.46050373462E+03  0.78404368699E+02 0.  0.
          6    2    1    2  501    0  0.16427637188E+03 -0.96757053542E+02 -0.18953607472E+03  0.32029144372E+03  0.17410925171E+03 0.  0.
         24    2    5    5    0    0  0.13917940437E+03 -0.67690987243E+02 -0.21217033309E+03  0.27546852948E+03  0.83148566654E+02 0.  0.
          5    1    5    5  501    0  0.25096967512E+02 -0.29066066299E+02  0.22634258373E+02  0.44822914235E+02  0.47000000000E+01 0. -1.
        -11    1    6    6    0    0  0.43812491674E+02 -0.24783082780E+02 -0.15406208199E+02  0.52641113873E+02  0.00000000000E+00 0.  1.
         12    1    6    6    0    0  0.95366912696E+02 -0.42907904463E+02 -0.19676412489E+03  0.22282741561E+03  0.00000000000E+00 0. -1.
         -5    1    3    3    0  503  0.20275421529E+02  0.38716388784E+02 -0.14575738743E+03  0.15224111623E+03  0.47000000000E+01 0.  1.
         13    1    4    4    0    0 -0.15508555691E+03  0.15251616922E+02 -0.28776969526E+03  0.32725454816E+03  0.00000000000E+00 0. -1.
        -14    1    4    4    0    0 -0.29466236501E+02  0.42789047837E+02 -0.12270364292E+03  0.13324918647E+03  0.00000000000E+00 0.  1.
</event>
<event>
12    1  0.8331241E-002  0.1880044E+03  0.7818608E-02  0.1160354E+00
         21   -1    0    0  501  502  0.00000000000E+00  0.00000000000E+00  0.28045764986E+03  0.28045764986E+03  0.00000000000E+00 0. -1.
         21   -1    0    0  502  503 -0.00000000000E+00 -0.00000000000E+00 -0.24845257002E+03  0.24845257002E+03  0.00000000000E+00 0.  1.
         -6    2    1    2    0  503 -0.46279213980E+02 -0.61687380599E+02 -0.16981877430E+03  0.25308688251E+03  0.17107733755E+03 0.  0.
        -24    2    3    3    0    0 -0.35024325434E+02  0.11823780781E+02 -0.14776036385E+03  0.17537441997E+03  0.86928458454E+02 0.  0.
          6    2    1    2  501    0  0.46279213980E+02  0.61687380599E+02  0.20182385414E+03  0.27582333737E+03  0.17146004423E+03 0.  0.
         24    2    5    5    0    0 -0.23842207715E+01 -0.25885109906E+02  0.67924732811E+02  0.10852678729E+03  0.80551665468E+02 0.  0.
          5    1    5    5  501    0  0.48663434752E+02  0.87572490505E+02  0.13389912133E+03  0.16729655008E+03  0.47000000000E+01 0. -1.
        -11    1    6    6    0    0 -0.20624129087E+02 -0.42881863078E-01 -0.11089471065E+02  0.23416509303E+02  0.00000000000E+00 0.  1.
         12    1    6    6    0    0  0.18239908315E+02 -0.25842228043E+02  0.79014203876E+02  0.85110277991E+02  0.00000000000E+00 0. -1.
         -5    1    3    3    0  503 -0.11254888547E+02 -0.73511161380E+02 -0.22058410447E+02  0.77712462547E+02  0.47000000000E+01 0.  1.
         13    1    4    4    0    0 -0.21483283333E+02  0.46626457155E+02 -0.54285723642E+02  0.74716114466E+02  0.00000000000E+00 0. -1.
        -14    1    4    4    0    0 -0.13541042100E+02 -0.34802676374E+02 -0.93474640208E+02  0.10065830550E+03  0.00000000000E+00 0.  1.
</event>
<event>
12    1  0.8331241E-002  0.3801571E+03  0.7818608E-02  0.1050897E+00
         21   -1    0    0  503  502  0.00000000000E+00  0.00000000000E+00  0.84455039622E+03  0.84455039622E+03  0.00000000000E+00 0.  1.
         21   -1    0    0  501  503 -0.00000000000E+00 -0.00000000000E+00 -0.17217799565E+03  0.17217799565E+03  0.00000000000E+00 0. -1.
          6    2    1    2  501    0  0.17901615806E+03  0.28794458889E+03  0.29433154416E+03  0.48059935986E+03  0.17142291472E+03 0.  0.
         24    2    3    3    0    0  0.18446260359E+03  0.30261988196E+03  0.28330104051E+03  0.46088160121E+03  0.80914310857E+02 0.  0.
         -6    2    1    2    0  502 -0.17901615806E+03 -0.28794458889E+03  0.37804085641E+03  0.53612903201E+03  0.17193190144E+03 0.  0.
        -24    2    5    5    0    0 -0.80339402665E+02 -0.22597218661E+03  0.19432863613E+03  0.31852859410E+03  0.78606600858E+02 0.  0.
          5    1    3    3  501    0 -0.54464455320E+01 -0.14675293063E+02  0.11030503652E+02  0.19717758651E+02  0.47000000000E+01 0. -1.
        -13    1    4    4    0    0  0.55449714456E+02  0.74306307195E+02  0.12115075952E+03  0.15255688989E+03  0.00000000000E+00 0.  1.
         14    1    4    4    0    0  0.12901288913E+03  0.22831357476E+03  0.16215028099E+03  0.30832471132E+03  0.00000000000E+00 0. -1.
         -5    1    5    5    0  502 -0.98676755394E+02 -0.61972402286E+02  0.18371222028E+03  0.21760043791E+03  0.47000000000E+01 0.  1.
         13    1    6    6    0    0  0.11778512567E+02 -0.26410312290E+02  0.70474051082E+01  0.29764137352E+02  0.00000000000E+00 0. -1.
        -14    1    6    6    0    0 -0.92117915232E+02 -0.19956187432E+03  0.18728123102E+03  0.28876445675E+03  0.00000000000E+00 0.  1.
</event>
<event>
12    1  0.8331241E-002  0.2941908E+03  0.7818608E-02  0.1088336E+00
         21   -1    0    0  501  502  0.00000000000E+00  0.00000000000E+00  0.15809032757E+04  0.15809032757E+04  0.00000000000E+00 0. -1.
         21   -1    0    0  502  503 -0.00000000000E+00 -0.00000000000E+00 -0.61434099047E+02  0.61434099047E+02  0.00000000000E+00 0.  1.
         -6    2    1    2    0  503 -0.76057104037E+02 -0.22660292408E+03  0.48567834734E+03  0.56783069617E+03  0.17150706740E+03 0.  0.
        -24    2    3    3    0    0  0.17789909348E+02 -0.74749578191E+02  0.23940892358E+03  0.26363105834E+03  0.79251005784E+02 0.  0.
          6    2    1    2  501    0  0.76057104037E+02  0.22660292408E+03  0.10337908293E+04  0.10745066786E+04  0.16943304060E+03 0.  0.
         24    2    5    5    0    0  0.57498002762E+02  0.55283788724E+02  0.28275721360E+03  0.30394307425E+03  0.77893728387E+02 0.  0.
          5    1    5    5  501    0  0.18559101275E+02  0.17131913536E+03  0.75103361574E+03  0.77056360435E+03  0.47000000000E+01 0. -1.
        -13    1    6    6    0    0  0.32314227977E+02 -0.13150542016E+02  0.13114143376E+03  0.13570269612E+03  0.00000000000E+00 0.  1.
         14    1    6    6    0    0  0.25183774785E+02  0.68434330740E+02  0.15161577984E+03  0.16824037813E+03  0.00000000000E+00 0. -1.
         -5    1    3    3    0  503 -0.93847013385E+02 -0.15185334589E+03  0.24626942376E+03  0.30419963783E+03  0.47000000000E+01 0.  1.
         11    1    4    4    0    0  0.37714328037E+02 -0.53952249223E+01  0.88809359550E+02  0.96636335480E+02  0.00000000000E+00 0. -1.
        -12    1    4    4    0    0 -0.19924418689E+02 -0.69354353269E+02  0.15059956403E+03  0.16699472286E+03  0.00000000000E+00 0.  1.
</event>
<event>
12    1  0.8331241E-002  0.1824657E+03  0.7818608E-02  0.1165671E+00
         21   -1    0    0  503  502  0.00000000000E+00  0.00000000000E+00  0.10988089481E+03  0.10988089481E+03  0.00000000000E+00 0. -1.
         21   -1    0    0  501  503 -0.00000000000E+00 -0.00000000000E+00 -0.86453139544E+03  0.86453139544E+03  0.00000000000E+00 0. -1.
          6    2    1    2  501    0 -0.46124398283E+02 -0.38713285180E+02 -0.77089974944E+03  0.79219957847E+03  0.17224276436E+03 0.  0.
         24    2    3    3    0    0 -0.40189913765E+02  0.24103762263E+02 -0.21335077646E+03  0.23107201113E+03  0.75362457419E+02 0.  0.
         -6    2    1    2    0  502  0.46124398283E+02  0.38713285180E+02  0.16249248812E+02  0.18221271178E+03  0.17120530273E+03 0.  0.
        -24    2    5    5    0    0  0.57365995841E+02 -0.18931977744E+02  0.50909344103E+02  0.11385510753E+03  0.81987480350E+02 0.  0.
          5    1    3    3  501    0 -0.59344845174E+01 -0.62817047443E+02 -0.55754897298E+03  0.56112756734E+03  0.47000000000E+01 0. -1.
        -11    1    4    4    0    0 -0.36987986113E+02 -0.17744338482E+02 -0.64699917275E+02  0.76609738025E+02  0.00000000000E+00 0.  1.
         12    1    4    4    0    0 -0.32019276521E+01  0.41848100744E+02 -0.14865085918E+03  0.15446227310E+03  0.00000000000E+00 0. -1.
         -5    1    5    5    0  502 -0.11241597558E+02  0.57645262924E+02 -0.34660095291E+02  0.68357604250E+02  0.47000000000E+01 0.  1.
         13    1    6    6    0    0  0.20498264241E+02  0.31562320722E+02  0.29332597279E+02  0.47715408302E+02  0.00000000000E+00 0. -1.
        -14    1    6    6    0    0  0.36867731600E+02 -0.50494298466E+02  0.21576746824E+02  0.66139699231E+02  0.00000000000E+00 0.  1.
</event>
<event>
12    1  0.8331241E-002  0.2533676E+03  0.7818608E-02  0.1111351E+00
         21   -1    0    0  503  502  0.00000000000E+00  0.00000000000E+00  0.50658567558E+03  0.50658567558E+03  0.00000000000E+00 0. -1.
         21   -1    0    0  501  503 -0.00000000000E+00 -0.00000000000E+00 -0.23361148314E+03  0.23361148314E+03  0.00000000000E+00 0.  1.
          6    2    1    2  501    0 -0.17370481606E+03  0.60396456914E+02 -0.11429875001E+03  0.27795563085E+03  0.17428147732E+03 0.  0.
         24    2    3    3    0    0 -0.17394037121E+03  0.79928718328E+02 -0.53779219273E+02  0.21418833263E+03  0.79627788233E+02 0.  0.
         -6    2    1    2    0  502  0.17370481606E+03 -0.60396456914E+02  0.38727294245E+03  0.46224152788E+03  0.17281725323E+03 0.  0.
        -24    2    5    5    0    0  0.90345248402E+02  0.25768754369E+02  0.25693657307E+03  0.28508927602E+03  0.80207232291E+02 0.  0.
          5    1    3    3  501    0  0.23555515005E+00 -0.19532261414E+02 -0.60519530734E+02  0.63767298222E+02  0.47000000000E+01 0. -1.
        -11    1    4    4    0    0 -0.54153612657E+02  0.62116384454E+02 -0.42054220307E+02  0.92518195113E+02  0.00000000000E+00 0.  1.
         12    1    4    4    0    0 -0.11978675855E+03  0.17812333874E+02 -0.11724998967E+02  0.12167013751E+03  0.00000000000E+00 0. -1.
         -5    1    5    5    0  502  0.83359567655E+02 -0.86165211283E+02  0.13033636938E+03  0.17715225186E+03  0.47000000000E+01 0.  1.
         11    1    6    6    0    0  0.18369680712E+02 -0.24568726233E+02  0.10710746604E+03  0.11141398817E+03  0.00000000000E+00 0. -1.
        -12    1    6    6    0    0  0.71975567690E+02  0.50337480602E+02  0.14982910703E+03  0.17367528785E+03  0.00000000000E+00 0.  1.
</event>
<event>
12    1  0.8331241E-002  0.3145376E+03  0.7818608E-02  0.1078242E+00
         21   -1    0    0  501  502  0.00000000000E+00  0.00000000000E+00  0.24435389311E+03  0.24435389311E+03  0.00000000000E+00 0. -1.
         21   -1    0    0  502  503 -0.00000000000E+00 -0.00000000000E+00 -0.40434788850E+03  0.40434788850E+03  0.00000000000E+00 0.  1.
         -6    2    1    2    0  503 -0.20954646678E+03 -0.16047398803E+03 -0.77639029146E+02  0.32356147744E+03  0.17030146291E+03 0.  0.
        -24    2    3    3    0    0 -0.14626585539E+03 -0.81678830254E+02 -0.11208706943E+03  0.21668832766E+03  0.79531053335E+02 0.  0.
          6    2    1    2  501    0  0.20954646678E+03  0.16047398803E+03 -0.82354966243E+02  0.32514030417E+03  0.17109136261E+03 0.  0.
         24    2    5    5    0    0  0.22729685508E+02  0.56086570798E+02 -0.37230516398E+02  0.10638119324E+03  0.79173890252E+02 0.  0.
          5    1    5    5  501    0  0.18681678127E+03  0.10438741723E+03 -0.45124449845E+02  0.21875911093E+03  0.47000000000E+01 0. -1.
        -13    1    6    6    0    0  0.50869674900E+02  0.41239125010E+02 -0.35566625957E+02  0.74520964419E+02  0.00000000000E+00 0.  1.
         14    1    6    6    0    0 -0.28139989391E+02  0.14847445788E+02 -0.16638904411E+01  0.31860228825E+02  0.00000000000E+00 0. -1.
         -5    1    3    3    0  503 -0.63280611382E+02 -0.78795157775E+02  0.34448040285E+02  0.10687314979E+03  0.47000000000E+01 0.  1.
         11    1    4    4    0    0  0.83358409704E+01 -0.12409662496E+02 -0.31570581990E+01  0.15279168316E+02  0.00000000000E+00 0. -1.
        -12    1    4    4    0    0 -0.15460169636E+03 -0.69269167757E+02 -0.10893001123E+03  0.20140915934E+03  0.00000000000E+00 0.  1.
</event>
<event>
12    1  0.8331241E-002  0.3005515E+03  0.7818608E-02  0.1085057E+00
         21   -1    0    0  501  502  0.00000000000E+00  0.00000000000E+00  0.27433866907E+03  0.27433866907E+03  0.00000000000E+00 0. -1.
         21   -1    0    0  502  503 -0.00000000000E+00 -0.00000000000E+00 -0.45686024677E+03  0.45686024677E+03  0.00000000000E+00 0. -1.
         -6    2    1    2    0  503  0.71486744963E+01  0.24558405626E+03 -0.28516074522E+03  0.41430407474E+03  0.17311436535E+03 0.  0.
        -24    2    3    3    0    0  0.55953665940E+02  0.20601343938E+03 -0.17550577329E+03  0.28783643548E+03  0.80468547849E+02 0.  0.
          6    2    1    2  501    0 -0.71486744963E+01 -0.24558405626E+03  0.10263916752E+03  0.31689484110E+03  0.17182813904E+03 0.  0.
         24    2    5    5    0    0  0.35216961648E+02 -0.74012822943E+02  0.69164933193E+02  0.13696666211E+03  0.85193580736E+02 0.  0.
          5    1    5    5  501    0 -0.42365636144E+02 -0.17157123332E+03  0.33474234330E+02  0.17992817899E+03  0.47000000000E+01 0. -1.
        -11    1    6    6    0    0 -0.94541857201E+01 -0.23011689869E+02  0.64356805124E+02  0.68997955506E+02  0.00000000000E+00 0.  1.
         12    1    6    6    0    0  0.44671147368E+02 -0.51001133074E+02  0.48081280683E+01  0.67968706604E+02  0.00000000000E+00 0. -1.
         -5    1    3    3    0  503 -0.48804991444E+02  0.39570616879E+02 -0.10965497193E+03  0.12646763926E+03  0.47000000000E+01 0.  1.
         13    1    4    4    0    0  0.35103198007E+02  0.19005141973E+03 -0.12287791757E+03  0.22902130747E+03  0.00000000000E+00 0. -1.
        -14    1    4    4    0    0  0.20850467933E+02  0.15962019657E+02 -0.52627855724E+02  0.58815128008E+02  0.00000000000E+00 0.  1.
</event>
<event>
12    1  0.8331241E-002  0.2097393E+03  0.7818608E-02  0.1143258E+00
         21   -1    0    0  503  502  0.00000000000E+00  0.00000000000E+00  0.89951249579E+02  0.89951249579E+02  0.00000000000E+00 0. -1.
         21   -1    0    0  501  503 -0.00000000000E+00 -0.00000000000E+00 -0.48542807337E+03  0.48542807337E+03  0.00000000000E+00 0.  1.
          6    2    1    2  501    0  0.27119010445E+02 -0.10473271197E+03 -0.24204660093E+03  0.31551126100E+03  0.17104507332E+03 0.  0.
         24    2    3    3    0    0  0.13568402640E+02  0.13690747439E+02 -0.10054918215E+03  0.13044007406E+03  0.80826584578E+02 0.  0.
         -6    2    1    2    0  502 -0.27119010445E+02  0.10473271197E+03 -0.15343022285E+03  0.25986806195E+03  0.17968359595E+03 0.  0.
        -24    2    5    5    0    0  0.33367595423E+02  0.99315905696E+02 -0.51271517682E+02  0.14092916031E+03  0.79089911829E+02 0.  0.
          5    1    3    3  501    0  0.13550607805E+02 -0.11842345941E+03 -0.14149741878E+03  0.18507118694E+03  0.47000000000E+01 0. -1.
        -13    1    4    4    0    0  0.34029010019E+02  0.10370154614E+02 -0.10355497897E+03  0.10949496472E+03  0.00000000000E+00 0.  1.
         14    1    4    4    0    0 -0.20460607379E+02  0.33205928250E+01  0.30057968151E+01  0.20945109346E+02  0.00000000000E+00 0. -1.
         -5    1    5    5    0  502 -0.60486605867E+02  0.54168062769E+01 -0.10215870517E+03  0.11893890164E+03  0.47000000000E+01 0.  1.
         11    1    6    6    0    0  0.22416103642E+02  0.80418761133E+01  0.14511615552E+02  0.27887998491E+02  0.00000000000E+00 0. -1.
        -12    1    6    6    0    0  0.10951491781E+02  0.91274029582E+02 -0.65783133233E+02  0.11304116182E+03  0.00000000000E+00 0.  1.
</event>
<event>
12    1  0.8331241E-002  0.2861136E+03  0.7818608E-02  0.1092444E+00
         21   -1    0    0  503  502  0.00000000000E+00  0.00000000000E+00  0.15214828553E+03  0.15214828553E+03  0.00000000000E+00 0.  1.
         21   -1    0    0  501  503 -0.00000000000E+00 -0.00000000000E+00 -0.88644999074E+03  0.88644999074E+03  0.00000000000E+00 0.  1.
          6    2    1    2  501    0 -0.18963784152E+03 -0.12720222532E+03 -0.69317922010E+03  0.74990560441E+03  0.17238928992E+03 0.  0.
         24    2    3    3    0    0 -0.14798419306E+03 -0.10267118011E+03 -0.33891476407E+03  0.39232737042E+03  0.81344057317E+02 0.  0.
         -6    2    1    2    0  502  0.18963784152E+03  0.12720222532E+03 -0.41122485114E+02  0.28869267186E+03  0.17178324407E+03 0.  0.
        -24    2    5    5    0    0  0.16026281710E+03  0.15022046836E+03  0.13419800515E+00  0.23286315033E+03  0.77297277535E+02 0.  0.
          5    1    3    3  501    0 -0.41653648463E+02 -0.24531045204E+02 -0.35426445604E+03  0.35757823399E+03  0.47000000000E+01 0. -1.
        -13    1    4    4    0    0 -0.50664526023E+02 -0.52193100950E+02 -0.21451916958E+03  0.22651597758E+03  0.00000000000E+00 0.  1.
         14    1    4    4    0    0 -0.97319667035E+02 -0.50478079162E+02 -0.12439559449E+03  0.16581139284E+03  0.00000000000E+00 0. -1.
         -5    1    5    5    0  502  0.29375024421E+02 -0.23018243041E+02 -0.41256683119E+02  0.55829521531E+02  0.47000000000E+01 0.  1.
         13    1    6    6    0    0  0.20123195760E+02 -0.69926303369E+01  0.61413314740E+01  0.22171058587E+02  0.00000000000E+00 0. -1.
        -14    1    6    6    0    0  0.14013962134E+03  0.15721309869E+03 -0.60071334688E+01  0.21069209174E+03  0.00000000000E+00 0.  1.
</event>
<event>
12    1  0.8331241E-002  0.1783665E+03  0.7818608E-02  0.1169422E+00
         21   -1    0    0  503  502  0.00000000000E+00  0.00000000000E+00  0.72592321561E+02  0.72592321561E+02  0.00000000000E+00 0. -1.
         21   -1    0    0  501  503 -0.00000000000E+00 -0.00000000000E+00 -0.63830116364E+03  0.63830116364E+03  0.00000000000E+00 0. -1.
          6    2    1    2  501    0 -0.29231504204E+02 -0.33922019115E+02 -0.48204615450E+03  0.51398745019E+03  0.17265404621E+03 0.  0.
         24    2    3    3    0    0 -0.78613279198E+02  0.80303594710E+01 -0.31386169544E+03  0.33369140465E+03  0.81217333948E+02 0.  0.
         -6    2    1    2    0  502  0.29231504204E+02  0.33922019115E+02 -0.83662687578E+02  0.19690603500E+03  0.17253219151E+03 0.  0.
        -24    2    5    5    0    0 -0.42379665108E+01  0.83956958027E+02 -0.37377401663E+02  0.12082635129E+03  0.78327554852E+02 0.  0.
          5    1    3    3  501    0  0.49381774994E+02 -0.41952378586E+02 -0.16818445906E+03  0.18029604554E+03  0.47000000000E+01 0. -1.
        -13    1    4    4    0    0 -0.66280147764E+01 -0.14371332030E+02 -0.63156919631E+01  0.17039769047E+02  0.00000000000E+00 0.  1.
         14    1    4    4    0    0 -0.71985264421E+02  0.22401691501E+02 -0.30754600348E+03  0.31665163560E+03  0.00000000000E+00 0. -1.
         -5    1    5    5    0  502  0.33469470715E+02 -0.50034938912E+02 -0.46285285915E+02  0.76079683714E+02  0.47000000000E+01 0.  1.
         11    1    6    6    0    0 -0.33355690792E+02  0.22788209904E+02 -0.34327674705E+02  0.53012204911E+02  0.00000000000E+00 0. -1.
        -12    1    6    6    0    0  0.29117724282E+02  0.61168748124E+02 -0.30497269584E+01  0.67814146378E+02  0.00000000000E+00 0.  1.
</event>
<event>
12    1  0.8331241E-002  0.2221668E+03  0.7818608E-02  0.1132578E+00
         21   -1    0    0  501  502  0.00000000000E+00  0.00000000000E+00  0.53689664611E+03  0.53689664611E+03  0.00000000000E+00 0.  1.
         21   -1    0    0  502  503 -0.00000000000E+00 -0.00000000000E+00 -0.17995331176E+03  0.17995331176E+03  0.00000000000E+00 0.  1.
         -6    2    1    2    0  503 -0.88851021786E+02 -0.10829867739E+03 -0.73488785949E+02  0.23246383879E+03  0.17034003372E+03 0.  0.
        -24    2    3    3    0    0 -0.16199264722E+02 -0.82838553219E+02 -0.97588635239E+02  0.15165920735E+03  0.79701514218E+02 0.  0.
          6    2    1    2  501    0  0.88851021786E+02  0.10829867739E+03  0.43043212029E+03  0.48438611908E+03  0.17243837908E+03 0.  0.
         24    2    5    5    0    0  0.10876869554E+03  0.69059198785E+02  0.20918875237E+03  0.25875994980E+03  0.81221767039E+02 0.  0.
          5    1    5    5  501    0 -0.19917673752E+02  0.39239478610E+02  0.22124336793E+03  0.22562616927E+03  0.47000000000E+01 0. -1.
        -13    1    6    6    0    0  0.97203499420E+01  0.49463247150E+02  0.83532265317E+02  0.97564016782E+02  0.00000000000E+00 0.  1.
         14    1    6    6    0    0  0.99048345596E+02  0.19595951635E+02  0.12565648705E+03  0.16119593302E+03  0.00000000000E+00 0. -1.
         -5    1    3    3    0  503 -0.72651757063E+02 -0.25460124176E+02  0.24099849289E+02  0.80804631447E+02  0.47000000000E+01 0.  1.
         11    1    4    4    0    0  0.27605213592E+02 -0.61255995862E+02 -0.59081121411E+02  0.89470239486E+02  0.00000000000E+00 0. -1.
        -12    1    4    4    0    0 -0.43804478315E+02 -0.21582557357E+02 -0.38507513828E+02  0.62188967862E+02  0.00000000000E+00 0.  1.
</event>
<event>
12    1  0.8331241E-002  0.1875023E+03  0.7818608E-02  0.1160902E+00
         21   -1    0    0  503  502  0.00000000000E+00  0.00000000000E+00  0.58940034544E+03  0.58940034544E+03  0.00000000000E+00 0. -1.
         21   -1    0    0  501  503 -0.00000000000E+00 -0.00000000000E+00 -0.60124494665E+02  0.60124494665E+02  0.00000000000E+00 0. -1.
          6    2    1    2  501    0 -0.58057134516E+02  0.47984457281E+02  0.22886139395E+03  0.29539782068E+03  0.17090698001E+03 0.  0.
         24    2    3    3    0    0  0.29611911287E+01  0.57744423705E+02  0.20366935528E+03  0.22850072193E+03  0.85954560797E+02 0.  0.
         -6    2    1    2    0  502  0.58057134516E+02 -0.47984457281E+02  0.30041445683E+03  0.35412701942E+03  0.17170894270E+03 0.  0.
        -24    2    5    5    0    0  0.49129305526E+02  0.23092020258E+02  0.97592283880E+02  0.13897475792E+03  0.82721214961E+02 0.  0.
          5    1    3    3  501    0 -0.61018325645E+02 -0.97599664239E+01  0.25192038666E+02  0.66897098750E+02  0.47000000000E+01 0. -1.
        -11    1    4    4    0    0 -0.32601062620E+02  0.53654080585E+02  0.16097859724E+03  0.17278801584E+03  0.00000000000E+00 0.  1.
         12    1    4    4    0    0  0.35562253748E+02  0.40903431198E+01  0.42690758037E+02  0.55712706094E+02  0.00000000000E+00 0. -1.
         -5    1    5    5    0  502  0.89278289896E+01 -0.71076477539E+02  0.20282217295E+03  0.21515226150E+03  0.47000000000E+01 0.  1.
         13    1    6    6    0    0  0.58540793687E+02  0.29635977919E+01  0.26200375723E+02  0.64204883968E+02  0.00000000000E+00 0. -1.
        -14    1    6    6    0    0 -0.94114881601E+01  0.20128422466E+02  0.71391908157E+02  0.74769873951E+02  0.00000000000E+00 0.  1.
</event>
<event>
12    1  0.8331241E-002  0.5659551E+03  0.7818608E-02  0.9978675E-01
         21   -1    0    0  503  502  0.00000000000E+00  0.00000000000E+00  0.35893228427E+03  0.35893228427E+03  0.00000000000E+00 0.  1.
         21   -1    0    0  501  503 -0.00000000000E+00 -0.00000000000E+00 -0.20110321765E+04  0.20110321765E+04  0.00000000000E+00 0.  1.
          6    2    1    2  501    0 -0.52951176899E+03 -0.10265182128E+03 -0.17098433304E+04  0.18010712784E+04  0.17138677151E+03 0.  0.
         24    2    3    3    0    0 -0.52502233266E+03 -0.10275163531E+03 -0.15584846999E+04  0.16495731265E+04  0.77528004642E+02 0.  0.
         -6    2    1    2    0  502  0.52951176899E+03  0.10265182128E+03  0.57743438134E+02  0.56889318241E+03  0.17142064764E+03 0.  0.
        -24    2    5    5    0    0  0.23007276770E+03  0.49081505039E+02 -0.38017982278E+02  0.24994830643E+03  0.75407667625E+02 0.  0.
          5    1    3    3  501    0 -0.44894363321E+01  0.99814030183E-01 -0.15135863051E+03  0.15149815191E+03  0.47000000000E+01 0. -1.
        -13    1    4    4    0    0 -0.28432265497E+03 -0.24938558487E+02 -0.75176472008E+03  0.80412156928E+03  0.00000000000E+00 0.  1.
         14    1    4    4    0    0 -0.24069967770E+03 -0.77813076824E+02 -0.80671997978E+03  0.84545155718E+03  0.00000000000E+00 0. -1.
         -5    1    5    5    0  502  0.29943900129E+03  0.53570316242E+02  0.95761420412E+02  0.31894487598E+03  0.47000000000E+01 0.  1.
         11    1    6    6    0    0  0.27155671795E+02 -0.16628212054E+02 -0.15671384848E+02  0.35489720339E+02  0.00000000000E+00 0. -1.
        -12    1    6    6    0    0  0.20291709591E+03  0.65709717093E+02 -0.22346597430E+02  0.21445858609E+03  0.00000000000E+00 0.  1.
</event>
<event>
12    1  0.8331241E-002  0.3005626E+03  0.7818608E-02  0.1085061E+00
         21   -1    0    0  501  502  0.00000000000E+00  0.00000000000E+00  0.49250776125E+03  0.49250776125E+03  0.00000000000E+00 0. -1.
         21   -1    0    0  502  503 -0.00000000000E+00 -0.00000000000E+00 -0.34946532646E+03  0.34946532646E+03  0.00000000000E+00 0.  1.
         -6    2    1    2    0  503 -0.14006775061E+03 -0.20263157532E+03 -0.21914581283E+03  0.37131586267E+03  0.17079828019E+03 0.  0.
        -24    2    3    3    0    0 -0.37731335396E+02 -0.10162755613E+03 -0.67999033013E+02  0.16264868073E+03  0.10039377978E+03 0.  0.
          6    2    1    2  501    0  0.14006775061E+03  0.20263157532E+03  0.36218824762E+03  0.47065722503E+03  0.17221894984E+03 0.  0.
         24    2    5    5    0    0  0.14442442270E+03  0.22376735435E+03  0.33736294065E+03  0.43742941118E+03  0.81243420048E+02 0.  0.
          5    1    5    5  501    0 -0.43566720853E+01 -0.21135779032E+02  0.24825306969E+02  0.33227813847E+02  0.47000000000E+01 0. -1.
        -11    1    6    6    0    0  0.27097522945E+02  0.44755405262E+02  0.23073981370E+02  0.57181558794E+02  0.00000000000E+00 0.  1.
         12    1    6    6    0    0  0.11732689975E+03  0.17901194909E+03  0.31428895928E+03  0.38024785239E+03  0.00000000000E+00 0. -1.
         -5    1    3    3    0  503 -0.10233641522E+03 -0.10100401919E+03 -0.15114677981E+03  0.20866718194E+03  0.47000000000E+01 0.  1.
         13    1    4    4    0    0 -0.83007082577E+01 -0.54343436401E+02  0.20005726930E+02  0.58500768776E+02  0.00000000000E+00 0. -1.
        -14    1    4    4    0    0 -0.29430627138E+02 -0.47284119724E+02 -0.88004759943E+02  0.10414791195E+03  0.00000000000E+00 0.  1.
</event>
<event>
12    1  0.8331241E-002  0.1841328E+03  0.7818608E-02  0.1164440E+00
         21   -1    0    0  503  502  0.00000000000E+00  0.00000000000E+00  0.33657482659E+03  0.33657482659E+03  0.00000000000E+00 0. -1.
         21   -1    0    0  501  503 -0.00000000000E+00 -0.00000000000E+00 -0.63123733906E+03  0.63123733906E+03  0.00000000000E+00 0. -1.
          6    2    1    2  501    0  0.40187920473E+02  0.42076675573E+02 -0.59165842743E+03  0.61964876358E+03  0.17469796757E+03 0.  0.
         24    2    3    3    0    0  0.54557948665E+02  0.93005941850E+01 -0.16519559464E+03  0.19166113879E+03  0.79883269950E+02 0.  0.
         -6    2    1    2    0  502 -0.40187920473E+02 -0.42076675573E+02  0.29699591497E+03  0.34816340206E+03  0.17212107788E+03 0.  0.
        -24    2    5    5    0    0 -0.53257638655E+02 -0.83024175225E+02  0.26707170678E+03  0.29557953100E+03  0.79439113993E+02 0.  0.
          5    1    3    3  501    0 -0.14370028192E+02  0.32776081388E+02 -0.42646283280E+03  0.42798762479E+03  0.47000000000E+01 0. -1.
        -13    1    4    4    0    0  0.72869961608E+02 -0.59972219838E+01 -0.12973433999E+03  0.14891943107E+03  0.00000000000E+00 0.  1.
         14    1    4    4    0    0 -0.18312012943E+02  0.15297816169E+02 -0.35461254648E+02  0.42741707719E+02  0.00000000000E+00 0. -1.
         -5    1    5    5    0  502  0.13069718182E+02  0.40947499652E+02  0.29924208184E+02  0.52583871069E+02  0.47000000000E+01 0.  1.
         13    1    6    6    0    0 -0.21750524605E+02 -0.81791712032E+02  0.13144211535E+03  0.15633297530E+03  0.00000000000E+00 0. -1.
        -14    1    6    6    0    0 -0.31507114050E+02 -0.12324631927E+01  0.13562959143E+03  0.13924655569E+03  0.00000000000E+00 0.  1.
</event>
<event>
12    1  0.8331241E-002  0.2364927E+03  0.7818608E-02  0.1122303E+00
         21   -1    0    0  501  502  0.00000000000E+00  0.00000000000E+00  0.80425896405E+02  0.80425896405E+02  0.00000000000E+00 0.  1.
         21   -1    0    0  502  503 -0.00000000000E+00 -0.00000000000E+00 -0.11792785948E+04  0.11792785948E+04  0.00000000000E+00 0.  1.
         -6    2    1    2    0  503 -0.10021126841E+03 -0.12734664635E+03 -0.14427966261E+03  0.27627251176E+03  0.17102752134E+03 0.  0.
        -24    2    3    3    0    0 -0.41496615999E+02  0.55940065018E+01 -0.57777100682E+02  0.10708205455E+03  0.79844292195E+02 0.  0.
          6    2    1    2  501    0  0.10021126841E+03  0.12734664635E+03 -0.95457303574E+03  0.98343197940E+03  0.17224781825E+03 0.  0.
         24    2    5    5    0    0 -0.23285746369E+01  0.98295889354E+02 -0.42414590111E+03  0.44238355177E+03  0.78332351686E+02 0.  0.
          5    1    5    5  501    0  0.10253984305E+03  0.29050757001E+02 -0.53042713463E+03  0.54104842764E+03  0.47000000000E+01 0. -1.
        -11    1    6    6    0    0  0.28007449821E+02  0.87403458392E+02 -0.27926056528E+03  0.29395619589E+03  0.00000000000E+00 0.  1.
         12    1    6    6    0    0 -0.30336024458E+02  0.10892430962E+02 -0.14488533583E+03  0.14842735587E+03  0.00000000000E+00 0. -1.
         -5    1    3    3    0  503 -0.58714652411E+02 -0.13294065286E+03 -0.86502561930E+02  0.16919045721E+03  0.47000000000E+01 0.  1.
         13    1    4    4    0    0 -0.40967120270E+02  0.37042481655E+02 -0.22016367250E+02  0.59457302472E+02  0.00000000000E+00 0. -1.
        -14    1    4    4    0    0 -0.52949572842E+00 -0.31448475153E+02 -0.35760733432E+02  0.47624752081E+02  0.00000000000E+00 0.  1.
</event>
<event>
12    1  0.8331241E-002  0.1868903E+03  0.7818608E-02  0.1162417E+00
         21   -1    0    0  503  502  0.00000000000E+00  0.00000000000E+00  0.53550292403E+03  0.53550292403E+03  0.00000000000E+00 0. -1.
         21   -1    0    0  501  503 -0.00000000000E+00 -0.00000000000E+00 -0.65324343007E+02  0.65324343007E+02  0.00000000000E+00 0.  1.
          6    2    1    2  501    0  0.73412621924E+02  0.77040099354E+01  0.18275704422E+03  0.25798747702E+03  0.16645911288E+03 0.  0.
         24    2    3    3    0    0 -0.18682492999E+02  0.72387964680E+01  0.50116805935E+02  0.96441045835E+02  0.79923371837E+02 0.  0.
         -6    2    1    2    0  502 -0.73412621924E+02 -0.77040099354E+01  0.28742153680E+03  0.34283979002E+03  0.17169512799E+03 0.  0.
        -24    2    5    5    0    0 -0.92876537277E+02  0.40663026668E+02  0.16000183156E+03  0.20508607676E+03  0.78614120016E+02 0.  0.
          5    1    3    3  501    0  0.92095114923E+02  0.46521346738E+00  0.13264023829E+03  0.16154643119E+03  0.47000000000E+01 0. -1.
        -11    1    4    4    0    0  0.13687293970E+02 -0.29567971828E+02  0.13546927731E+02  0.35286346158E+02  0.00000000000E+00 0.  1.
         12    1    4    4    0    0 -0.32369786969E+02  0.36806768296E+02  0.36569878204E+02  0.61154699678E+02  0.00000000000E+00 0. -1.
         -5    1    5    5    0  502  0.19463915353E+02 -0.48367036603E+02  0.12741970524E+03  0.13775371325E+03  0.47000000000E+01 0.  1.
         13    1    6    6    0    0 -0.18206580662E+02  0.41279894115E+02  0.98521982741E+02  0.10836092617E+03  0.00000000000E+00 0. -1.
        -14    1    6    6    0    0 -0.74669956616E+02 -0.61686744754E+00  0.61479848818E+02  0.96725150592E+02  0.00000000000E+00 0.  1.
</event>
<event>
12    1  0.8331241E-002  0.2305954E+03  0.7818608E-02  0.1126224E+00
         21   -1    0    0  503  502  0.00000000000E+00  0.00000000000E+00  0.19722289196E+02  0.19722289196E+02  0.00000000000E+00 0. -1.
         21   -1    0    0  501  503 -0.00000000000E+00 -0.00000000000E+00 -0.27612798437E+04  0.27612798437E+04  0.00000000000E+00 0. -1.
          6    2    1    2  501    0 -0.11301427973E+03  0.10249132428E+03 -0.15845559793E+04  0.16012449949E+04  0.17289066756E+03 0.  0.
         24    2    3    3    0    0 -0.11411651917E+02  0.42620142152E+02 -0.35785241786E+03  0.36887679900E+03  0.77878350994E+02 0.  0.
         -6    2    1    2    0  502  0.11301427973E+03 -0.10249132428E+03 -0.11570015751E+04  0.11797571380E+04  0.17290911149E+03 0.  0.
        -24    2    5    5    0    0  0.12420069903E+03 -0.28967839365E+02 -0.89202517327E+03  0.90450194304E+03  0.78421335494E+02 0.  0.
          5    1    3    3  501    0 -0.10160262782E+03  0.59871182127E+02 -0.12267035615E+04  0.12323681959E+04  0.47000000000E+01 0. -1.
        -13    1    4    4    0    0  0.13708897210E+02 -0.15033933914E+02 -0.15952430115E+03  0.16081652803E+03  0.00000000000E+00 0.  1.
         14    1    4    4    0    0 -0.25120549126E+02  0.57654076066E+02 -0.19832811671E+03  0.20806027097E+03  0.00000000000E+00 0. -1.
         -5    1    5    5    0  502 -0.11186419297E+02 -0.73523484913E+02 -0.26497640188E+03  0.27525519498E+03  0.47000000000E+01 0.  1.
         11    1    6    6    0    0  0.13123930176E+02 -0.36088136107E+02 -0.23357771551E+03  0.23671320262E+03  0.00000000000E+00 0. -1.
        -12    1    6    6    0    0  0.11107676886E+03  0.71202967417E+01 -0.65844745776E+03  0.66778874042E+03  0.00000000000E+00 0.  1.
</event>
<event>
12    1  0.8331241E-002  0.2034970E+03  0.7818608E-02  0.1146926E+00
         21   -1    0    0  501  502  0.00000000000E+00  0.00000000000E+00  0.41366280006E+03  0.41366280006E+03  0.00000000000E+00 0.  1.
         21   -1    0    0  502  503 -0.00000000000E+00 -0.00000000000E+00 -0.16967686632E+03  0.16967686632E+03  0.00000000000E+00 0. -1.
         -6    2    1    2    0  503  0.34533281998E+01  0.11058975816E+03  0.30917551980E+03  0.37013583553E+03  0.17078938671E+03 0.  0.
        -24    2    3    3    0    0  0.43015725461E+02  0.62983548425E+01  0.14756161459E+03  0.17371021490E+03  0.80689446328E+02 0.  0.
          6    2    1    2  501    0 -0.34533281998E+01 -0.11058975816E+03 -0.65189586052E+02  0.21320383085E+03  0.17018863439E+03 0.  0.
         24    2    5    5    0    0  0.92784744868E+01 -0.14018747799E+03 -0.29453456871E+02  0.16485835798E+03  0.81068816452E+02 0.  0.
          5    1    5    5  501    0 -0.12731802687E+02  0.29597719825E+02 -0.35736129181E+02  0.48345472873E+02  0.47000000000E+01 0. -1.
        -13    1    6    6    0    0 -0.97106494506E+01 -0.89575947351E+01  0.19465779881E+02  0.23525556371E+02  0.00000000000E+00 0.  1.
         14    1    6    6    0    0  0.18989123937E+02 -0.13122988325E+03 -0.48919236752E+02  0.14133280161E+03  0.00000000000E+00 0. -1.
         -5    1    3    3    0  503 -0.39562397261E+02  0.10429140332E+03  0.16161390521E+03  0.19642562063E+03  0.47000000000E+01 0.  1.
         11    1    4    4    0    0 -0.39409391858E+00  0.30240852070E+02  0.18495568667E+02  0.35450677063E+02  0.00000000000E+00 0. -1.
        -12    1    4    4    0    0  0.43409819379E+02 -0.23942497227E+02  0.12906604592E+03  0.13825953783E+03  0.00000000000E+00 0.  1.
</event>
<event>
12    1  0.8331241E-002  0.1811278E+03  0.7818608E-02  0.1167167E+00
         21   -1    0    0  503  502  0.00000000000E+00  0.00000000000E+00  0.61645171821E+02  0.61645171821E+02  0.00000000000E+00 0.  1.
         21   -1    0    0  501  503 -0.00000000000E+00 -0.00000000000E+00 -0.55799593336E+03  0.55799593336E+03  0.00000000000E+00 0.  1.
          6    2    1    2  501    0 -0.27890347829E+02 -0.45476509273E+02 -0.17603721804E+03  0.25257942280E+03  0.17309326471E+03 0.  0.
         24    2    3    3    0    0  0.39521758608E+02 -0.53174692542E+02 -0.14328626355E+03  0.17709187985E+03  0.80256235003E+02 0.  0.
         -6    2    1    2    0  502  0.27890347829E+02  0.45476509273E+02 -0.32031354350E+03  0.36706168238E+03  0.17113599308E+03 0.  0.
        -24    2    5    5    0    0  0.31673131383E+02 -0.38280635551E+02 -0.19122982189E+03  0.21306731254E+03  0.79751116486E+02 0.  0.
          5    1    3    3  501    0 -0.67412106437E+02  0.76981832686E+01 -0.32750954484E+02  0.75487542943E+02  0.47000000000E+01 0. -1.
        -11    1    4    4    0    0  0.54365489749E+02 -0.62786398937E+01 -0.80258773206E+02  0.97141641283E+02  0.00000000000E+00 0.  1.
         12    1    4    4    0    0 -0.14843731141E+02 -0.46896052648E+02 -0.63027490348E+02  0.79950238572E+02  0.00000000000E+00 0. -1.
         -5    1    5    5    0  502 -0.37827835536E+01  0.83757144824E+02 -0.12908372161E+03  0.15399436985E+03  0.47000000000E+01 0.  1.
         13    1    6    6    0    0  0.31360319508E+02 -0.82017126045E+01 -0.17666661769E+02  0.36916780295E+02  0.00000000000E+00 0. -1.
        -14    1    6    6    0    0  0.31281187420E+00 -0.30078922947E+02 -0.17356316012E+03  0.17615053224E+03  0.00000000000E+00 0.  1.
</event>
<event>
12    1  0.8331241E-002  0.2447950E+03  0.7818608E-02  0.1117653E+00
         21   -1    0    0  503  502  0.00000000000E+00  0.00000000000E+00  0.15200331174E+03  0.15200331174E+03  0.00000000000E+00 0. -1.
         21   -1    0    0  501  503 -0.00000000000E+00 -0.00000000000E+00 -0.57646060899E+03  0.57646060899E+03  0.00000000000E+00 0.  1.
          6    2    1    2  501    0  0.15094881314E+03 -0.88886969196E+02 -0.42066857524E+03  0.48363963220E+03  0.16204569158E+03 0.  0.
         24    2    3    3    0    0  0.17407410345E+03 -0.69368294223E+02 -0.39244628972E+03  0.44199416277E+03  0.78936657320E+02 0.  0.
         -6    2    1    2    0  502 -0.15094881314E+03  0.88886969196E+02 -0.37887220074E+01  0.24482428853E+03  0.17099163827E+03 0.  0.
        -24    2    5    5    0    0 -0.16781736509E+03  0.85766858276E+02  0.29094790736E+02  0.20743848176E+03  0.81643094409E+02 0.  0.
          5    1    3    3  501    0 -0.23125290309E+02 -0.19518674972E+02 -0.28222285521E+02  0.41645469436E+02  0.47000000000E+01 0. -1.
        -11    1    4    4    0    0  0.10528546842E+03 -0.33031988920E+01 -0.17038334996E+03  0.20031581797E+03  0.00000000000E+00 0.  1.
         12    1    4    4    0    0  0.68788635024E+02 -0.66065095331E+02 -0.22206293976E+03  0.24167834480E+03  0.00000000000E+00 0. -1.
         -5    1    5    5    0  502  0.16868551951E+02  0.31201109197E+01 -0.32883512743E+02  0.37385806764E+02  0.47000000000E+01 0.  1.
         11    1    6    6    0    0 -0.15757041614E+03  0.75330966074E+02 -0.24900685347E+00  0.17465180359E+03  0.00000000000E+00 0. -1.
        -12    1    6    6    0    0 -0.10246948948E+02  0.10435892202E+02  0.29343797589E+02  0.32786678175E+02  0.00000000000E+00 0.  1.
</event>
<event>
12    1  0.8331241E-002  0.2785042E+03  0.7818608E-02  0.1096535E+00
         21   -1    0    0  501  502  0.00000000000E+00  0.00000000000E+00  0.43380363662E+03  0.43380363662E+03  0.00000000000E+00 0.  1.
         21   -1    0    0  502  503 -0.00000000000E+00 -0.00000000000E+00 -0.20041343756E+03  0.20041343756E+03  0.00000000000E+00 0. -1.
         -6    2    1    2    0  503  0.20093882416E+03  0.86685625517E+02  0.12224563093E+02  0.27857843607E+03  0.17194678356E+03 0.  0.
        -24    2    3    3    0    0  0.21813531492E+03  0.88475036648E+02 -0.11258869210E+02  0.24904061490E+03  0.80520916584E+02 0.  0.
          6    2    1    2  501    0 -0.20093882416E+03 -0.86685625517E+02  0.22116563596E+03  0.35563863811E+03  0.17226083033E+03 0.  0.
         24    2    5    5    0    0 -0.19497165226E+02 -0.25170862585E+02  0.60306830817E+02  0.10543314887E+03  0.80408477556E+02 0.  0.
          5    1    5    5  501    0 -0.18144165893E+03 -0.61514762933E+02  0.16085880515E+03  0.25020548924E+03  0.47000000000E+01 0. -1.
        -11    1    6    6    0    0 -0.90387651603E+01  0.53562461837E+01  0.70742733126E+02  0.71518689439E+02  0.00000000000E+00 0.  1.
         12    1    6    6    0    0 -0.10458400066E+02 -0.30527108768E+02 -0.10435902309E+02  0.33914459434E+02  0.00000000000E+00 0. -1.
         -5    1    3    3    0  503 -0.17196490765E+02 -0.17894111304E+01  0.23483432303E+02  0.29537821172E+02  0.47000000000E+01 0.  1.
         11    1    4    4    0    0  0.86653043765E+01  0.19014695773E+02 -0.18966071249E+02  0.28219815979E+02  0.00000000000E+00 0. -1.
        -12    1    4    4    0    0  0.20947001054E+03  0.69460340874E+02  0.77072020390E+01  0.22082079892E+03  0.00000000000E+00 0.  1.
</event>
<event>
12    1  0.8331241E-002  0.2290056E+03  0.7818608E-02  0.1127344E+00
         21   -1    0    0  503  502  0.00000000000E+00  0.00000000000E+00  0.13240472424E+04  0.13240472424E+04  0.00000000000E+00 0. -1.
         21   -1    0    0  501  503 -0.00000000000E+00 -0.00000000000E+00 -0.57957486490E+02  0.57957486490E+02  0.00000000000E+00 0. -1.
          6    2    1    2  501    0  0.10080283975E+03 -0.11268569843E+03  0.24419762723E+03  0.33476689600E+03  0.17197998249E+03 0.  0.
         24    2    3    3    0    0 -0.96808652875E+01 -0.80898396227E+02  0.11268528228E+03  0.16002517650E+03  0.79194789003E+02 0.  0.
         -6    2    1    2    0  502 -0.10080283975E+03  0.11268569843E+03  0.10218921287E+04  0.10472378329E+04  0.17200080480E+03 0.  0.
        -24    2    5    5    0    0 -0.12716715148E+03  0.10895735033E+03  0.98679405076E+03  0.10029327250E+04  0.63783725477E+02 0.  0.
          5    1    3    3  501    0  0.11048370504E+03 -0.31787302203E+02  0.13151234495E+03  0.17474171950E+03  0.47000000000E+01 0. -1.
        -13    1    4    4    0    0 -0.84315433100E+01  0.62463220905E+01  0.53869896017E+02  0.54882357449E+02  0.00000000000E+00 0.  1.
         14    1    4    4    0    0 -0.12493219775E+01 -0.87144718317E+02  0.58815386267E+02  0.10514281905E+03  0.00000000000E+00 0. -1.
         -5    1    5    5    0  502  0.26364311726E+02  0.37283481026E+01  0.35098077905E+02  0.44305107888E+02  0.47000000000E+01 0.  1.
         13    1    6    6    0    0 -0.26949216741E+02  0.48061120244E+02  0.45732993329E+03  0.46063738390E+03  0.00000000000E+00 0. -1.
        -14    1    6    6    0    0 -0.10021793474E+03  0.60896230083E+02  0.52946411746E+03  0.54229534108E+03  0.00000000000E+00 0.  1.
</event>
<event>
12    1  0.8331241E-002  0.1871190E+03  0.7818608E-02  0.1163089E+00
         21   -1    0    0  501  502  0.00000000000E+00  0.00000000000E+00  0.46919200743E+02  0.46919200743E+02  0.00000000000E+00 0. -1.
         21   -1    0    0  502  503 -0.00000000000E+00 -0.00000000000E+00 -0.81655885373E+03  0.81655885373E+03  0.00000000000E+00 0. -1.
         -6    2    1    2    0  503 -0.49521908449E+02 -0.23823387461E+02 -0.53091720623E+03  0.56015985662E+03  0.16995885352E+03 0.  0.
        -24    2    3    3    0    0  0.53105372630E+01  0.42550173925E+02 -0.22189861543E+03  0.23933805840E+03  0.78771768809E+02 0.  0.
          6    2    1    2  501    0  0.49521908449E+02  0.23823387461E+02 -0.23872244675E+03  0.30331819785E+03  0.17886740719E+03 0.  0.
         24    2    5    5    0    0 -0.37316211487E+02  0.28245003235E+02 -0.12936014396E+03  0.16352330154E+03  0.88405562358E+02 0.  0.
          5    1    5    5  501    0  0.86838119936E+02 -0.44216157744E+01 -0.10936230279E+03  0.13979489630E+03  0.47000000000E+01 0. -1.
        -11    1    6    6    0    0  0.10589657585E+02  0.46233792924E+02 -0.48548247572E+02  0.67872209322E+02  0.00000000000E+00 0.  1.
         12    1    6    6    0    0 -0.47905869072E+02 -0.17988789689E+02 -0.80811896385E+02  0.95651092222E+02  0.00000000000E+00 0. -1.
         -5    1    3    3    0  503 -0.54832445712E+02 -0.66373561386E+02 -0.30901859080E+03  0.32082179822E+03  0.47000000000E+01 0.  1.
         11    1    4    4    0    0 -0.16929945502E+02  0.33852919256E+02 -0.20859629636E+03  0.21200249539E+03  0.00000000000E+00 0. -1.
        -12    1    4    4    0    0  0.22240482765E+02  0.86972546689E+01 -0.13302319074E+02  0.27335563011E+02  0.00000000000E+00 0.  1.
</event>
<event>
12    1  0.8331241E-002  0.2144891E+03  0.7818608E-02  0.1138535E+00
         21   -1    0    0  501  502  0.00000000000E+00  0.00000000000E+00  0.17816873858E+03  0.17816873858E+03  0.00000000000E+00 0.  1.
         21   -1    0    0  502  503 -0.00000000000E+00 -0.00000000000E+00 -0.31748424912E+03  0.31748424912E+03  0.00000000000E+00 0.  1.
         -6    2    1    2    0  503 -0.12623811696E+03 -0.11401882562E+01 -0.17904081985E+03  0.27751613461E+03  0.17035911363E+03 0.  0.
        -24    2    3    3    0    0 -0.20453126175E+02 -0.16391833234E+02 -0.14112250858E+03  0.16401298365E+03  0.79357884355E+02 0.  0.
          6    2    1    2  501    0  0.12623811696E+03  0.11401882562E+01  0.39725309311E+02  0.21813685309E+03  0.17340191543E+03 0.  0.
         24    2    5    5    0    0  0.13441816458E+03 -0.14757575540E+01 -0.19247338332E+02  0.15835709463E+03  0.81462190974E+02 0.  0.
          5    1    5    5  501    0 -0.81800476203E+01  0.26159458102E+01  0.58972647643E+02  0.59779758460E+02  0.47000000000E+01 0. -1.
        -11    1    6    6    0    0  0.62302835017E+02 -0.35016354580E+02  0.12806670840E+02  0.72607156377E+02  0.00000000000E+00 0.  1.
         12    1    6    6    0    0  0.72115329562E+02  0.33540597026E+02 -0.32054009171E+02  0.85749938254E+02  0.00000000000E+00 0. -1.
         -5    1    3    3    0  503 -0.10578499078E+03  0.15251644978E+02 -0.37918311265E+02  0.11350315096E+03  0.47000000000E+01 0.  1.
         11    1    4    4    0    0 -0.15061315597E+02 -0.17445883440E+02 -0.26598010062E+00  0.23049356215E+02  0.00000000000E+00 0. -1.
        -12    1    4    4    0    0 -0.53918105786E+01  0.10540502052E+01 -0.14085652848E+03  0.14096362743E+03  0.00000000000E+00 0.  1.
</event>
<event>
12    1  0.8331241E-002  0.1863680E+03  0.7818608E-02  0.1163366E+00
         21   -1    0    0  501  502  0.00000000000E+00  0.00000000000E+00  0.37521849158E+03  0.37521849158E+03  0.00000000000E+00 0.  1.
         21   -1    0    0  502  503 -0.00000000000E+00 -0.00000000000E+00 -0.24304823494E+03  0.24304823494E+03  0.00000000000E+00 0.  1.
         -6    2    1    2    0  503  0.27342744984E+02 -0.37216523122E+02 -0.17935875161E+03  0.25865532736E+03  0.18055559060E+03 0.  0.
        -24    2    3    3    0    0  0.31430680853E+02 -0.20964611231E+02 -0.10720869070E+02  0.89121669088E+02  0.80002076501E+02 0.  0.
          6    2    1    2  501    0 -0.27342744984E+02  0.37216523122E+02  0.31152900825E+03  0.35961139915E+03  0.17360109483E+03 0.  0.
         24    2    5    5    0    0 -0.62685489805E+01  0.90980767846E+02  0.21861369727E+03  0.25011226326E+03  0.80295708313E+02 0.  0.
          5    1    5    5  501    0 -0.21074196004E+02 -0.53764244724E+02  0.92915310976E+02  0.10949913590E+03  0.47000000000E+01 0. -1.
        -13    1    6    6    0    0  0.36825355351E+02  0.39832379856E+02  0.10778930312E+03  0.12067004247E+03  0.00000000000E+00 0.  1.
         14    1    6    6    0    0 -0.43093904332E+02  0.51148387990E+02  0.11082439415E+03  0.12944222079E+03  0.00000000000E+00 0. -1.
         -5    1    3    3    0  503 -0.40879358683E+01 -0.16251911891E+02 -0.16863788254E+03  0.16953365828E+03  0.47000000000E+01 0.  1.
         11    1    4    4    0    0 -0.36390392474E+00 -0.26196124843E+02 -0.38506615436E+02  0.46573907021E+02  0.00000000000E+00 0. -1.
        -12    1    4    4    0    0  0.31794584777E+02  0.52315136120E+01  0.27785746366E+02  0.42547762068E+02  0.00000000000E+00 0.  1.
</event>
<event>
12    1  0.8331241E-002  0.2690475E+03  0.7818608E-02  0.1102104E+00
         21   -1    0    0  501  502  0.00000000000E+00  0.00000000000E+00  0.37199643245E+02  0.37199643245E+02  0.00000000000E+00 0.  1.
         21   -1    0    0  502  503 -0.00000000000E+00 -0.00000000000E+00 -0.19354381413E+04  0.19354381413E+04  0.00000000000E+00 0. -1.
         -6    2    1    2    0  503 -0.20098595559E+03 -0.34906743340E+02 -0.90408076174E+03  0.94271732767E+03  0.17245318514E+03 0.  0.
        -24    2    3    3    0    0 -0.37209148303E+02  0.20609212276E+02 -0.38861404594E+03  0.39899599369E+03  0.79797656150E+02 0.  0.
          6    2    1    2  501    0  0.20098595559E+03  0.34906743340E+02 -0.99415773634E+03  0.10299204569E+04  0.17542151449E+03 0.  0.
         24    2    5    5    0    0  0.38372841091E+02  0.45948778934E+02 -0.27399770932E+03  0.29153200488E+03  0.79576378024E+02 0.  0.
          5    1    5    5  501    0  0.16261311450E+03 -0.11042035595E+02 -0.72016002702E+03  0.73838845202E+03  0.47000000000E+01 0. -1.
        -13    1    6    6    0    0  0.15620455571E+02  0.47069019437E+02 -0.26023286105E+03  0.26491627582E+03  0.00000000000E+00 0.  1.
         14    1    6    6    0    0  0.22752385519E+02 -0.11202405023E+01 -0.13764848264E+02  0.26615729059E+02  0.00000000000E+00 0. -1.
         -5    1    3    3    0  503 -0.16377680728E+03 -0.55515955615E+02 -0.51546671580E+03  0.54372133399E+03  0.47000000000E+01 0.  1.
         13    1    4    4    0    0 -0.53265203907E+02 -0.62589622772E+01 -0.30573756895E+03  0.31040589174E+03  0.00000000000E+00 0. -1.
        -14    1    4    4    0    0  0.16056055604E+02  0.26868174553E+02 -0.82876476987E+02  0.88590101948E+02  0.00000000000E+00 0.  1.
</event>
<event>
12    1  0.8331241E-002  0.2562084E+03  0.7818608E-02  0.1109587E+00
         21   -1    0    0  503  502  0.00000000000E+00  0.00000000000E+00  0.76738994532E+02  0.76738994532E+02  0.00000000000E+00 0.  1.
         21   -1    0    0  501  503 -0.00000000000E+00 -0.00000000000E+00 -0.99522827015E+03  0.99522827015E+03  0.00000000000E+00 0. -1.
          6    2    1    2  501    0 -0.18172222422E+03  0.57721081895E+02 -0.25682882245E+03  0.36277233597E+03  0.17113746998E+03 0.  0.
         24    2    3    3    0    0 -0.20709580421E+03  0.44505981967E+02 -0.23775101537E+03  0.32806628246E+03  0.78946094433E+02 0.  0.
         -6    2    1    2    0  502  0.18172222422E+03 -0.57721081895E+02 -0.66166045316E+03  0.70919492871E+03  0.16972978982E+03 0.  0.
        -24    2    5    5    0    0  0.18473706570E+03 -0.36256457248E+02 -0.65488417251E+03  0.68600382352E+03  0.79282106082E+02 0.  0.
          5    1    3    3  501    0  0.25373579984E+02  0.13215099928E+02 -0.19077807080E+02  0.34706053511E+02  0.47000000000E+01 0. -1.
        -11    1    4    4    0    0 -0.13597097734E+03 -0.10031320482E+02 -0.13891369581E+03  0.19464261854E+03  0.00000000000E+00 0.  1.
         12    1    4    4    0    0 -0.71124826867E+02  0.54537302449E+02 -0.98837319562E+02  0.13342366392E+03  0.00000000000E+00 0. -1.
         -5    1    5    5    0  502 -0.30148414754E+01 -0.21464624647E+02 -0.67762806535E+01  0.23191105188E+02  0.47000000000E+01 0.  1.
         11    1    6    6    0    0  0.50184677068E+02 -0.38292278847E+02 -0.29752197717E+03  0.30414491173E+03  0.00000000000E+00 0. -1.
        -12    1    6    6    0    0  0.13455238863E+03  0.20358215990E+01 -0.35736219534E+03  0.38185891179E+03  0.00000000000E+00 0.  1.
</event>
<event>
12    1  0.8331241E-002  0.1753888E+03  0.7818608E-02  0.1172678E+00
         21   -1    0    0  503  502  0.00000000000E+00  0.00000000000E+00  0.64482131598E+03  0.64482131598E+03  0.00000000000E+00 0. -1.
         21   -1    0    0  501  503 -0.00000000000E+00 -0.00000000000E+00 -0.55025832849E+02  0.55025832849E+02  0.00000000000E+00 0. -1.
          6    2    1    2  501    0 -0.95829610576E+01  0.18984976127E+02  0.16316464642E+03  0.23857162149E+03  0.17274679238E+03 0.  0.
         24    2    3    3    0    0  0.45153622767E+02  0.44481901112E+02  0.55790094576E+02  0.11529319200E+03  0.78501568738E+02 0.  0.
         -6    2    1    2    0  502  0.95829610576E+01 -0.18984976127E+02  0.42663083671E+03  0.46127552734E+03  0.17409474096E+03 0.  0.
        -24    2    5    5    0    0  0.61003309096E+02  0.41409579544E+01  0.16578179007E+03  0.19436135358E+03  0.80957906308E+02 0.  0.
          5    1    3    3  501    0 -0.54736583825E+02 -0.25496924985E+02  0.10737455184E+03  0.12327842948E+03  0.47000000000E+01 0. -1.
        -13    1    4    4    0    0  0.22788907948E+02  0.40937529064E+02  0.73075549366E+02  0.86805826570E+02  0.00000000000E+00 0.  1.
         14    1    4    4    0    0  0.22364714819E+02  0.35443720473E+01 -0.17285454789E+02  0.28487365435E+02  0.00000000000E+00 0. -1.
         -5    1    5    5    0  502 -0.51420348038E+02 -0.23125934081E+02  0.26084904664E+03  0.26691417376E+03  0.47000000000E+01 0.  1.
         11    1    6    6    0    0  0.44863347823E+02 -0.32567951620E+02  0.12701234635E+03  0.13858400909E+03  0.00000000000E+00 0. -1.
        -12    1    6    6    0    0  0.16139961273E+02  0.36708909574E+02  0.38769443721E+02  0.55777344491E+02  0.00000000000E+00 0.  1.
</event>
<event>
12    1  0.8331241E-002  0.3270676E+03  0.7818608E-02  0.1073823E+00
         21   -1    0    0  501  502  0.00000000000E+00  0.00000000000E+00  0.10315604773E+04  0.10315604773E+04  0.00000000000E+00 0. -1.
         21   -1    0    0  502  503 -0.00000000000E+00 -0.00000000000E+00 -0.11310557968E+03  0.11310557968E+03  0.00000000000E+00 0.  1.
         -6    2    1    2    0  503 -0.25655478455E+03 -0.62261457361E+02  0.25605591494E+03  0.40592007009E+03  0.17178365807E+03 0.  0.
        -24    2    3    3    0    0 -0.26602304637E+03 -0.65836080563E+02  0.19975428881E+03  0.34852330173E+03  0.80399410761E+02 0.  0.
          6    2    1    2  501    0  0.25655478455E+03  0.62261457361E+02  0.66239898269E+03  0.73874598689E+03  0.19307090495E+03 0.  0.
         24    2    5    5    0    0  0.15604506787E+03 -0.43016151707E+02  0.33211212248E+03  0.37777912118E+03  0.78855247043E+02 0.  0.
          5    1    5    5  501    0  0.10050971668E+03  0.10527760907E+03  0.33028686020E+03  0.36096686571E+03  0.47000000000E+01 0. -1.
        -11    1    6    6    0    0  0.23362079458E+02 -0.26358478453E+02  0.13548450141E+03  0.13998787899E+03  0.00000000000E+00 0.  1.
         12    1    6    6    0    0  0.13268298841E+03 -0.16657673254E+02  0.19662762108E+03  0.23779124219E+03  0.00000000000E+00 0. -1.
         -5    1    3    3    0  503  0.94682618173E+01  0.35746232023E+01  0.56301626131E+02  0.57396768357E+02  0.47000000000E+01 0.  1.
         13    1    4    4    0    0 -0.84405447808E+02 -0.56927215819E+02  0.52546166719E+02  0.11456913702E+03  0.00000000000E+00 0. -1.
        -14    1    4    4    0    0 -0.18161759856E+03 -0.89088647443E+01  0.14720812209E+03  0.23395416471E+03  0.00000000000E+00 0.  1.
</event>
<event>
12    1  0.8331241E-002  0.1888405E+03  0.7818608E-02  0.1160112E+00
         21   -1    0    0  501  502  0.00000000000E+00  0.00000000000E+00  0.11727951223E+03  0.11727951223E+03  0.00000000000E+00 0.  1.
         21   -1    0    0  502  503 -0.00000000000E+00 -0.00000000000E+00 -0.30914432428E+03  0.30914432428E+03  0.00000000000E+00 0.  1.
         -6    2    1    2    0  503 -0.50531183812E+02 -0.31159917928E+02 -0.58325486867E+02  0.19513722456E+03  0.17650023504E+03 0.  0.
        -24    2    3    3    0    0 -0.17893599252E+02  0.13520230746E+02 -0.97154367565E+02  0.12737809538E+03  0.79266831097E+02 0.  0.
          6    2    1    2  501    0  0.50531183812E+02  0.31159917928E+02 -0.13353932519E+03  0.23128661195E+03  0.17926629485E+03 0.  0.
         24    2    5    5    0    0  0.94427870414E+02 -0.88954670408E+01 -0.11744266353E+03  0.16954079851E+03  0.77172217143E+02 0.  0.
          5    1    5    5  501    0 -0.43896686603E+02  0.40055384969E+02 -0.16096661660E+02  0.61745813431E+02  0.47000000000E+01 0. -1.
        -11    1    6    6    0    0  0.78896850687E+02  0.25692828866E+02 -0.91944653466E+02  0.12384931895E+03  0.00000000000E+00 0.  1.
         12    1    6    6    0    0  0.15531019728E+02 -0.34588295907E+02 -0.25498010065E+02  0.45691479564E+02  0.00000000000E+00 0. -1.
         -5    1    3    3    0  503 -0.32637584560E+02 -0.44680148674E+02  0.38828880698E+02  0.67759129184E+02  0.47000000000E+01 0.  1.
         13    1    4    4    0    0  0.78579443357E+01  0.42086012419E+02 -0.61494284925E+02  0.74930146196E+02  0.00000000000E+00 0. -1.
        -14    1    4    4    0    0 -0.25751543587E+02 -0.28565781673E+02 -0.35660082640E+02  0.52447949184E+02  0.00000000000E+00 0.  1.
</event>
<event>
12    1  0.8331241E-002  0.1859323E+03  0.7818608E-02  0.1162621E+00
         21   -1    0    0  503  502  0.00000000000E+00  0.00000000000E+00  0.30900515685E+03  0.30900515685E+03  0.00000000000E+00 0.  1.
         21   -1    0    0  501  503 -0.00000000000E+00 -0.00000000000E+00 -0.33207631822E+03  0.33207631822E+03  0.00000000000E+00 0.  1.
          6    2    1    2  501    0  0.66503243765E+02  0.51788205629E+01 -0.27320154286E+03  0.32941495716E+03  0.17153900245E+03 0.  0.
         24    2    3    3    0    0  0.28531658072E+02  0.19510125469E+02 -0.27559145712E+03  0.28848783521E+03  0.77973580919E+02 0.  0.
         -6    2    1    2    0  502 -0.66503243765E+02 -0.51788205629E+01  0.25013038150E+03  0.31166651791E+03  0.17355491646E+03 0.  0.
        -24    2    5    5    0    0  0.18244912152E+02  0.13264391404E+01  0.18943804668E+03  0.20711883577E+03  0.81711702610E+02 0.  0.
          5    1    3    3  501    0  0.37971585693E+02 -0.14331304906E+02  0.23899142570E+01  0.40927121943E+02  0.47000000000E+01 0. -1.
        -11    1    4    4    0    0  0.37009476801E+01 -0.18456151337E+02 -0.19579245481E+03  0.19669522591E+03  0.00000000000E+00 0.  1.
         12    1    4    4    0    0  0.24830710392E+02  0.37966276806E+02 -0.79799002311E+02  0.91792609304E+02  0.00000000000E+00 0. -1.
         -5    1    5    5    0  502 -0.84748155916E+02 -0.65052597033E+01  0.60692334820E+02  0.10454768214E+03  0.47000000000E+01 0.  1.
         11    1    6    6    0    0  0.25424718092E+02 -0.34814605080E+02  0.13214959527E+03  0.13900355588E+03  0.00000000000E+00 0. -1.
        -12    1    6    6    0    0 -0.71798059407E+01  0.36141044220E+02  0.57288451411E+02  0.68115279899E+02  0.00000000000E+00 0.  1.
</event>
<event>
12    1  0.8331241E-002  0.1804235E+03  0.7818608E-02  0.1168036E+00
         21   -1    0    0  503  502  0.00000000000E+00  0.00000000000E+00  0.11997455380E+03  0.11997455380E+03  0.00000000000E+00 0.  1.
         21   -1    0    0  501  503 -0.00000000000E+00 -0.00000000000E+00 -0.26956113955E+03  0.26956113955E+03  0.00000000000E+00 0.  1.
          6    2    1    2  501    0 -0.40815840141E+02  0.15911248912E+02 -0.56696545126E+02  0.18660419845E+03  0.17230069066E+03 0.  0.
         24    2    3    3    0    0  0.12252026482E+02 -0.36371229078E+02  0.67298703407E+01  0.88651882743E+02  0.79629684801E+02 0.  0.
         -6    2    1    2    0  502  0.40815840141E+02 -0.15911248912E+02 -0.92890040628E+02  0.20293149490E+03  0.17502437352E+03 0.  0.
        -24    2    5    5    0    0  0.44038404042E+02  0.51847509678E+02 -0.28867647911E+02  0.10953668212E+03  0.80854179511E+02 0.  0.
          5    1    3    3  501    0 -0.53067866623E+02  0.52282477991E+02 -0.63426415467E+02  0.97952315704E+02  0.47000000000E+01 0. -1.
        -13    1    4    4    0    0 -0.89824881107E+00 -0.34163660657E+02 -0.32534355157E+02  0.47185239492E+02  0.00000000000E+00 0.  1.
         14    1    4    4    0    0  0.13150275293E+02 -0.22075684214E+01  0.39264225498E+02  0.41466643251E+02  0.00000000000E+00 0. -1.
         -5    1    5    5    0  502 -0.32225639009E+01 -0.67758758591E+02 -0.64022392717E+02  0.93394812774E+02  0.47000000000E+01 0.  1.
         13    1    6    6    0    0  0.47719818142E+02  0.70800394615E+01  0.10996719730E+02  0.49479650838E+02  0.00000000000E+00 0. -1.
        -14    1    6    6    0    0 -0.36814140996E+01  0.44767470217E+02 -0.39864367642E+02  0.60057031286E+02  0.00000000000E+00 0.  1.
</event>
<event>
12    1  0.8331241E-002  0.1875453E+03  0.7818608E-02  0.1160907E+00
         21   -1    0    0  503  502  0.00000000000E+00  0.00000000000E+00  0.20575822198E+02  0.20575822198E+02  0.00000000000E+00 0.  1.
         21   -1    0    0  501  503 -0.00000000000E+00 -0.00000000000E+00 -0.19755137834E+04  0.19755137834E+04  0.00000000000E+00 0.  1.
          6    2    1    2  501    0 -0.15638747019E+01 -0.73463517760E+02 -0.13515823102E+04  0.13645321471E+04  0.17255116666E+03 0.  0.
         24    2    3    3    0    0  0.34095840489E+01  0.86058975226E+01 -0.38142989664E+03  0.39089057048E+03  0.84976380853E+02 0.  0.
         -6    2    1    2    0  502  0.15638747019E+01  0.73463517760E+02 -0.60335565102E+03  0.63155745850E+03  0.17154430222E+03 0.  0.
        -24    2    5    5    0    0  0.32423019343E+02 -0.33449079704E+00 -0.45279151490E+03  0.46099931018E+03  0.80304694437E+02 0.  0.
          5    1    3    3  501    0 -0.49734587508E+01 -0.82069415282E+02 -0.97015241358E+03  0.97364157666E+03  0.47000000000E+01 0. -1.
        -11    1    4    4    0    0  0.21743093062E+02 -0.31023360686E+02 -0.23686025297E+03  0.23987077863E+03  0.00000000000E+00 0.  1.
         12    1    4    4    0    0 -0.18333509013E+02  0.39629258209E+02 -0.14456964368E+03  0.15101979186E+03  0.00000000000E+00 0. -1.
         -5    1    5    5    0  502 -0.30859144641E+02  0.73798008557E+02 -0.15056413612E+03  0.17055814832E+03  0.47000000000E+01 0.  1.
         13    1    6    6    0    0  0.22674891830E+02  0.13317856049E+01 -0.27829388619E+02  0.35922127488E+02  0.00000000000E+00 0. -1.
        -14    1    6    6    0    0  0.97481275127E+01 -0.16662764019E+01 -0.42496212628E+03  0.42507718269E+03  0.00000000000E+00 0.  1.
</event>
<event>
12    1  0.8331241E-002  0.2176527E+03  0.7818608E-02  0.1135779E+00
         21   -1    0    0  503  502  0.00000000000E+00  0.00000000000E+00  0.13526543059E+04  0.13526543059E+04  0.00000000000E+00 0. -1.
         21   -1    0    0  501  503 -0.00000000000E+00 -0.00000000000E+00 -0.45600206335E+02  0.45600206335E+02  0.00000000000E+00 0.  1.
          6    2    1    2  501    0  0.13360294746E+03  0.76205381568E+01  0.31417943489E+03  0.38180343567E+03  0.17075516394E+03 0.  0.
         24    2    3    3    0    0  0.67921773955E+02  0.55072004725E+02  0.10664770127E+03  0.15896455063E+03  0.79055063637E+02 0.  0.
         -6    2    1    2    0  502 -0.13360294746E+03 -0.76205381568E+01  0.99287466469E+03  0.10164510766E+04  0.17165334578E+03 0.  0.
        -24    2    5    5    0    0 -0.15813595221E+03 -0.97769501683E+01  0.68524031673E+03  0.70779673840E+03  0.79494421637E+02 0.  0.
          5    1    3    3  501    0  0.65681173507E+02 -0.47451466569E+02  0.20753173362E+03  0.22283888505E+03  0.47000000000E+01 0. -1.
        -13    1    4    4    0    0  0.82660366456E+02  0.40054815607E+02  0.65715944762E+02  0.11294117864E+03  0.00000000000E+00 0.  1.
         14    1    4    4    0    0 -0.14738592501E+02  0.15017189118E+02  0.40931756513E+02  0.46023371988E+02  0.00000000000E+00 0. -1.
         -5    1    5    5    0  502  0.24533004747E+02  0.21564120116E+01  0.30763434796E+03  0.30865433818E+03  0.47000000000E+01 0.  1.
         11    1    6    6    0    0  0.14068715086E+01 -0.17476014607E+02  0.66974105697E+02  0.69230926672E+02  0.00000000000E+00 0. -1.
        -12    1    6    6    0    0 -0.15954282372E+03  0.76990644388E+01  0.61826621104E+03  0.63856581172E+03  0.00000000000E+00 0.  1.
</event>
<event>
12    1  0.8331241E-002  0.1747344E+03  0.7818608E-02  0.1173125E+00
         21   -1    0    0  503  502  0.00000000000E+00  0.00000000000E+00  0.55904258888E+02  0.55904258888E+02  0.00000000000E+00 0. -1.
         21   -1    0    0  501  503 -0.00000000000E+00 -0.00000000000E+00 -0.56838893445E+03  0.56838893445E+03  0.00000000000E+00 0. -1.
          6    2    1    2  501    0 -0.31281082888E+02  0.29217312185E+01 -0.19270774596E+03  0.26013147193E+03  0.17188677866E+03 0.  0.
         24    2    3    3    0    0  0.28034792514E+02  0.24352126980E+02 -0.39977710493E+02  0.94825123991E+02  0.77553923974E+02 0.  0.
         -6    2    1    2    0  502  0.31281082888E+02 -0.29217312185E+01 -0.31977692961E+03  0.36416172141E+03  0.17137512063E+03 0.  0.
        -24    2    5    5    0    0  0.69704072065E+02  0.96449269426E+01 -0.11691365353E+03  0.15725631844E+03  0.78160508126E+02 0.  0.
          5    1    3    3  501    0 -0.59315875402E+02 -0.21430395762E+02 -0.15273003546E+03  0.16530634794E+03  0.47000000000E+01 0. -1.
        -11    1    4    4    0    0 -0.72392683806E+01  0.38802821861E+02  0.15723139407E+00  0.39472657787E+02  0.00000000000E+00 0.  1.
         12    1    4    4    0    0  0.35274060895E+02 -0.14450694881E+02 -0.40134941888E+02  0.55352466204E+02  0.00000000000E+00 0. -1.
         -5    1    5    5    0  502 -0.38422989177E+02 -0.12566658161E+02 -0.20286327608E+03  0.20690540297E+03  0.47000000000E+01 0.  1.
         11    1    6    6    0    0  0.51435656664E+02 -0.13640114613E+02 -0.11602611439E+03  0.12764692994E+03  0.00000000000E+00 0. -1.
        -12    1    6    6    0    0  0.18268415402E+02  0.23285041555E+02 -0.88753913472E+00  0.29609388498E+02  0.00000000000E+00 0.  1.
</event>
<event>
12    1  0.8331241E-002  0.2220734E+03  0.7818608E-02  0.1133404E+00
         21   -1    0    0  501  502  0.00000000000E+00  0.00000000000E+00  0.53544450505E+03  0.53544450505E+03  0.00000000000E+00 0.  1.
         21   -1    0    0  502  503 -0.00000000000E+00 -0.00000000000E+00 -0.10571329597E+03  0.10571329597E+03  0.00000000000E+00 0. -1.
         -6    2    1    2    0  503  0.39020888998E+01  0.13214682353E+03  0.88018115370E+02  0.23362323644E+03  0.17133189635E+03 0.  0.
        -24    2    3    3    0    0 -0.11483513511E+02  0.12984449028E+03  0.11867814225E+02  0.15575812317E+03  0.84429172570E+02 0.  0.
          6    2    1    2  501    0 -0.39020888998E+01 -0.13214682353E+03  0.34171309370E+03  0.40753456458E+03  0.17843366738E+03 0.  0.
         24    2    5    5    0    0 -0.28496766558E+02 -0.65144099192E+02  0.30991004839E+03  0.32925438236E+03  0.85489127068E+02 0.  0.
          5    1    5    5  501    0  0.24594677658E+02 -0.67002724334E+02  0.31803045311E+02  0.78280182220E+02  0.47000000000E+01 0. -1.
        -11    1    6    6    0    0 -0.16100647912E+02 -0.71338564952E+02  0.30633396547E+03  0.31494272514E+03  0.00000000000E+00 0.  1.
         12    1    6    6    0    0 -0.12396118646E+02  0.61944657601E+01  0.35760829174E+01  0.14311657227E+02  0.00000000000E+00 0. -1.
         -5    1    3    3    0  503  0.15385602411E+02  0.23023332460E+01  0.76150301145E+02  0.77865113269E+02  0.47000000000E+01 0.  1.
         11    1    4    4    0    0 -0.40922087194E+02  0.53335481837E+02  0.26911288452E+02  0.72412072814E+02  0.00000000000E+00 0. -1.
        -12    1    4    4    0    0  0.29438573683E+02  0.76509008443E+02 -0.15043474227E+02  0.83346050358E+02  0.00000000000E+00 0.  1.
</event>
<event>
12    1  0.8331241E-002  0.2350662E+03  0.7818608E-02  0.1123284E+00
         21   -1    0    0  503  502  0.00000000000E+00  0.00000000000E+00  0.49346515738E+03  0.49346515738E+03  0.00000000000E+00 0. -1.
         21   -1    0    0  501  503 -0.00000000000E+00 -0.00000000000E+00 -0.11213831915E+03  0.11213831915E+03  0.00000000000E+00 0.  1.
          6    2    1    2  501    0 -0.14584601465E+03  0.62009451431E+02  0.16798580171E+03  0.28815974577E+03  0.17233855475E+03 0.  0.
         24    2    3    3    0    0 -0.72758800346E+02 -0.20895635063E+02  0.13149700575E+03  0.17167577052E+03  0.80315858136E+02 0.  0.
         -6    2    1    2    0  502  0.14584601465E+03 -0.62009451431E+02  0.21334103652E+03  0.31744373076E+03  0.17360844530E+03 0.  0.
        -24    2    5    5    0    0  0.13069195093E+03 -0.42419366802E+02  0.72450636962E+02  0.17431577489E+03  0.79101870148E+02 0.  0.
          5    1    3    3  501    0 -0.73087214303E+02  0.82905086493E+02  0.36488795959E+02  0.11648397526E+03  0.47000000000E+01 0. -1.
        -11    1    4    4    0    0  0.56621428463E+01  0.20449202425E+02  0.32199831504E+02  0.38562402549E+02  0.00000000000E+00 0.  1.
         12    1    4    4    0    0 -0.78420943192E+02 -0.41344837488E+02  0.99297174249E+02  0.13311336797E+03  0.00000000000E+00 0. -1.
         -5    1    5    5    0  502  0.15154063717E+02 -0.19590084628E+02  0.14089039956E+03  0.14312795587E+03  0.47000000000E+01 0.  1.
         13    1    6    6    0    0  0.19924295955E+02 -0.35236959694E+02  0.43875171744E+02  0.59696328139E+02  0.00000000000E+00 0. -1.
        -14    1    6    6    0    0  0.11076765498E+03 -0.71824071088E+01  0.28575465219E+02  0.11461944675E+03  0.00000000000E+00 0.  1.
</event>
<event>
12    1  0.8331241E-002  0.2035345E+03  0.7818608E-02  0.1147078E+00
         21   -1    0    0  501  502  0.00000000000E+00  0.00000000000E+00  0.11222837073E+03  0.11222837073E+03  0.00000000000E+00 0. -1.
         21   -1    0    0  502  503 -0.00000000000E+00 -0.00000000000E+00 -0.51907989746E+03  0.51907989746E+03  0.00000000000E+00 0. -1.
         -6    2    1    2    0  503  0.89161884699E+02 -0.59596481360E+02 -0.31862703309E+02  0.20464340042E+03  0.17135374871E+03 0.  0.
        -24    2    3    3    0    0  0.12746768865E+02  0.18223422971E+02 -0.46260051912E+02  0.94531724900E+02  0.79383130124E+02 0.  0.
          6    2    1    2  501    0 -0.89161884699E+02  0.59596481360E+02 -0.37498882341E+03  0.42666486778E+03  0.17298759908E+03 0.  0.
         24    2    5    5    0    0 -0.92111042556E+02  0.82688702838E+02 -0.19585141546E+03  0.24596000023E+03  0.82563182106E+02 0.  0.
          5    1    5    5  501    0  0.29491578563E+01 -0.23092221478E+02 -0.17913740795E+03  0.18070486754E+03  0.47000000000E+01 0. -1.
        -13    1    6    6    0    0 -0.27122179819E+02  0.74793373109E+02 -0.13433055943E+03  0.15612290190E+03  0.00000000000E+00 0.  1.
         14    1    6    6    0    0 -0.64988862736E+02  0.78953297291E+01 -0.61520856029E+02  0.89837098338E+02  0.00000000000E+00 0. -1.
         -5    1    3    3    0  503  0.76415115834E+02 -0.77819904331E+02  0.14397348603E+02  0.11011167552E+03  0.47000000000E+01 0.  1.
         11    1    4    4    0    0 -0.10107367120E+02  0.11948178152E+02  0.19283512260E+02  0.24834888289E+02  0.00000000000E+00 0. -1.
        -12    1    4    4    0    0  0.22854135985E+02  0.62752448193E+01 -0.65543564172E+02  0.69696836611E+02  0.00000000000E+00 0.  1.
</event>
<event>
12    1  0.8331241E-002  0.1916631E+03  0.7818608E-02  0.1159148E+00
         21   -1    0    0  501  502  0.00000000000E+00  0.00000000000E+00  0.21130984934E+02  0.21130984934E+02  0.00000000000E+00 0.  1.
         21   -1    0    0  502  503 -0.00000000000E+00 -0.00000000000E+00 -0.17319156408E+04  0.17319156408E+04  0.00000000000E+00 0.  1.
         -6    2    1    2    0  503 -0.63748832106E+02  0.55011202614E+02 -0.64790101778E+03  0.67302052793E+03  0.16152633274E+03 0.  0.
        -24    2    3    3    0    0 -0.74454736485E+02  0.69364951558E+01 -0.23473645596E+03  0.25690415114E+03  0.72848585217E+02 0.  0.
          6    2    1    2  501    0  0.63748832106E+02 -0.55011202614E+02 -0.10628836381E+04  0.10800260978E+04  0.17217606633E+03 0.  0.
         24    2    5    5    0    0  0.10800555798E+03 -0.49747137121E+02 -0.72623475612E+03  0.74040729988E+03  0.81523435390E+02 0.  0.
          5    1    5    5  501    0 -0.44256725877E+02 -0.52640654933E+01 -0.33664888198E+03  0.33961879794E+03  0.47000000000E+01 0. -1.
        -11    1    6    6    0    0  0.26789672401E+02 -0.49438068879E+02 -0.19304902308E+03  0.20107146619E+03  0.00000000000E+00 0.  1.
         12    1    6    6    0    0  0.81215885582E+02 -0.30906824249E+00 -0.53318573304E+03  0.53933583370E+03  0.00000000000E+00 0. -1.
         -5    1    3    3    0  503  0.10705904380E+02  0.48074707458E+02 -0.41316456183E+03  0.41611637679E+03  0.47000000000E+01 0.  1.
         13    1    4    4    0    0 -0.60349484385E+02 -0.13276995934E+02 -0.21925722877E+03  0.22779831267E+03  0.00000000000E+00 0. -1.
        -14    1    4    4    0    0 -0.14105252100E+02  0.20213491089E+02 -0.15479227184E+02  0.29105838470E+02  0.00000000000E+00 0.  1.
</event>
<event>
12    1  0.8331241E-002  0.1924368E+03  0.7818608E-02  0.1156529E+00
         21   -1    0    0  503  502  0.00000000000E+00  0.00000000000E+00  0.34836416871E+02  0.34836416871E+02  0.00000000000E+00 0. -1.
         21   -1    0    0  501  503 -0.00000000000E+00 -0.00000000000E+00 -0.14726503610E+04  0.14726503610E+04  0.00000000000E+00 0. -1.
          6    2    1    2  501    0  0.82825327289E+02 -0.25069249068E+02 -0.11208902403E+04  0.11372892508E+04  0.17188195721E+03 0.  0.
         24    2    3    3    0    0  0.12539068610E+02 -0.72214991663E+02 -0.56128178937E+03  0.57129756579E+03  0.77275017567E+02 0.  0.
         -6    2    1    2    0  502 -0.82825327289E+02  0.25069249068E+02 -0.31692370391E+03  0.37019752710E+03  0.17063725525E+03 0.  0.
        -24    2    5    5    0    0  0.90298258741E+01 -0.22437436393E+02 -0.17059185514E+03  0.19095089731E+03  0.82314566368E+02 0.  0.
          5    1    3    3  501    0  0.70286258680E+02  0.47145742595E+02 -0.55960845088E+03  0.56599168501E+03  0.47000000000E+01 0. -1.
        -11    1    4    4    0    0  0.27480396814E+02 -0.79574404242E+02 -0.52019825284E+03  0.52696629900E+03  0.00000000000E+00 0.  1.
         12    1    4    4    0    0 -0.14941328204E+02  0.73594125786E+01 -0.41083536525E+02  0.44331266792E+02  0.00000000000E+00 0. -1.
         -5    1    5    5    0  502 -0.91855153163E+02  0.47506685462E+02 -0.14633184877E+03  0.17924662979E+03  0.47000000000E+01 0.  1.
         11    1    6    6    0    0  0.28054794840E+02 -0.45848986281E+02 -0.89138840055E+02  0.10409098838E+03  0.00000000000E+00 0. -1.
        -12    1    6    6    0    0 -0.19024968966E+02  0.23411549887E+02 -0.81453015080E+02  0.86859908922E+02  0.00000000000E+00 0.  1.
</event>
<event>
12    1  0.8331241E-002  0.1730802E+03  0.7818608E-02  0.1174943E+00
         21   -1    0    0  503  502  0.00000000000E+00  0.00000000000E+00  0.97448862732E+02  0.97448862732E+02  0.00000000000E+00 0. -1.
         21   -1    0    0  501  503 -0.00000000000E+00 -0.00000000000E+00 -0.35223486065E+03  0.35223486065E+03  0.00000000000E+00 0. -1.
          6    2    1    2  501    0 -0.40304788745E+01 -0.68342217663E+01 -0.20892057738E+03  0.27062960983E+03  0.17184186543E+03 0.  0.
         24    2    3    3    0    0  0.20793589848E+02  0.17925772156E+00 -0.26707035753E+02  0.86539175432E+02  0.79645198309E+02 0.  0.
         -6    2    1    2    0  502  0.40304788745E+01  0.68342217663E+01 -0.45865420537E+02  0.17905411356E+03  0.17289819962E+03 0.  0.
        -24    2    5    5    0    0  0.28715524854E+02 -0.42917282703E+02 -0.70155798130E+02  0.11825381639E+03  0.79972836371E+02 0.  0.
          5    1    3    3  501    0 -0.24824068722E+02 -0.70134794879E+01 -0.18221354163E+03  0.18409043439E+03  0.47000000000E+01 0. -1.
        -11    1    4    4    0    0  0.21992738693E+01 -0.15060126049E+02 -0.50482581998E+02  0.52726988226E+02  0.00000000000E+00 0.  1.
         12    1    4    4    0    0  0.18594315979E+02  0.15239383770E+02  0.23775546245E+02  0.33812187206E+02  0.00000000000E+00 0. -1.
         -5    1    5    5    0  502 -0.24685045980E+02  0.49751504469E+02  0.24290377593E+02  0.60800297167E+02  0.47000000000E+01 0.  1.
         11    1    6    6    0    0 -0.22142979054E+01  0.67014386465E+01 -0.58134570965E+02  0.58561427035E+02  0.00000000000E+00 0. -1.
        -12    1    6    6    0    0  0.30929822759E+02 -0.49618721350E+02 -0.12021227166E+02  0.59692389355E+02  0.00000000000E+00 0.  1.
</event>
<event>
12    1  0.8331241E-002  0.2024539E+03  0.7818608E-02  0.1147977E+00
         21   -1    0    0  503  502  0.00000000000E+00  0.00000000000E+00  0.57570069230E+03  0.57570069230E+03  0.00000000000E+00 0. -1.
         21   -1    0    0  501  503 -0.00000000000E+00 -0.00000000000E+00 -0.70778510018E+02  0.70778510018E+02  0.00000000000E+00 0.  1.
          6    2    1    2  501    0 -0.24083932978E+01  0.10567747291E+03  0.26383160704E+03  0.33255781713E+03  0.17266747298E+03 0.  0.
         24    2    3    3    0    0 -0.62847757007E+02  0.45710041011E+02  0.10941655677E+03  0.15616306856E+03  0.79847809468E+02 0.  0.
         -6    2    1    2    0  502  0.24083932978E+01 -0.10567747291E+03  0.24109057524E+03  0.31392138518E+03  0.17102175875E+03 0.  0.
        -24    2    5    5    0    0  0.69919782056E+02 -0.69670023436E+02  0.15799783079E+03  0.20086910431E+03  0.75115873458E+02 0.  0.
          5    1    3    3  501    0  0.60439363709E+02  0.59967431896E+02  0.15441505027E+03  0.17639474857E+03  0.47000000000E+01 0. -1.
        -13    1    4    4    0    0 -0.50691107452E+02 -0.75819919474E+01  0.28887651271E+02  0.58835120231E+02  0.00000000000E+00 0.  1.
         14    1    4    4    0    0 -0.12156649555E+02  0.53292032958E+02  0.80528905500E+02  0.97327948331E+02  0.00000000000E+00 0. -1.
         -5    1    5    5    0  502 -0.67511388758E+02 -0.36007449471E+02  0.83092744451E+02  0.11305228087E+03  0.47000000000E+01 0.  1.
         13    1    6    6    0    0 -0.28915083241E+01 -0.42711944122E+02  0.34447294912E+02  0.54948040164E+02  0.00000000000E+00 0. -1.
        -14    1    6    6    0    0  0.72811290380E+02 -0.26958079313E+02  0.12355053587E+03  0.14592106415E+03  0.00000000000E+00 0.  1.
</event>
<event>
12    1  0.8331241E-002  0.1859068E+03  0.7818608E-02  0.1162980E+00
         21   -1    0    0  503  502  0.00000000000E+00  0.00000000000E+00  0.27192772294E+02  0.27192772294E+02  0.00000000000E+00 0.  1.
         21   -1    0    0  501  503 -0.00000000000E+00 -0.00000000000E+00 -0.14322136421E+04  0.14322136421E+04  0.00000000000E+00 0.  1.
          6    2    1    2  501    0  0.19472371820E+02  0.59646227441E+02 -0.96936705046E+03  0.98703283050E+03  0.17499852644E+03 0.  0.
         24    2    3    3    0    0 -0.26058525318E+02  0.83374820363E+02 -0.45967930749E+03  0.47474405056E+03  0.80289727854E+02 0.  0.
         -6    2    1    2    0  502 -0.19472371820E+02 -0.59646227441E+02 -0.43565381932E+03  0.47237358386E+03  0.17148092236E+03 0.  0.
        -24    2    5    5    0    0 -0.58776988089E+02 -0.88672629609E+02 -0.29664832805E+03  0.32495580513E+03  0.79236829724E+02 0.  0.
          5    1    3    3  501    0  0.45530897138E+02 -0.23728592922E+02 -0.50968774297E+03  0.51228877993E+03  0.47000000000E+01 0. -1.
        -13    1    4    4    0    0  0.26682571331E+02  0.10794038364E+02 -0.12194044393E+03  0.12529143125E+03  0.00000000000E+00 0.  1.
         14    1    4    4    0    0 -0.52741096650E+02  0.72580781999E+02 -0.33773886356E+03  0.34945261932E+03  0.00000000000E+00 0. -1.
         -5    1    5    5    0  502  0.39304616270E+02  0.29026402168E+02 -0.13900549126E+03  0.14741777873E+03  0.47000000000E+01 0.  1.
         11    1    6    6    0    0 -0.43416461733E+00 -0.21535841004E+02 -0.16299154342E+03  0.16440871076E+03  0.00000000000E+00 0. -1.
        -12    1    6    6    0    0 -0.58342823472E+02 -0.67136788605E+02 -0.13365678463E+03  0.16054709438E+03  0.00000000000E+00 0.  1.
</event>
<event>
12    1  0.8331241E-002  0.1732739E+03  0.7818608E-02  0.1174548E+00
         21   -1    0    0  501  502  0.00000000000E+00  0.00000000000E+00  0.33348150589E+02  0.33348150589E+02  0.00000000000E+00 0.  1.
         21   -1    0    0  502  503 -0.00000000000E+00 -0.00000000000E+00 -0.89910744833E+03  0.89910744833E+03  0.00000000000E+00 0.  1.
         -6    2    1    2    0  503 -0.53127941585E+01 -0.30636291904E+02 -0.42544840318E+03  0.45938020688E+03  0.17046120538E+03 0.  0.
        -24    2    3    3    0    0 -0.32694594171E+02 -0.78319688496E+02 -0.27251706948E+03  0.29679622209E+03  0.81360519872E+02 0.  0.
          6    2    1    2  501    0  0.53127941585E+01  0.30636291904E+02 -0.44031089456E+03  0.47307539205E+03  0.17017589290E+03 0.  0.
         24    2    5    5    0    0  0.15449442646E+02 -0.42728931378E+02 -0.17931392979E+03  0.20173296401E+03  0.80487617046E+02 0.  0.
          5    1    5    5  501    0 -0.10136648488E+02  0.73365223282E+02 -0.26099696478E+03  0.27134242804E+03  0.47000000000E+01 0. -1.
        -13    1    6    6    0    0 -0.58069398508E+01 -0.58341374817E+02 -0.15554880830E+03  0.16623136987E+03  0.00000000000E+00 0.  1.
         14    1    6    6    0    0  0.21256382497E+02  0.15612443438E+02 -0.23765121484E+02  0.35501594135E+02  0.00000000000E+00 0. -1.
         -5    1    3    3    0  503  0.27381800012E+02  0.47683396592E+02 -0.15293133369E+03  0.16258398478E+03  0.47000000000E+01 0.  1.
         11    1    4    4    0    0 -0.37451699609E+02 -0.44105368428E+02 -0.24742701338E+03  0.25410242084E+03  0.00000000000E+00 0. -1.
        -12    1    4    4    0    0  0.47571054381E+01 -0.34214320069E+02 -0.25090056106E+02  0.42693801252E+02  0.00000000000E+00 0.  1.
</event>
<event>
12    1  0.8331241E-002  0.3131875E+03  0.7818608E-02  0.1078862E+00
         21   -1    0    0  501  502  0.00000000000E+00  0.00000000000E+00  0.23185026280E+03  0.23185026280E+03  0.00000000000E+00 0.  1.
         21   -1    0    0  502  503 -0.00000000000E+00 -0.00000000000E+00 -0.10183174016E+04  0.10183174016E+04  0.00000000000E+00 0. -1.
         -6    2    1    2    0  503 -0.24425665282E+03  0.94408327221E+02 -0.87137926101E+03  0.92595260784E+03  0.17179106717E+03 0.  0.
        -24    2    3    3    0    0 -0.80457029810E+02  0.94800962377E+02 -0.47603969460E+03  0.49799708045E+03  0.76985356957E+02 0.  0.
          6    2    1    2  501    0  0.24425665282E+03 -0.94408327221E+02  0.84912122192E+02  0.32421505656E+03  0.17126321763E+03 0.  0.
         24    2    5    5    0    0  0.21366216650E+03 -0.93018957677E+02  0.13986508089E+02  0.24681682870E+03  0.80117892139E+02 0.  0.
          5    1    5    5  501    0  0.30594486320E+02 -0.13893695441E+01  0.70925614103E+02  0.77398227867E+02  0.47000000000E+01 0. -1.
        -11    1    6    6    0    0  0.16812559891E+03 -0.35231538852E+02  0.20304160895E+02  0.17297322709E+03  0.00000000000E+00 0.  1.
         12    1    6    6    0    0  0.45536567584E+02 -0.57787418825E+02 -0.63176528057E+01  0.73843601610E+02  0.00000000000E+00 0. -1.
         -5    1    3    3    0  503 -0.16379962301E+03 -0.39263515523E+00 -0.39533956640E+03  0.42795552739E+03  0.47000000000E+01 0.  1.
         13    1    4    4    0    0 -0.66947390092E+02  0.78710835455E+02 -0.24359881533E+03  0.26460863835E+03  0.00000000000E+00 0. -1.
        -14    1    4    4    0    0 -0.13509639718E+02  0.16090126922E+02 -0.23244087928E+03  0.23338844211E+03  0.00000000000E+00 0.  1.
</event>
<event>
12    1  0.8331241E-002  0.2687988E+03  0.7818608E-02  0.1102021E+00
         21   -1    0    0  501  502  0.00000000000E+00  0.00000000000E+00  0.11494321107E+03  0.11494321107E+03  0.00000000000E+00 0.  1.
         21   -1    0    0  502  503 -0.00000000000E+00 -0.00000000000E+00 -0.65707609517E+03  0.65707609517E+03  0.00000000000E+00 0.  1.
         -6    2    1    2    0  503  0.14275183352E+02  0.20619330644E+03 -0.35277409206E+03  0.44351137853E+03  0.17185261818E+03 0.  0.
        -24    2    3    3    0    0  0.30375579843E+02  0.12199001409E+03 -0.10850567591E+03  0.18459330975E+03  0.80603777283E+02 0.  0.
          6    2    1    2  501    0 -0.14275183352E+02 -0.20619330644E+03 -0.18935879204E+03  0.32850792772E+03  0.17129286608E+03 0.  0.
         24    2    5    5    0    0  0.78292449781E+01 -0.18908335719E+03 -0.20939066315E+03  0.29379882263E+03  0.81605669666E+02 0.  0.
          5    1    5    5  501    0 -0.22104428330E+02 -0.17109949258E+02  0.20031871116E+02  0.34709105085E+02  0.47000000000E+01 0. -1.
        -11    1    6    6    0    0 -0.36043983745E+02 -0.10776461132E+03 -0.11896707931E+03  0.16451609701E+03  0.00000000000E+00 0.  1.
         12    1    6    6    0    0  0.43873228723E+02 -0.81318745862E+02 -0.90423583847E+02  0.12928272562E+03  0.00000000000E+00 0. -1.
         -5    1    3    3    0  503 -0.16100396492E+02  0.84203292354E+02 -0.24426841615E+03  0.25891806878E+03  0.47000000000E+01 0.  1.
         13    1    4    4    0    0 -0.18864051325E+02  0.86717425467E+02 -0.62981323334E+02  0.10882284411E+03  0.00000000000E+00 0. -1.
        -14    1    4    4    0    0  0.49239631168E+02  0.35272588623E+02 -0.45524352574E+02  0.75770465638E+02  0.00000000000E+00 0.  1.
</event>
<event>
12    1  0.8331241E-002  0.1892420E+03  0.7818608E-02  0.1159712E+00
         21   -1    0    0  501  502  0.00000000000E+00  0.00000000000E+00  0.70281747366E+02  0.70281747366E+02  0.00000000000E+00 0.  1.
         21   -1    0    0  502  503 -0.00000000000E+00 -0.00000000000E+00 -0.60256960694E+03  0.60256960694E+03  0.00000000000E+00 0. -1.
         -6    2    1    2    0  503  0.79273118531E+02 -0.37410567242E+01 -0.40149715144E+03  0.44281057673E+03  0.16906513959E+03 0.  0.
        -24    2    3    3    0    0  0.74828924652E+02 -0.57144447250E+02 -0.20150586860E+03  0.23571089979E+03  0.78039460422E+02 0.  0.
          6    2    1    2  501    0 -0.79273118531E+02  0.37410567242E+01 -0.13079070814E+03  0.23004077757E+03  0.17179734336E+03 0.  0.
         24    2    5    5    0    0 -0.50582772658E+02 -0.65026965650E+02 -0.83195806094E+02  0.14149959197E+03  0.79457342172E+02 0.  0.
          5    1    5    5  501    0 -0.28690345873E+02  0.68768022374E+02 -0.47594902042E+02  0.88541185603E+02  0.47000000000E+01 0. -1.
        -11    1    6    6    0    0 -0.68443975898E+02 -0.43369360444E+02 -0.40977713744E+02  0.90800067653E+02  0.00000000000E+00 0.  1.
         12    1    6    6    0    0  0.17861203240E+02 -0.21657605206E+02 -0.42218092351E+02  0.50699524319E+02  0.00000000000E+00 0. -1.
         -5    1    3    3    0  503  0.44441938794E+01  0.53403390526E+02 -0.19999128284E+03  0.20709967694E+03  0.47000000000E+01 0.  1.
         11    1    4    4    0    0  0.40805297823E+02 -0.17217508450E+00 -0.13782854076E+03  0.14374216021E+03  0.00000000000E+00 0. -1.
        -12    1    4    4    0    0  0.34023626829E+02 -0.56972272166E+02 -0.63677327841E+02  0.91968739577E+02  0.00000000000E+00 0.  1.
</event>
<event>
12    1  0.8331241E-002  0.2891453E+03  0.7818608E-02  0.1090832E+00
         21   -1    0    0  503  502  0.00000000000E+00  0.00000000000E+00  0.82332280604E+03  0.82332280604E+03  0.00000000000E+00 0.  1.
         21   -1    0    0  501  503 -0.00000000000E+00 -0.00000000000E+00 -0.14128087248E+03  0.14128087248E+03  0.00000000000E+00 0.  1.
          6    2    1    2  501    0  0.62010145503E+02  0.22389744620E+03  0.85051019181E+02  0.30139458588E+03  0.17213278588E+03 0.  0.
         24    2    3    3    0    0  0.43555349936E+02  0.21122947897E+03  0.18599366347E+02  0.23111678684E+03  0.80957219805E+02 0.  0.
         -6    2    1    2    0  502 -0.62010145503E+02 -0.22389744620E+03  0.59699091438E+03  0.66320909264E+03  0.17167651018E+03 0.  0.
        -24    2    5    5    0    0 -0.75223654442E+01 -0.18006894420E+03  0.30587977659E+03  0.36378023580E+03  0.79323461748E+02 0.  0.
          5    1    3    3  501    0  0.18454795567E+02  0.12667967227E+02  0.66451652834E+02  0.70277799037E+02  0.47000000000E+01 0. -1.
        -13    1    4    4    0    0  0.54115666872E+02  0.15969635410E+03  0.41650039534E+02  0.17368407154E+03  0.00000000000E+00 0.  1.
         14    1    4    4    0    0 -0.10560316937E+02  0.51533124867E+02 -0.23050673187E+02  0.57432715300E+02  0.00000000000E+00 0. -1.
         -5    1    5    5    0  502 -0.54487780059E+02 -0.43828501993E+02  0.29111113779E+03  0.29942885684E+03  0.47000000000E+01 0.  1.
         11    1    6    6    0    0 -0.19100638304E+02 -0.56015351146E+01  0.17353321038E+02  0.26407372650E+02  0.00000000000E+00 0. -1.
        -12    1    6    6    0    0  0.11578272860E+02 -0.17446740909E+03  0.28852645555E+03  0.33737286315E+03  0.00000000000E+00 0.  1.
</event>
<event>
12    1  0.8331241E-002  0.3653631E+03  0.7818608E-02  0.1056504E+00
         21   -1    0    0  501  502  0.00000000000E+00  0.00000000000E+00  0.86741159182E+03  0.86741159182E+03  0.00000000000E+00 0.  1.
         21   -1    0    0  502  503 -0.00000000000E+00 -0.00000000000E+00 -0.19200256810E+03  0.19200256810E+03  0.00000000000E+00 0. -1.
         -6    2    1    2    0  503  0.29185013406E+03  0.13590243803E+03  0.10131117923E+03  0.37891543040E+03  0.17224103734E+03 0.  0.
        -24    2    3    3    0    0  0.23268546912E+03  0.76663105528E+02  0.13168648383E+03  0.28972739745E+03  0.81122595617E+02 0.  0.
          6    2    1    2  501    0 -0.29185013406E+03 -0.13590243803E+03  0.57409784448E+03  0.68049872953E+03  0.17275477544E+03 0.  0.
         24    2    5    5    0    0 -0.25336168376E+03 -0.80039204320E+02  0.53554035566E+03  0.60232692111E+03  0.73456315777E+02 0.  0.
          5    1    5    5  501    0 -0.38488450300E+02 -0.55863233705E+02  0.38557488815E+02  0.78171808411E+02  0.47000000000E+01 0. -1.
        -11    1    6    6    0    0 -0.11289600974E+03 -0.54136405187E+02  0.18089163507E+03  0.21999555227E+03  0.00000000000E+00 0.  1.
         12    1    6    6    0    0 -0.14046567402E+03 -0.25902799134E+02  0.35464872059E+03  0.38233136884E+03  0.00000000000E+00 0. -1.
         -5    1    3    3    0  503  0.59164664941E+02  0.59239332498E+02 -0.30375304595E+02  0.89188032951E+02  0.47000000000E+01 0.  1.
         11    1    4    4    0    0  0.35444408120E+02  0.10519228083E+02 -0.96632583386E+01  0.38214379338E+02  0.00000000000E+00 0. -1.
        -12    1    4    4    0    0  0.19724106100E+03  0.66143877444E+02  0.14134974217E+03  0.25151301811E+03  0.00000000000E+00 0.  1.
</event>
<event>
12    1  0.8331241E-002  0.2070073E+03  0.7818608E-02  0.1144266E+00
         21   -1    0    0  501  502  0.00000000000E+00  0.00000000000E+00  0.17131820428E+03  0.17131820428E+03  0.00000000000E+00 0. -1.
         21   -1    0    0  502  503 -0.00000000000E+00 -0.00000000000E+00 -0.24833056446E+03  0.24833056446E+03  0.00000000000E+00 0. -1.
         -6    2    1    2    0  503 -0.10169330158E+02  0.11509067805E+03 -0.36157001609E+02  0.21014126545E+03  0.17176362604E+03 0.  0.
        -24    2    3    3    0    0  0.40501174935E+02  0.72989161678E+02  0.26981933705E+02  0.11877030223E+03  0.80066204184E+02 0.  0.
          6    2    1    2  501    0  0.10169330158E+02 -0.11509067805E+03 -0.40855358570E+02  0.20950750328E+03  0.16992631979E+03 0.  0.
         24    2    5    5    0    0  0.56531847480E+02 -0.35469267133E+02 -0.30593296979E+02  0.11668265749E+03  0.90691642656E+02 0.  0.
          5    1    5    5  501    0 -0.46362517322E+02 -0.79621410918E+02 -0.10262061591E+02  0.92824845796E+02  0.47000000000E+01 0. -1.
        -11    1    6    6    0    0  0.36214683161E+02 -0.35144986178E+02 -0.61587040266E+02  0.79621836570E+02  0.00000000000E+00 0.  1.
         12    1    6    6    0    0  0.20317164318E+02 -0.32428095485E+00  0.30993743287E+02  0.37060820917E+02  0.00000000000E+00 0. -1.
         -5    1    3    3    0  503 -0.50670505093E+02  0.42101516373E+02 -0.63138935314E+02  0.91370963221E+02  0.47000000000E+01 0.  1.
         13    1    4    4    0    0  0.36444847847E+02  0.70090728072E+02  0.51137110845E+02  0.94106010444E+02  0.00000000000E+00 0. -1.
        -14    1    4    4    0    0  0.40563270886E+01  0.28984336067E+01 -0.24155177139E+02  0.24664291789E+02  0.00000000000E+00 0.  1.
</event>
<event>
12    1  0.8331241E-002  0.2011078E+03  0.7818608E-02  0.1148908E+00
         21   -1    0    0  501  502  0.00000000000E+00  0.00000000000E+00  0.85782556823E+03  0.85782556823E+03  0.00000000000E+00 0.  1.
         21   -1    0    0  502  503 -0.00000000000E+00 -0.00000000000E+00 -0.11748175908E+03  0.11748175908E+03  0.00000000000E+00 0. -1.
         -6    2    1    2    0  503 -0.90742352158E+02 -0.48314417887E+02 -0.72722118043E+01  0.20123927391E+03  0.17284647190E+03 0.  0.
        -24    2    3    3    0    0 -0.12412599955E+03 -0.60079364914E+02 -0.24499001049E+02  0.16159417132E+03  0.80595789597E+02 0.  0.
          6    2    1    2  501    0  0.90742352158E+02  0.48314417887E+02  0.74761602095E+03  0.77406805341E+03  0.17228807003E+03 0.  0.
         24    2    5    5    0    0  0.19981183645E+02  0.83108823818E+02  0.35448665823E+03  0.37308104678E+03  0.78881888324E+02 0.  0.
          5    1    5    5  501    0  0.70761168512E+02 -0.34794405932E+02  0.39312936272E+03  0.40098700663E+03  0.47000000000E+01 0. -1.
        -11    1    6    6    0    0 -0.21146541058E+02  0.69856282493E+01  0.14066304139E+03  0.14241512003E+03  0.00000000000E+00 0.  1.
         12    1    6    6    0    0  0.41127724703E+02  0.76123195569E+02  0.21382361684E+03  0.23066592675E+03  0.00000000000E+00 0. -1.
         -5    1    3    3    0  503  0.33383647387E+02  0.11764947027E+02  0.17226789244E+02  0.39645102586E+02  0.47000000000E+01 0.  1.
         11    1    4    4    0    0 -0.45644876881E+02 -0.27242400048E+02 -0.49797888254E+02  0.72838402099E+02  0.00000000000E+00 0. -1.
        -12    1    4    4    0    0 -0.78481122665E+02 -0.32836964866E+02  0.25298887205E+02  0.88755769221E+02  0.00000000000E+00 0.  1.
</event>
<event>
12    1  0.8331241E-002  0.2542018E+03  0.7818608E-02  0.1111036E+00
         21   -1    0    0  501  502  0.00000000000E+00  0.00000000000E+00  0.71035864420E+02  0.71035864420E+02  0.00000000000E+00 0.  1.
         21   -1    0    0  502  503 -0.00000000000E+00 -0.00000000000E+00 -0.11400549249E+04  0.11400549249E+04  0.00000000000E+00 0.  1.
         -6    2    1    2    0  503 -0.18023746922E+03 -0.43576388409E+02 -0.81346825718E+03  0.85226120078E+03  0.17387956171E+03 0.  0.
        -24    2    3    3    0    0 -0.18591125734E+03 -0.12644469772E+01 -0.74106380700E+03  0.76807695840E+03  0.78753117714E+02 0.  0.
          6    2    1    2  501    0  0.18023746922E+03  0.43576388409E+02 -0.25555080327E+03  0.35882958851E+03  0.17049344152E+03 0.  0.
         24    2    5    5    0    0  0.79471008277E+02 -0.16502143064E+02 -0.19706972774E+03  0.22766009591E+03  0.80029243360E+02 0.  0.
          5    1    5    5  501    0  0.10076646094E+03  0.60078531473E+02 -0.58481075524E+02  0.13116949260E+03  0.47000000000E+01 0. -1.
        -11    1    6    6    0    0  0.73876099402E+02  0.19292687264E+02 -0.14945374443E+03  0.16782820850E+03  0.00000000000E+00 0.  1.
         12    1    6    6    0    0  0.55949088753E+01 -0.35794830328E+02 -0.47615983317E+02  0.59831887407E+02  0.00000000000E+00 0. -1.
         -5    1    3    3    0  503  0.56737881179E+01 -0.42311941432E+02 -0.72404450178E+02  0.84184242379E+02  0.47000000000E+01 0.  1.
         11    1    4    4    0    0  0.22101280333E+01 -0.60611335989E+01 -0.45299594632E+01  0.78830539238E+01  0.00000000000E+00 0. -1.
        -12    1    4    4    0    0 -0.18812138537E+03  0.47966866216E+01 -0.73653384754E+03  0.76019390448E+03  0.00000000000E+00 0.  1.
</event>
<event>
12    1  0.8331241E-002  0.1957814E+03  0.7818608E-02  0.1153573E+00
         21   -1    0    0  503  502  0.00000000000E+00  0.00000000000E+00  0.15462770044E+03  0.15462770044E+03  0.00000000000E+00 0.  1.
         21   -1    0    0  501  503 -0.00000000000E+00 -0.00000000000E+00 -0.74724286680E+03  0.74724286680E+03  0.00000000000E+00 0. -1.
          6    2    1    2  501    0 -0.93976887777E+02  0.89694561201E+00 -0.66567710964E+03  0.69387056525E+03  0.17174948933E+03 0.  0.
         24    2    3    3    0    0 -0.10502722088E+03  0.37552506963E+02 -0.61585960472E+03  0.63086569373E+03  0.79167941066E+02 0.  0.
         -6    2    1    2    0  502  0.93976887777E+02 -0.89694561201E+00  0.73061943277E+02  0.20800000199E+03  0.17056814862E+03 0.  0.
        -24    2    5    5    0    0  0.23121342975E+02  0.46829245391E+02  0.76343537231E+02  0.12237782965E+03  0.80127540759E+02 0.  0.
          5    1    3    3  501    0  0.11050333108E+02 -0.36655561351E+02 -0.49817504914E+02  0.63004871522E+02  0.47000000000E+01 0. -1.
        -11    1    4    4    0    0 -0.43290252358E+00  0.31618976507E+02 -0.12351432977E+03  0.12749798719E+03  0.00000000000E+00 0.  1.
         12    1    4    4    0    0 -0.10459431836E+03  0.59335304558E+01 -0.49234527495E+03  0.50336770654E+03  0.00000000000E+00 0. -1.
         -5    1    5    5    0  502  0.70855544802E+02 -0.47726191003E+02 -0.32815939541E+01  0.85622172337E+02  0.47000000000E+01 0.  1.
         13    1    6    6    0    0 -0.23582943551E+02  0.42492392860E+02  0.42179143642E+02  0.64349349925E+02  0.00000000000E+00 0. -1.
        -14    1    6    6    0    0  0.46704286527E+02  0.43368525313E+01  0.34164393589E+02  0.58028479725E+02  0.00000000000E+00 0.  1.
</event>
<event>
12    1  0.8331241E-002  0.3248450E+03  0.7818608E-02  0.1073694E+00
         21   -1    0    0  503  502  0.00000000000E+00  0.00000000000E+00  0.99699144194E+02  0.99699144194E+02  0.00000000000E+00 0. -1.
         21   -1    0    0  501  503 -0.00000000000E+00 -0.00000000000E+00 -0.10780505577E+04  0.10780505577E+04  0.00000000000E+00 0.  1.
          6    2    1    2  501    0 -0.17934267603E+03 -0.20838963523E+03 -0.58382992740E+03  0.66811798386E+03  0.17301508810E+03 0.  0.
         24    2    3    3    0    0 -0.16166806475E+03 -0.16867941820E+03 -0.33736096944E+03  0.41780152324E+03  0.78462601482E+02 0.  0.
         -6    2    1    2    0  502  0.17934267603E+03  0.20838963523E+03 -0.39452148611E+03  0.50963171804E+03  0.16878166226E+03 0.  0.
        -24    2    5    5    0    0  0.13118036871E+03  0.11585180746E+03 -0.15074941972E+03  0.24443411669E+03  0.79954483467E+02 0.  0.
          5    1    3    3  501    0 -0.17674611277E+02 -0.39710217025E+02 -0.24646895796E+03  0.25031646062E+03  0.47000000000E+01 0. -1.
        -13    1    4    4    0    0 -0.60356672331E+02 -0.22718746138E+02 -0.12708257482E+03  0.14250982473E+03  0.00000000000E+00 0.  1.
         14    1    4    4    0    0 -0.10131139242E+03 -0.14596067206E+03 -0.21027839462E+03  0.27529169851E+03  0.00000000000E+00 0. -1.
         -5    1    5    5    0  502  0.48162307318E+02  0.92537827771E+02 -0.24377206638E+03  0.26519760135E+03  0.47000000000E+01 0.  1.
         11    1    6    6    0    0 -0.94614714358E+01  0.18470504571E+02 -0.22669225835E+02  0.30733902791E+02  0.00000000000E+00 0. -1.
        -12    1    6    6    0    0  0.14064184015E+03  0.97381302885E+02 -0.12808019389E+03  0.21370021389E+03  0.00000000000E+00 0.  1.
</event>
<event>
12    1  0.8331241E-002  0.1813576E+03  0.7818608E-02  0.1167384E+00
         21   -1    0    0  503  502  0.00000000000E+00  0.00000000000E+00  0.21308608943E+04  0.21308608943E+04  0.00000000000E+00 0.  1.
         21   -1    0    0  501  503 -0.00000000000E+00 -0.00000000000E+00 -0.42106358705E+02  0.42106358705E+02  0.00000000000E+00 0.  1.
          6    2    1    2  501    0 -0.45204527062E+02 -0.85146481454E+01  0.17083497591E+03  0.24649222880E+03  0.17163298448E+03 0.  0.
         24    2    3    3    0    0  0.33167206491E+02 -0.56657197855E+01  0.43445755329E+02  0.96824768960E+02  0.79720375444E+02 0.  0.
         -6    2    1    2    0  502  0.45204527062E+02  0.85146481454E+01  0.19179195597E+04  0.19264750242E+04  0.17542700189E+03 0.  0.
        -24    2    5    5    0    0  0.88278676058E+02  0.13680046333E+02  0.16913794790E+04  0.16957705340E+04  0.83023452515E+02 0.  0.
          5    1    3    3  501    0 -0.78371733553E+02 -0.28489283599E+01  0.12738922058E+03  0.14966745984E+03  0.47000000000E+01 0. -1.
        -11    1    4    4    0    0 -0.15888557963E+02  0.11927352384E+02 -0.99433215471E+01  0.22216607581E+02  0.00000000000E+00 0.  1.
         12    1    4    4    0    0  0.49055764454E+02 -0.17593072169E+02  0.53389076876E+02  0.74608161378E+02  0.00000000000E+00 0. -1.
         -5    1    5    5    0  502 -0.43074148996E+02 -0.51653981880E+01  0.22654008071E+03  0.23070449024E+03  0.47000000000E+01 0.  1.
         11    1    6    6    0    0  0.45844486608E+02  0.11473348537E+02  0.29638094663E+03  0.30012500763E+03  0.00000000000E+00 0. -1.
        -12    1    6    6    0    0  0.42434189450E+02  0.22066977965E+01  0.13949985324E+04  0.13956455264E+04  0.00000000000E+00 0.  1.
</event>
<event>
12    1  0.8331241E-002  0.2232454E+03  0.7818608E-02  0.1135488E+00
         21   -1    0    0  503  502  0.00000000000E+00  0.00000000000E+00  0.18638760177E+03  0.18638760177E+03  0.00000000000E+00 0.  1.
         21   -1    0    0  501  503 -0.00000000000E+00 -0.00000000000E+00 -0.27672016193E+03  0.27672016193E+03  0.00000000000E+00 0.  1.
          6    2    1    2  501    0 -0.11910597302E+03  0.57524095673E+02 -0.12774231638E+03  0.25720928216E+03  0.17984232272E+03 0.  0.
         24    2    3    3    0    0 -0.35114300644E+02  0.86703945129E+02 -0.11280596876E+03  0.16692501374E+03  0.79926124729E+02 0.  0.
         -6    2    1    2    0  502  0.11910597302E+03 -0.57524095673E+02  0.37409756228E+02  0.20589848155E+03  0.15329527211E+03 0.  0.
        -24    2    5    5    0    0  0.13098233770E+03 -0.75200462357E+02  0.10346452275E+02  0.17114198002E+03  0.79818831884E+02 0.  0.
          5    1    3    3  501    0 -0.83991672376E+02 -0.29179849456E+02 -0.14936347621E+02  0.90284268414E+02  0.47000000000E+01 0. -1.
        -11    1    4    4    0    0 -0.59103973968E+02  0.75185970845E+02 -0.80011739007E+02  0.12469197380E+03  0.00000000000E+00 0.  1.
         12    1    4    4    0    0  0.23989673324E+02  0.11517974284E+02 -0.32794229753E+02  0.42233039944E+02  0.00000000000E+00 0. -1.
         -5    1    5    5    0  502 -0.11876364682E+02  0.17676366684E+02  0.27063303953E+02  0.34756501522E+02  0.47000000000E+01 0.  1.
         13    1    6    6    0    0  0.64123988334E+02 -0.79991207421E+02  0.16461672968E+02  0.10383383755E+03  0.00000000000E+00 0. -1.
        -14    1    6    6    0    0  0.66858349368E+02  0.47907450640E+01 -0.61152206933E+01  0.67308142469E+02  0.00000000000E+00 0.  1.
</event>
<event>
12    1  0.8331241E-002  0.2289523E+03  0.7818608E-02  0.1127433E+00
         21   -1    0    0  501  502  0.00000000000E+00  0.00000000000E+00  0.14079805818E+04  0.14079805818E+04  0.00000000000E+00 0. -1.
         21   -1    0    0  502  503 -0.00000000000E+00 -0.00000000000E+00 -0.41438886844E+02  0.41438886844E+02  0.00000000000E+00 0. -1.
         -6    2    1    2    0  503 -0.14576146524E+03 -0.37856856410E+02  0.45135993201E+03  0.50610764370E+03  0.17245176852E+03 0.  0.
        -24    2    3    3    0    0 -0.13391120221E+03 -0.84771735137E+02  0.38395777903E+03  0.42300183882E+03  0.79928232862E+02 0.  0.
          6    2    1    2  501    0  0.14576146524E+03  0.37856856410E+02  0.91518176295E+03  0.94331182494E+03  0.17204648649E+03 0.  0.
         24    2    5    5    0    0  0.16897242992E+03  0.54261435166E+02  0.85140313778E+03  0.87332852612E+03  0.79494818035E+02 0.  0.
          5    1    5    5  501    0 -0.23210964678E+02 -0.16404578756E+02  0.63778625175E+02  0.69983298827E+02  0.47000000000E+01 0. -1.
        -11    1    6    6    0    0 -0.81456365177E+01  0.40275457694E+01  0.23345987401E+02  0.25052098653E+02  0.00000000000E+00 0.  1.
         12    1    6    6    0    0  0.17711806644E+03  0.50233889396E+02  0.82805715037E+03  0.84827642746E+03  0.00000000000E+00 0. -1.
         -5    1    3    3    0  503 -0.11850263032E+02  0.46914878727E+02  0.67402152973E+02  0.83105804883E+02  0.47000000000E+01 0.  1.
         11    1    4    4    0    0 -0.59650038611E+02  0.52019068554E+01  0.15174959120E+03  0.16313529775E+03  0.00000000000E+00 0. -1.
        -12    1    4    4    0    0 -0.74261163599E+02 -0.89973641992E+02  0.23220818783E+03  0.25986654107E+03  0.00000000000E+00 0.  1.
</event>
<event>
12    1  0.8331241E-002  0.1806006E+03  0.7818608E-02  0.1168064E+00
         21   -1    0    0  501  502  0.00000000000E+00  0.00000000000E+00  0.27470868554E+03  0.27470868554E+03  0.00000000000E+00 0. -1.
         21   -1    0    0  502  503 -0.00000000000E+00 -0.00000000000E+00 -0.13469107818E+03  0.13469107818E+03  0.00000000000E+00 0. -1.
         -6    2    1    2    0  503  0.54013473127E+02  0.82463543140E+01  0.14588060499E+03  0.23215886868E+03  0.17213695640E+03 0.  0.
        -24    2    3    3    0    0  0.30811861575E+02 -0.22319792009E+02  0.16919980724E+03  0.18700934739E+03  0.69974118875E+02 0.  0.
          6    2    1    2  501    0 -0.54013473127E+02 -0.82463543140E+01 -0.58629976337E+01  0.17724089503E+03  0.16850668382E+03 0.  0.
         24    2    5    5    0    0 -0.24169991763E+02  0.42692815896E+02  0.41191886230E+02  0.10159907765E+03  0.78858963074E+02 0.  0.
          5    1    5    5  501    0 -0.29843481364E+02 -0.50939170210E+02 -0.47054883864E+02  0.75641817384E+02  0.47000000000E+01 0. -1.
        -11    1    6    6    0    0  0.25639302196E+02  0.24548621324E+02  0.17776649457E+01  0.35541084940E+02  0.00000000000E+00 0.  1.
         12    1    6    6    0    0 -0.49809293960E+02  0.18144194572E+02  0.39414221285E+02  0.66057992710E+02  0.00000000000E+00 0. -1.
         -5    1    3    3    0  503  0.23201611553E+02  0.30566146323E+02 -0.23319202248E+02  0.45149521295E+02  0.47000000000E+01 0.  1.
         13    1    4    4    0    0  0.24629597286E+02  0.13866316226E+02  0.23505897220E+02  0.36761651109E+02  0.00000000000E+00 0. -1.
        -14    1    4    4    0    0  0.61822642888E+01 -0.36186108235E+02  0.14569391002E+03  0.15024769628E+03  0.00000000000E+00 0.  1.
</event>
<event>
12    1  0.8331241E-002  0.2189897E+03  0.7818608E-02  0.1134674E+00
         21   -1    0    0  503  502  0.00000000000E+00  0.00000000000E+00  0.10884816715E+03  0.10884816715E+03  0.00000000000E+00 0. -1.
         21   -1    0    0  501  503 -0.00000000000E+00 -0.00000000000E+00 -0.89306914728E+03  0.89306914728E+03  0.00000000000E+00 0. -1.
          6    2    1    2  501    0 -0.18316971002E+02  0.13426942370E+03 -0.74892958201E+03  0.78028970420E+03  0.17202532983E+03 0.  0.
         24    2    3    3    0    0 -0.30556196070E+02  0.16233034105E+03 -0.57246310950E+03  0.60112575796E+03  0.79707869123E+02 0.  0.
         -6    2    1    2    0  502  0.18316971002E+02 -0.13426942370E+03 -0.35291398114E+02  0.22162761023E+03  0.17178336726E+03 0.  0.
        -24    2    5    5    0    0  0.32749471577E+02 -0.40176834876E+01 -0.29888859993E+02  0.90383218653E+02  0.78658201055E+02 0.  0.
          5    1    3    3  501    0  0.12239225068E+02 -0.28060917347E+02 -0.17646647251E+03  0.17916394624E+03  0.47000000000E+01 0. -1.
        -11    1    4    4    0    0 -0.50580389914E+01  0.14753311645E+03 -0.40449365778E+03  0.43058881011E+03  0.00000000000E+00 0.  1.
         12    1    4    4    0    0 -0.25498157079E+02  0.14797224597E+02 -0.16796945172E+03  0.17053694785E+03  0.00000000000E+00 0. -1.
         -5    1    5    5    0  502 -0.14432500575E+02 -0.13025174022E+03 -0.54025381208E+01  0.13124439158E+03  0.47000000000E+01 0.  1.
         11    1    6    6    0    0  0.22286661354E+01 -0.95901601167E+01  0.25257398033E+02  0.27108564684E+02  0.00000000000E+00 0. -1.
        -12    1    6    6    0    0  0.30520805442E+02  0.55724766291E+01 -0.55146258026E+02  0.63274653969E+02  0.00000000000E+00 0.  1.
</event>
<event>
12    1  0.8331241E-002  0.2777102E+03  0.7818608E-02  0.1097174E+00
         21   -1    0    0  503  502  0.00000000000E+00  0.00000000000E+00  0.25037722845E+03  0.25037722845E+03  0.00000000000E+00 0. -1.
         21   -1    0    0  501  503 -0.00000000000E+00 -0.00000000000E+00 -0.13465853650E+04  0.13465853650E+04  0.00000000000E+00 0. -1.
          6    2    1    2  501    0 -0.15586465518E+03  0.15004370882E+03 -0.12495827761E+04  0.12797139135E+04  0.17147501499E+03 0.  0.
         24    2    3    3    0    0 -0.52309737775E+01  0.46056993676E+02 -0.34970252564E+03  0.36139463455E+03  0.78521434605E+02 0.  0.
         -6    2    1    2    0  502  0.15586465518E+03 -0.15004370882E+03  0.15337463949E+03  0.31724868001E+03  0.17411501843E+03 0.  0.
        -24    2    5    5    0    0  0.12858266820E+03 -0.18052211352E+03  0.12230679495E+03  0.26566824834E+03  0.80615941713E+02 0.  0.
          5    1    3    3  501    0 -0.15063368140E+03  0.10398671514E+03 -0.89988025045E+03  0.91831927892E+03  0.47000000000E+01 0. -1.
        -13    1    4    4    0    0  0.15981094816E+02  0.12089666995E+02 -0.28217333849E+03  0.28288398399E+03  0.00000000000E+00 0.  1.
         14    1    4    4    0    0 -0.21212068593E+02  0.33967326681E+02 -0.67529187146E+02  0.78510650567E+02  0.00000000000E+00 0. -1.
         -5    1    5    5    0  502  0.27281986980E+02  0.30478404699E+02  0.31067844545E+02  0.51580431670E+02  0.47000000000E+01 0.  1.
         11    1    6    6    0    0  0.50722659423E+01  0.16014415399E+01  0.24125347611E+02  0.24704754484E+02  0.00000000000E+00 0. -1.
        -12    1    6    6    0    0  0.12351040226E+03 -0.18212355506E+03  0.98181447339E+02  0.24096349386E+03  0.00000000000E+00 0.  1.
</event>
<event>
12    1  0.8331241E-002  0.1914702E+03  0.7818608E-02  0.1157417E+00
         21   -1    0    0  503  502  0.00000000000E+00  0.00000000000E+00  0.12706487505E+03  0.12706487505E+03  0.00000000000E+00 0. -1.
         21   -1    0    0  501  503 -0.00000000000E+00 -0.00000000000E+00 -0.54788647028E+03  0.54788647028E+03  0.00000000000E+00 0. -1.
          6    2    1    2  501    0 -0.60457477611E+02  0.58128548185E+02 -0.44378483124E+03  0.48332783906E+03  0.17212434126E+03 0.  0.
         24    2    3    3    0    0 -0.11585519376E+02  0.66600311197E+02 -0.13393055445E+03  0.16949348480E+03  0.78872189404E+02 0.  0.
         -6    2    1    2    0  502  0.60457477611E+02 -0.58128548185E+02  0.22963236010E+02  0.19162350627E+03  0.17075779114E+03 0.  0.
        -24    2    5    5    0    0  0.47544290482E+01  0.31148616477E+02  0.75326358379E+01  0.85164898490E+02  0.78762163684E+02 0.  0.
          5    1    3    3  501    0 -0.48871958235E+02 -0.84717630124E+01 -0.30985427679E+03  0.31383435426E+03  0.47000000000E+01 0. -1.
        -11    1    4    4    0    0  0.11148064848E+02  0.73094530337E+02 -0.12284521337E+03  0.14338073847E+03  0.00000000000E+00 0.  1.
         12    1    4    4    0    0 -0.22733584223E+02 -0.64942191400E+01 -0.11085341079E+02  0.26112746327E+02  0.00000000000E+00 0. -1.
         -5    1    5    5    0  502  0.55703048563E+02 -0.89277164662E+02  0.15430600172E+02  0.10645860778E+03  0.47000000000E+01 0.  1.
         13    1    6    6    0    0  0.20307524708E+02  0.41623576132E+02  0.30545795930E+02  0.55479395264E+02  0.00000000000E+00 0. -1.
        -14    1    6    6    0    0 -0.15553095660E+02 -0.10474959655E+02 -0.23013160092E+02  0.29685503226E+02  0.00000000000E+00 0.  1.
</event>
<event>
12    1  0.8331241E-002  0.2110201E+03  0.7818608E-02  0.1140894E+00
         21   -1    0    0  501  502  0.00000000000E+00  0.00000000000E+00  0.41903810607E+03  0.41903810607E+03  0.00000000000E+00 0.  1.
         21   -1    0    0  502  503 -0.00000000000E+00 -0.00000000000E+00 -0.12767552393E+03  0.12767552393E+03  0.00000000000E+00 0.  1.
         -6    2    1    2    0  503 -0.74171368387E+02 -0.96239181642E+02  0.33048343445E+02  0.21359227287E+03  0.17252853113E+03 0.  0.
        -24    2    3    3    0    0 -0.63806416889E+02 -0.13348668848E+03  0.44276136311E+02  0.17305880129E+03  0.78096207456E+02 0.  0.
          6    2    1    2  501    0  0.74171368387E+02  0.96239181642E+02  0.25831423870E+03  0.33312135713E+03  0.17169805093E+03 0.  0.
         24    2    5    5    0    0  0.84170442427E+02  0.29987970957E+02  0.23156936412E+03  0.26082624862E+03  0.80137505502E+02 0.  0.
          5    1    5    5  501    0 -0.99990740402E+01  0.66251210684E+02  0.26744874575E+02  0.72295108512E+02  0.47000000000E+01 0. -1.
        -13    1    6    6    0    0  0.69882798282E+01  0.41292351159E+02  0.86974135146E+02  0.96531831557E+02  0.00000000000E+00 0.  1.
         14    1    6    6    0    0  0.77182162599E+02 -0.11304380202E+02  0.14459522897E+03  0.16429441706E+03  0.00000000000E+00 0. -1.
         -5    1    3    3    0  503 -0.10364951498E+02  0.37247506843E+02 -0.11227792866E+02  0.40533471579E+02  0.47000000000E+01 0.  1.
         11    1    4    4    0    0 -0.43506603083E+02 -0.49564062204E+02  0.55232535605E+02  0.86023565163E+02  0.00000000000E+00 0. -1.
        -12    1    4    4    0    0 -0.20299813806E+02 -0.83922626281E+02 -0.10956399295E+02  0.87035236128E+02  0.00000000000E+00 0.  1.
</event>
<event>
12    1  0.8331241E-002  0.2288030E+03  0.7818608E-02  0.1127948E+00
         21   -1    0    0  503  502  0.00000000000E+00  0.00000000000E+00  0.11226896225E+03  0.11226896225E+03  0.00000000000E+00 0.  1.
         21   -1    0    0  501  503 -0.00000000000E+00 -0.00000000000E+00 -0.53302778157E+03  0.53302778157E+03  0.00000000000E+00 0.  1.
          6    2    1    2  501    0  0.10429381963E+03  0.10554338096E+03 -0.90750687243E+02  0.24372960754E+03  0.17073906489E+03 0.  0.
         24    2    3    3    0    0  0.12121616301E+03  0.91317972707E+02 -0.22333327023E+02  0.17167578651E+03  0.77080917632E+02 0.  0.
         -6    2    1    2    0  502 -0.10429381963E+03 -0.10554338096E+03 -0.33000813207E+03  0.40156713627E+03  0.17416713703E+03 0.  0.
        -24    2    5    5    0    0 -0.70211029244E+02 -0.12169400914E+03 -0.32520546807E+03  0.36325741202E+03  0.80363738296E+02 0.  0.
          5    1    3    3  501    0 -0.16922343384E+02  0.14225408253E+02 -0.68417360220E+02  0.72053821030E+02  0.47000000000E+01 0. -1.
        -11    1    4    4    0    0  0.76650353716E+01  0.44959865381E+02  0.54076619458E+01  0.45928042306E+02  0.00000000000E+00 0.  1.
         12    1    4    4    0    0  0.11355112764E+03  0.46358107326E+02 -0.27740988969E+02  0.12574774420E+03  0.00000000000E+00 0. -1.
         -5    1    5    5    0  502 -0.34082790385E+02  0.16150628179E+02 -0.48026640001E+01  0.38309724255E+02  0.47000000000E+01 0.  1.
         11    1    6    6    0    0  0.14060673742E+02 -0.59039532921E+01 -0.59414491161E+02  0.61340369827E+02  0.00000000000E+00 0. -1.
        -12    1    6    6    0    0 -0.84271702986E+02 -0.11579005585E+03 -0.26579097691E+03  0.30191704219E+03  0.00000000000E+00 0.  1.
</event>
<event>
12    1  0.8331241E-002  0.2093390E+03  0.7818608E-02  0.1143650E+00
         21   -1    0    0  501  502  0.00000000000E+00  0.00000000000E+00  0.39910848931E+03  0.39910848931E+03  0.00000000000E+00 0.  1.
         21   -1    0    0  502  503 -0.00000000000E+00 -0.00000000000E+00 -0.29521847496E+03  0.29521847496E+03  0.00000000000E+00 0.  1.
         -6    2    1    2    0  503  0.45289748043E+02 -0.11231666819E+03 -0.22576790434E+03  0.30788629178E+03  0.17075311653E+03 0.  0.
        -24    2    3    3    0    0  0.58117128510E+02 -0.70967812165E+02 -0.23398068774E+03  0.26357140268E+03  0.79428528179E+02 0.  0.
          6    2    1    2  501    0 -0.45289748043E+02  0.11231666819E+03  0.32965791869E+03  0.38644067250E+03  0.16123230066E+03 0.  0.
         24    2    5    5    0    0 -0.40545142268E+02  0.14003880037E+03  0.24535490045E+03  0.29744563454E+03  0.83786061870E+02 0.  0.
          5    1    5    5  501    0 -0.47446057750E+01 -0.27722132175E+02  0.84303018243E+02  0.88995037958E+02  0.47000000000E+01 0. -1.
        -11    1    6    6    0    0 -0.52556721882E+02  0.94292019409E+02  0.21682116154E+03  0.24220778276E+03  0.00000000000E+00 0.  1.
         12    1    6    6    0    0  0.12011579614E+02  0.45746780960E+02  0.28533738906E+02  0.55237851777E+02  0.00000000000E+00 0. -1.
         -5    1    3    3    0  503 -0.12827380467E+02 -0.41348856028E+02  0.82127833978E+01  0.44314889096E+02  0.47000000000E+01 0.  1.
         11    1    4    4    0    0 -0.38811238549E+01  0.10031832307E+02 -0.67313652012E+02  0.68167650165E+02  0.00000000000E+00 0. -1.
        -12    1    4    4    0    0  0.61998252365E+02 -0.80999644472E+02 -0.16666703572E+03  0.19540375252E+03  0.00000000000E+00 0.  1.
</event>
<event>
12    1  0.8331241E-002  0.1828166E+03  0.7818608E-02  0.1165694E+00
         21   -1    0    0  501  502  0.00000000000E+00  0.00000000000E+00  0.41260846026E+03  0.41260846026E+03  0.00000000000E+00 0. -1.
         21   -1    0    0  502  503 -0.00000000000E+00 -0.00000000000E+00 -0.16767122890E+03  0.16767122890E+03  0.00000000000E+00 0. -1.
         -6    2    1    2    0  503 -0.49829529037E+02 -0.32822072267E+02 -0.87832377955E+02  0.20059887347E+03  0.17019139528E+03 0.  0.
        -24    2    3    3    0    0 -0.89342927560E+02 -0.53022934333E+02 -0.83776805331E+02  0.15578904017E+03  0.80362190461E+02 0.  0.
          6    2    1    2  501    0  0.49829529037E+02  0.32822072267E+02  0.33276960932E+03  0.37968081569E+03  0.17280520399E+03 0.  0.
         24    2    5    5    0    0  0.31754160549E+02  0.38467397125E+01  0.59845043453E+02  0.10458774508E+03  0.79586701635E+02 0.  0.
          5    1    5    5  501    0  0.18075368488E+02  0.28975332554E+02  0.27292456587E+03  0.27509307061E+03  0.47000000000E+01 0. -1.
        -11    1    6    6    0    0 -0.43940619292E+01 -0.74305904108E+00  0.67255852473E+02  0.67403335295E+02  0.00000000000E+00 0.  1.
         12    1    6    6    0    0  0.36148222478E+02  0.45897987536E+01 -0.74108090203E+01  0.37184409788E+02  0.00000000000E+00 0. -1.
         -5    1    3    3    0  503  0.39513398523E+02  0.20200862066E+02 -0.40555726240E+01  0.44809833300E+02  0.47000000000E+01 0.  1.
         11    1    4    4    0    0 -0.24732273008E+02  0.21446299557E+02 -0.22028689964E+02  0.39457474252E+02  0.00000000000E+00 0. -1.
        -12    1    4    4    0    0 -0.64610654552E+02 -0.74469233890E+02 -0.61748115367E+02  0.11633156592E+03  0.00000000000E+00 0.  1.
</event>
<event>
12    1  0.8331241E-002  0.3017760E+03  0.7818608E-02  0.1084707E+00
         21   -1    0    0  503  502  0.00000000000E+00  0.00000000000E+00  0.26662406237E+03  0.26662406237E+03  0.00000000000E+00 0.  1.
         21   -1    0    0  501  503 -0.00000000000E+00 -0.00000000000E+00 -0.39901493383E+03  0.39901493383E+03  0.00000000000E+00 0. -1.
          6    2    1    2  501    0 -0.24535095070E+03 -0.49263255216E+01 -0.19619402355E+03  0.35994565684E+03  0.17563434547E+03 0.  0.
         24    2    3    3    0    0 -0.11070111449E+03  0.24095549365E+02 -0.25181768675E+02  0.14030930072E+03  0.78849515826E+02 0.  0.
         -6    2    1    2    0  502  0.24535095070E+03  0.49263255216E+01  0.63803152087E+02  0.30569333936E+03  0.17075191894E+03 0.  0.
        -24    2    5    5    0    0  0.60022283885E+02 -0.38905974614E+02  0.42839434647E+02  0.11404378228E+03  0.77810138758E+02 0.  0.
          5    1    3    3  501    0 -0.13464983621E+03 -0.29021874886E+02 -0.17101225487E+03  0.21963635612E+03  0.47000000000E+01 0. -1.
        -13    1    4    4    0    0 -0.14270383317E+02 -0.12534524859E+02  0.20100119542E+02  0.27654528725E+02  0.00000000000E+00 0.  1.
         14    1    4    4    0    0 -0.96430731178E+02  0.36630074223E+02 -0.45281888217E+02  0.11265477200E+03  0.00000000000E+00 0. -1.
         -5    1    5    5    0  502  0.18532866681E+03  0.43832300136E+02  0.20963717440E+02  0.19164955708E+03  0.47000000000E+01 0.  1.
         11    1    6    6    0    0  0.22424077126E+02  0.48012387709E+01 -0.18792839421E+02  0.29648978771E+02  0.00000000000E+00 0. -1.
        -12    1    6    6    0    0  0.37598206760E+02 -0.43707213385E+02  0.61632274068E+02  0.84394803514E+02  0.00000000000E+00 0.  1.
</event>
<event>
12    1  0.8331241E-002  0.1823657E+03  0.7818608E-02  0.1165622E+00
         21   -1    0    0  501  502  0.00000000000E+00  0.00000000000E+00  0.65197745012E+02  0.65197745012E+02  0.00000000000E+00 0.  1.
         21   -1    0    0  502  503 -0.00000000000E+00 -0.00000000000E+00 -0.60779406842E+03  0.60779406842E+03  0.00000000000E+00 0.  1.
         -6    2    1    2    0  503  0.75422336430E+01 -0.59403916368E+02 -0.40715689572E+03  0.44613226975E+03  0.17225432887E+03 0.  0.
        -24    2    3    3    0    0  0.59515220064E+02 -0.51563570091E+02 -0.14710259140E+03  0.18077780202E+03  0.69574263407E+02 0.  0.
          6    2    1    2  501    0 -0.75422336430E+01  0.59403916368E+02 -0.13543942769E+03  0.22685954368E+03  0.17185954561E+03 0.  0.
         24    2    5    5    0    0  0.53836047579E+02  0.28448501149E+02 -0.35707898238E+02  0.10564073695E+03  0.78595636464E+02 0.  0.
          5    1    5    5  501    0 -0.61378281222E+02  0.30955415220E+02 -0.99731529448E+02  0.12121880672E+03  0.47000000000E+01 0. -1.
        -13    1    6    6    0    0  0.44654265453E+02  0.22155142951E+02 -0.60543679074E+02  0.78424427688E+02  0.00000000000E+00 0.  1.
         14    1    6    6    0    0  0.91817821262E+01  0.62933581982E+01  0.24835780836E+02  0.27216309267E+02  0.00000000000E+00 0. -1.
         -5    1    3    3    0  503 -0.51972986421E+02 -0.78403462774E+01 -0.26005430432E+03  0.26535446773E+03  0.47000000000E+01 0.  1.
         11    1    4    4    0    0  0.57169278728E+02 -0.61204872514E+01 -0.64006387497E+02  0.86038389309E+02  0.00000000000E+00 0. -1.
        -12    1    4    4    0    0  0.23459413362E+01 -0.45443082840E+02 -0.83096203902E+02  0.94739412715E+02  0.00000000000E+00 0.  1.
</event>
<event>
12    1  0.8331241E-002  0.2081034E+03  0.7818608E-02  0.1144536E+00
         21   -1    0    0  501  502  0.00000000000E+00  0.00000000000E+00  0.98625896450E+02  0.98625896450E+02  0.00000000000E+00 0. -1.
         21   -1    0    0  502  503 -0.00000000000E+00 -0.00000000000E+00 -0.43757631486E+03  0.43757631486E+03  0.00000000000E+00 0.  1.
         -6    2    1    2    0  503  0.84366168941E+02 -0.81216909688E+02 -0.21929602750E+03  0.30232062231E+03  0.17202666688E+03 0.  0.
        -24    2    3    3    0    0  0.10182330608E+03 -0.44624455571E+01 -0.11945904657E+03  0.17509832803E+03  0.77466519165E+02 0.  0.
          6    2    1    2  501    0 -0.84366168941E+02  0.81216909688E+02 -0.11965439091E+03  0.23388158900E+03  0.16330825921E+03 0.  0.
         24    2    5    5    0    0 -0.46158786207E+01  0.54494501182E+02 -0.79268562962E+01  0.93955437354E+02  0.75985736577E+02 0.  0.
          5    1    5    5  501    0 -0.79750290321E+02  0.26722408507E+02 -0.11172753461E+03  0.13992615164E+03  0.47000000000E+01 0. -1.
        -13    1    6    6    0    0 -0.27652099179E+02  0.22572939220E+02 -0.31893254672E+02  0.47868109087E+02  0.00000000000E+00 0.  1.
         14    1    6    6    0    0  0.23036220558E+02  0.31921561962E+02  0.23966398376E+02  0.46087328267E+02  0.00000000000E+00 0. -1.
         -5    1    3    3    0  503 -0.17457137136E+02 -0.76754464131E+02 -0.99836980923E+02  0.12722229428E+03  0.47000000000E+01 0.  1.
         13    1    4    4    0    0  0.11703825431E+02  0.50137061990E+01  0.10611661970E+02  0.16574804655E+02  0.00000000000E+00 0. -1.
        -14    1    4    4    0    0  0.90119480646E+02 -0.94761517561E+01 -0.13007070854E+03  0.15852352338E+03  0.00000000000E+00 0.  1.
</event>
<event>
12    1  0.8331241E-002  0.1882980E+03  0.7818608E-02  0.1160788E+00
         21   -1    0    0  503  502  0.00000000000E+00  0.00000000000E+00  0.97982235242E+02  0.97982235242E+02  0.00000000000E+00 0. -1.
         21   -1    0    0  501  503 -0.00000000000E+00 -0.00000000000E+00 -0.43911536854E+03  0.43911536854E+03  0.00000000000E+00 0. -1.
          6    2    1    2  501    0 -0.47525498559E+02  0.44122149878E+02 -0.28658611170E+03  0.34105803544E+03  0.17315757851E+03 0.  0.
         24    2    3    3    0    0 -0.18994269702E+02  0.68850434502E+02 -0.28356933824E+03  0.30289116496E+03  0.78932398964E+02 0.  0.
         -6    2    1    2    0  502  0.47525498559E+02 -0.44122149878E+02 -0.54547021597E+02  0.19603956834E+03  0.17677866859E+03 0.  0.
        -24    2    5    5    0    0  0.42041216241E+02  0.44386850597E+02 -0.24594607580E+02  0.10232106631E+03  0.78275472019E+02 0.  0.
          5    1    3    3  501    0 -0.28531228857E+02 -0.24728284624E+02 -0.30167734625E+01  0.38166870486E+02  0.47000000000E+01 0. -1.
        -13    1    4    4    0    0  0.21588573767E+02  0.84385848539E+01 -0.24221373248E+02  0.33525380739E+02  0.00000000000E+00 0.  1.
         14    1    4    4    0    0 -0.40582843469E+02  0.60411849649E+02 -0.25934796499E+03  0.26936578422E+03  0.00000000000E+00 0. -1.
         -5    1    5    5    0  502  0.54842823183E+01 -0.88509000475E+02 -0.29952414017E+02  0.93718502032E+02  0.47000000000E+01 0.  1.
         13    1    6    6    0    0  0.51347574492E+01  0.19114237955E+02  0.27357332232E+02  0.33766010329E+02  0.00000000000E+00 0. -1.
        -14    1    6    6    0    0  0.36906458792E+02  0.25272612642E+02 -0.51951939812E+02  0.68555055981E+02  0.00000000000E+00 0.  1.
</event>
<event>
12    1  0.8331241E-002  0.1888384E+03  0.7818608E-02  0.1160011E+00
         21   -1    0    0  503  502  0.00000000000E+00  0.00000000000E+00  0.39147010846E+02  0.39147010846E+02  0.00000000000E+00 0.  1.
         21   -1    0    0  501  503 -0.00000000000E+00 -0.00000000000E+00 -0.13379629847E+04  0.13379629847E+04  0.00000000000E+00 0.  1.
          6    2    1    2  501    0  0.71543808402E+02  0.92603448705E+01 -0.25820516274E+03  0.31989038875E+03  0.17451557020E+03 0.  0.
         24    2    3    3    0    0 -0.23575398203E+01 -0.40237075232E+02 -0.76224843801E+02  0.11728157762E+03  0.79499442887E+02 0.  0.
         -6    2    1    2    0  502 -0.71543808402E+02 -0.92603448705E+01 -0.10406108111E+04  0.10572196068E+04  0.17215738812E+03 0.  0.
        -24    2    5    5    0    0 -0.11075098033E+03  0.18540509680E+02 -0.80247990011E+03  0.81424119085E+03  0.80032472433E+02 0.  0.
          5    1    3    3  501    0  0.73901348222E+02  0.49497420102E+02 -0.18198031894E+03  0.20260881113E+03  0.47000000000E+01 0. -1.
        -13    1    4    4    0    0  0.14700382486E+02  0.94631834562E+01  0.70200627627E+01  0.18839701897E+02  0.00000000000E+00 0.  1.
         14    1    4    4    0    0 -0.17057922307E+02 -0.49700258688E+02 -0.83244906564E+02  0.98441875723E+02  0.00000000000E+00 0. -1.
         -5    1    5    5    0  502  0.39207171926E+02 -0.27800854550E+02 -0.23813091101E+03  0.24297841596E+03  0.47000000000E+01 0.  1.
         13    1    6    6    0    0 -0.84054165150E+02  0.15555314326E+02 -0.32652268408E+03  0.33752649334E+03  0.00000000000E+00 0. -1.
        -14    1    6    6    0    0 -0.26696815177E+02  0.29851953538E+01 -0.47595721603E+03  0.47671469751E+03  0.00000000000E+00 0.  1.
</event>
<event>
12    1  0.8331241E-002  0.1883496E+03  0.7818608E-02  0.1160253E+00
         21   -1    0    0  503  502  0.00000000000E+00  0.00000000000E+00  0.21310865989E+03  0.21310865989E+03  0.00000000000E+00 0.  1.
         21   -1    0    0  501  503 -0.00000000000E+00 -0.00000000000E+00 -0.28688666698E+03  0.28688666698E+03  0.00000000000E+00 0.  1.
          6    2    1    2  501    0  0.64241669369E+02 -0.37292393456E+02 -0.19954554101E+03  0.27351568299E+03  0.17168194784E+03 0.  0.
         24    2    3    3    0    0  0.17680664015E+02  0.20711730028E+02 -0.17734562228E+03  0.19575108981E+03  0.78265176049E+02 0.  0.
         -6    2    1    2    0  502 -0.64241669369E+02  0.37292393456E+02  0.12576753392E+03  0.22647964388E+03  0.17308333776E+03 0.  0.
        -24    2    5    5    0    0 -0.52329341757E+02 -0.35713853927E+02  0.29652290959E+02  0.10510400532E+03  0.78445867989E+02 0.  0.
          5    1    3    3  501    0  0.46561005353E+02 -0.58004123483E+02 -0.22199918737E+02  0.77764593181E+02  0.47000000000E+01 0. -1.
        -13    1    4    4    0    0  0.45074727066E+02  0.16026606765E+02 -0.69438726728E+02  0.84322712920E+02  0.00000000000E+00 0.  1.
         14    1    4    4    0    0 -0.27394063051E+02  0.46851232629E+01 -0.10790689555E+03  0.11142837689E+03  0.00000000000E+00 0. -1.
         -5    1    5    5    0  502 -0.11912327612E+02  0.73006247383E+02  0.96115242960E+02  0.12137563856E+03  0.47000000000E+01 0.  1.
         11    1    6    6    0    0  0.30650563730E+01 -0.31323957994E+02 -0.13993793007E+02  0.34444319673E+02  0.00000000000E+00 0. -1.
        -12    1    6    6    0    0 -0.55394398130E+02 -0.43898959332E+01  0.43646083965E+02  0.70659685649E+02  0.00000000000E+00 0.  1.
</event>
<event>
12    1  0.8331241E-002  0.2968723E+03  0.7818608E-02  0.1086960E+00
         21   -1    0    0  501  502  0.00000000000E+00  0.00000000000E+00  0.10688443736E+04  0.10688443736E+04  0.00000000000E+00 0. -1.
         21   -1    0    0  502  503 -0.00000000000E+00 -0.00000000000E+00 -0.82781020753E+02  0.82781020753E+02  0.00000000000E+00 0. -1.
         -6    2    1    2    0  503  0.17934670717E+03  0.16287400093E+03  0.44329315298E+03  0.53351849156E+03  0.17158082587E+03 0.  0.
        -24    2    3    3    0    0  0.13217230699E+03  0.15604599065E+03  0.24304769926E+03  0.32762439866E+03  0.80285070503E+02 0.  0.
          6    2    1    2  501    0 -0.17934670717E+03 -0.16287400093E+03  0.54277019989E+03  0.61810690282E+03  0.16959797130E+03 0.  0.
         24    2    5    5    0    0 -0.63826288155E+02 -0.32623003827E+02  0.11695459211E+03  0.15805113306E+03  0.78509417319E+02 0.  0.
          5    1    5    5  501    0 -0.11552041901E+03 -0.13025099710E+03  0.42581560778E+03  0.46005576976E+03  0.47000000000E+01 0. -1.
        -13    1    6    6    0    0 -0.22661822051E+02 -0.19303485188E+02 -0.35831491911E+01  0.29983690187E+02  0.00000000000E+00 0.  1.
         14    1    6    6    0    0 -0.41164466104E+02 -0.13319518639E+02  0.12053774130E+03  0.12806744287E+03  0.00000000000E+00 0. -1.
         -5    1    3    3    0  503  0.47174400171E+02  0.68280102759E+01  0.20024545372E+03  0.20589409290E+03  0.47000000000E+01 0.  1.
         11    1    4    4    0    0  0.59451580341E+02  0.24409824501E+02  0.10707142553E+03  0.12487842128E+03  0.00000000000E+00 0. -1.
        -12    1    4    4    0    0  0.72720726654E+02  0.13163616615E+03  0.13597627373E+03  0.20274597737E+03  0.00000000000E+00 0.  1.
</event>
<event>
12    1  0.8331241E-002  0.1895688E+03  0.7818608E-02  0.1159266E+00
         21   -1    0    0  501  502  0.00000000000E+00  0.00000000000E+00  0.99109874768E+03  0.99109874768E+03  0.00000000000E+00 0. -1.
         21   -1    0    0  502  503 -0.00000000000E+00 -0.00000000000E+00 -0.43634412910E+02  0.43634412910E+02  0.00000000000E+00 0. -1.
         -6    2    1    2    0  503 -0.12765564682E+02  0.78429363537E+02  0.25795105187E+03  0.32011730431E+03  0.17211106487E+03 0.  0.
        -24    2    3    3    0    0 -0.52149524836E+02  0.62966350452E+02  0.87671106675E+02  0.14459650547E+03  0.80855378406E+02 0.  0.
          6    2    1    2  501    0  0.12765564682E+02 -0.78429363537E+02  0.68951328290E+03  0.71461585628E+03  0.17009741340E+03 0.  0.
         24    2    5    5    0    0 -0.20687896718E+02 -0.10705700745E+03  0.52111420326E+03  0.54049229067E+03  0.93181068495E+02 0.  0.
          5    1    5    5  501    0  0.33453461400E+02  0.28627643912E+02  0.16839907964E+03  0.17412356561E+03  0.47000000000E+01 0. -1.
        -11    1    6    6    0    0  0.24543047218E+01  0.12425052218E+02  0.13640560548E+03  0.13699231636E+03  0.00000000000E+00 0.  1.
         12    1    6    6    0    0 -0.23142201439E+02 -0.11948205967E+03  0.38470859777E+03  0.40349997431E+03  0.00000000000E+00 0. -1.
         -5    1    3    3    0  503  0.39383960154E+02  0.15463013085E+02  0.17027994520E+03  0.17552079885E+03  0.47000000000E+01 0.  1.
         13    1    4    4    0    0 -0.16922754616E+02  0.62258734957E+02  0.18742737376E+02  0.67184967862E+02  0.00000000000E+00 0. -1.
        -14    1    4    4    0    0 -0.35226770220E+02  0.70761549491E+00  0.68928369299E+02  0.77411537603E+02  0.00000000000E+00 0.  1.
</event>
<event>
12    1  0.8331241E-002  0.1887478E+03  0.7818608E-02  0.1160598E+00
         21   -1    0    0  503  502  0.00000000000E+00  0.00000000000E+00  0.26341074329E+02  0.26341074329E+02  0.00000000000E+00 0. -1.
         21   -1    0    0  501  503 -0.00000000000E+00 -0.00000000000E+00 -0.13321886905E+04  0.13321886905E+04  0.00000000000E+00 0. -1.
          6    2    1    2  501    0 -0.59228369552E+02 -0.31852514089E+02 -0.70627432176E+03  0.72994891715E+03  0.17169572407E+03 0.  0.
         24    2    3    3    0    0  0.32764835009E+02 -0.30930742949E+02 -0.31984414342E+03  0.33269084980E+03  0.79703702469E+02 0.  0.
         -6    2    1    2    0  502  0.59228369552E+02  0.31852514089E+02 -0.59957329437E+03  0.62858084763E+03  0.17636089214E+03 0.  0.
        -24    2    5    5    0    0 -0.34272701451E+02 -0.45367940299E+01 -0.23750634762E+03  0.25283998487E+03  0.79521017489E+02 0.  0.
          5    1    3    3  501    0 -0.91993204561E+02 -0.92177113986E+00 -0.38643017833E+03  0.39725806735E+03  0.47000000000E+01 0. -1.
        -13    1    4    4    0    0  0.24648036431E+02  0.10001113542E+01 -0.27957582877E+03  0.28066202087E+03  0.00000000000E+00 0.  1.
         14    1    4    4    0    0  0.81167985780E+01 -0.31930854303E+02 -0.40268314652E+02  0.52028828937E+02  0.00000000000E+00 0. -1.
         -5    1    5    5    0  502  0.93501071003E+02  0.36389308119E+02 -0.36206694675E+03  0.37574086277E+03  0.47000000000E+01 0.  1.
         13    1    6    6    0    0 -0.12286312113E+02  0.31467394128E+02 -0.16933161382E+03  0.17266831151E+03  0.00000000000E+00 0. -1.
        -14    1    6    6    0    0 -0.21986389339E+02 -0.36004188157E+02 -0.68174733797E+02  0.80171673360E+02  0.00000000000E+00 0.  1.
</event>
<event>
12    1  0.8331241E-002  0.1876595E+03  0.7818608E-02  0.1160617E+00
         21   -1    0    0  501  502  0.00000000000E+00  0.00000000000E+00  0.39450645405E+03  0.39450645405E+03  0.00000000000E+00 0.  1.
         21   -1    0    0  502  503 -0.00000000000E+00 -0.00000000000E+00 -0.97894447581E+02  0.97894447581E+02  0.00000000000E+00 0.  1.
         -6    2    1    2    0  503 -0.62004464618E+02  0.42767081142E+02  0.75015545872E+02  0.20209758098E+03  0.17187938578E+03 0.  0.
        -24    2    3    3    0    0 -0.64730605425E+02  0.25468861475E+02 -0.18591480815E+02  0.10675071060E+03  0.78812161947E+02 0.  0.
          6    2    1    2  501    0  0.62004464618E+02 -0.42767081142E+02  0.22159646060E+03  0.29030332065E+03  0.17174821620E+03 0.  0.
         24    2    5    5    0    0  0.25324069420E+02 -0.32831835723E+02  0.31584938363E+02  0.96471875636E+02  0.81178670403E+02 0.  0.
          5    1    5    5  501    0  0.36680395197E+02 -0.99352454190E+01  0.19001152224E+03  0.19383144501E+03  0.47000000000E+01 0. -1.
        -11    1    6    6    0    0  0.16376796830E+02  0.26215719518E+02  0.59356642508E+01  0.31475316271E+02  0.00000000000E+00 0.  1.
         12    1    6    6    0    0  0.89472725905E+01 -0.59047555241E+02  0.25649274113E+02  0.64996559365E+02  0.00000000000E+00 0. -1.
         -5    1    3    3    0  503  0.27261408070E+01  0.17298219667E+02  0.93607026687E+02  0.95346870386E+02  0.47000000000E+01 0.  1.
         11    1    4    4    0    0 -0.17314936892E+01  0.37370362245E+02 -0.20401396569E+02  0.42611724052E+02  0.00000000000E+00 0. -1.
        -12    1    4    4    0    0 -0.62999111735E+02 -0.11901500770E+02  0.18099157539E+01  0.64138986545E+02  0.00000000000E+00 0.  1.
</event>
<event>
12    1  0.8331241E-002  0.1868093E+03  0.7818608E-02  0.1161979E+00
         21   -1    0    0  501  502  0.00000000000E+00  0.00000000000E+00  0.84274770449E+02  0.84274770449E+02  0.00000000000E+00 0.  1.
         21   -1    0    0  502  503 -0.00000000000E+00 -0.00000000000E+00 -0.42469890881E+03  0.42469890881E+03  0.00000000000E+00 0. -1.
         -6    2    1    2    0  503 -0.68994023284E+02 -0.10559860289E+01 -0.21904488746E+03  0.28619434156E+03  0.17077835947E+03 0.  0.
        -24    2    3    3    0    0 -0.19438213308E+02 -0.63736216922E+02 -0.11443122274E+03  0.15447229142E+03  0.79542658958E+02 0.  0.
          6    2    1    2  501    0  0.68994023284E+02  0.10559860289E+01 -0.12137925091E+03  0.22277933771E+03  0.17359844585E+03 0.  0.
         24    2    5    5    0    0 -0.12661851059E+02 -0.39761882744E+02 -0.62663365519E+02  0.11413576715E+03  0.85784300276E+02 0.  0.
          5    1    5    5  501    0  0.81655874342E+02  0.40817868773E+02 -0.58715885390E+02  0.10864357055E+03  0.47000000000E+01 0. -1.
        -13    1    6    6    0    0  0.24471794691E+02 -0.21937694159E+02 -0.65045589201E+02  0.72877018565E+02  0.00000000000E+00 0.  1.
         14    1    6    6    0    0 -0.37133645750E+02 -0.17824188585E+02  0.23822236820E+01  0.41258748588E+02  0.00000000000E+00 0. -1.
         -5    1    3    3    0  503 -0.49555809975E+02  0.62680230893E+02 -0.10461366471E+03  0.13172205014E+03  0.47000000000E+01 0.  1.
         11    1    4    4    0    0 -0.17201419818E+02 -0.71833077479E+02 -0.12235686455E+03  0.14292334367E+03  0.00000000000E+00 0. -1.
        -12    1    4    4    0    0 -0.22367934902E+01  0.80968605578E+01  0.79256418080E+01  0.11548947748E+02  0.00000000000E+00 0.  1.
</event>
<event>
12    1  0.8331241E-002  0.2063247E+03  0.7818608E-02  0.1144796E+00
         21   -1    0    0  501  502  0.00000000000E+00  0.00000000000E+00  0.62279601811E+03  0.62279601811E+03  0.00000000000E+00 0.  1.
         21   -1    0    0  502  503 -0.00000000000E+00 -0.00000000000E+00 -0.94805030711E+02  0.94805030711E+02  0.00000000000E+00 0. -1.
         -6    2    1    2    0  503 -0.10642875277E+03 -0.35960681977E+02  0.72161476400E+02  0.21725072979E+03  0.17137780152E+03 0.  0.
        -24    2    3    3    0    0 -0.84904459446E+01 -0.25575515591E+02  0.81593408786E+02  0.11820117162E+03  0.81165497256E+02 0.  0.
          6    2    1    2  501    0  0.10642875277E+03  0.35960681977E+02  0.45582951100E+03  0.50035031903E+03  0.17305966772E+03 0.  0.
         24    2    5    5    0    0  0.29864193482E+02  0.62413472329E+02  0.36154476803E+03  0.37595745503E+03  0.76433481704E+02 0.  0.
          5    1    5    5  501    0  0.76564559291E+02 -0.26452790351E+02  0.94284742972E+02  0.12439286400E+03  0.47000000000E+01 0. -1.
        -13    1    6    6    0    0  0.46217746582E+02  0.63924761855E+02  0.22496912132E+03  0.23839790441E+03  0.00000000000E+00 0.  1.
         14    1    6    6    0    0 -0.16353553099E+02 -0.15112895262E+01  0.13657564671E+03  0.13755955063E+03  0.00000000000E+00 0. -1.
         -5    1    3    3    0  503 -0.97938306828E+02 -0.10385166386E+02 -0.94319323860E+01  0.99049558171E+02  0.47000000000E+01 0.  1.
         13    1    4    4    0    0  0.22957874446E+02 -0.43100107067E+01 -0.47889281924E+01  0.23844790303E+02  0.00000000000E+00 0. -1.
        -14    1    4    4    0    0 -0.31448320390E+02 -0.21265504885E+02  0.86382336978E+02  0.94356381316E+02  0.00000000000E+00 0.  1.
</event>
<event>
12    1  0.8331241E-002  0.1826235E+03  0.7818608E-02  0.1165575E+00
         21   -1    0    0  501  502  0.00000000000E+00  0.00000000000E+00  0.13387915809E+04  0.13387915809E+04  0.00000000000E+00 0.  1.
         21   -1    0    0  502  503 -0.00000000000E+00 -0.00000000000E+00 -0.25813481337E+02  0.25813481337E+02  0.00000000000E+00 0.  1.
         -6    2    1    2    0  503 -0.51080305084E+02 -0.28667885026E+02  0.51992945095E+03  0.55106985497E+03  0.17297487070E+03 0.  0.
        -24    2    3    3    0    0 -0.46863840288E+02  0.30068865520E+02  0.44555067523E+03  0.45608524191E+03  0.79987420853E+02 0.  0.
          6    2    1    2  501    0  0.51080305084E+02  0.28667885026E+02  0.79304864859E+03  0.81353520724E+03  0.17170419096E+03 0.  0.
         24    2    5    5    0    0  0.97615024184E+02  0.41184748479E+02  0.61574631258E+03  0.62974086481E+03  0.78772831056E+02 0.  0.
          5    1    5    5  501    0 -0.46534719100E+02 -0.12516863453E+02  0.17730233601E+03  0.18379434242E+03  0.47000000000E+01 0. -1.
        -13    1    6    6    0    0  0.55666550628E+02  0.47260825908E+02  0.22158798304E+03  0.23331006140E+03  0.00000000000E+00 0.  1.
         14    1    6    6    0    0  0.41948473556E+02 -0.60760774290E+01  0.39415832953E+03  0.39643080341E+03  0.00000000000E+00 0. -1.
         -5    1    3    3    0  503 -0.42164647960E+01 -0.58736750546E+02  0.74378775722E+02  0.94984613059E+02  0.47000000000E+01 0.  1.
         13    1    4    4    0    0 -0.49270984730E+01 -0.13082625543E+02  0.27274228475E+03  0.27310032091E+03  0.00000000000E+00 0. -1.
        -14    1    4    4    0    0 -0.41936741815E+02  0.43151491063E+02  0.17280839048E+03  0.18298492101E+03  0.00000000000E+00 0.  1.
</event>
<event>
12    1  0.8331241E-002  0.2459091E+03  0.7818608E-02  0.1117787E+00
         21   -1    0    0  501  502  0.00000000000E+00  0.00000000000E+00  0.99235385543E+02  0.99235385543E+02  0.00000000000E+00 0. -1.
         21   -1    0    0  502  503 -0.00000000000E+00 -0.00000000000E+00 -0.82621545830E+03  0.82621545830E+03  0.00000000000E+00 0.  1.
         -6    2    1    2    0  503  0.45213930157E+02  0.15300348832E+03 -0.62118207335E+03  0.66808567531E+03  0.18712812290E+03 0.  0.
        -24    2    3    3    0    0  0.72459961924E+01  0.48055045097E+02 -0.47437567509E+03  0.48361359527E+03  0.80548349380E+02 0.  0.
          6    2    1    2  501    0 -0.45213930157E+02 -0.15300348832E+03 -0.10579799941E+03  0.25736516854E+03  0.17201525043E+03 0.  0.
         24    2    5    5    0    0  0.15057751175E+02 -0.65454500340E+02 -0.10904328471E+03  0.15092211924E+03  0.79849988423E+02 0.  0.
          5    1    5    5  501    0 -0.60271681332E+02 -0.87548987977E+02  0.32452853038E+01  0.10644304929E+03  0.47000000000E+01 0. -1.
        -13    1    6    6    0    0 -0.16842938205E+02 -0.59401766924E+02 -0.99462075942E+02  0.11706818112E+03  0.00000000000E+00 0.  1.
         14    1    6    6    0    0  0.31900689380E+02 -0.60527334155E+01 -0.95812087703E+01  0.33853938120E+02  0.00000000000E+00 0. -1.
         -5    1    3    3    0  503  0.37967933965E+02  0.10494844322E+03 -0.14680639826E+03  0.18447208004E+03  0.47000000000E+01 0.  1.
         13    1    4    4    0    0 -0.29190852175E+02  0.23693063315E+02 -0.10275268580E+03  0.10941472268E+03  0.00000000000E+00 0. -1.
        -14    1    4    4    0    0  0.36436848368E+02  0.24361981783E+02 -0.37162298929E+03  0.37419887259E+03  0.00000000000E+00 0.  1.
</event>
<event>
12    1  0.8331241E-002  0.2245993E+03  0.7818608E-02  0.1130603E+00
         21   -1    0    0  503  502  0.00000000000E+00  0.00000000000E+00  0.51646983560E+03  0.51646983560E+03  0.00000000000E+00 0. -1.
         21   -1    0    0  501  503 -0.00000000000E+00 -0.00000000000E+00 -0.14433517262E+03  0.14433517262E+03  0.00000000000E+00 0. -1.
          6    2    1    2  501    0  0.10858499200E+03  0.93990578636E+02 -0.21333886745E+01  0.22460943199E+03  0.17268444120E+03 0.  0.
         24    2    3    3    0    0  0.14309307747E+03  0.73326475457E+02  0.18943225192E+02  0.17895719464E+03  0.76252415751E+02 0.  0.
         -6    2    1    2    0  502 -0.10858499200E+03 -0.93990578636E+02  0.37426805165E+03  0.43619557623E+03  0.17194498211E+03 0.  0.
        -24    2    5    5    0    0 -0.13077315957E+03 -0.32429650672E+02  0.28964256835E+03  0.32911791723E+03  0.79199018528E+02 0.  0.
          5    1    3    3  501    0 -0.34508085474E+02  0.20664103179E+02 -0.21076613867E+02  0.45652237354E+02  0.47000000000E+01 0. -1.
        -13    1    4    4    0    0  0.79234663512E+02 -0.15274530524E+01  0.32035641719E+01  0.79314108695E+02  0.00000000000E+00 0.  1.
         14    1    4    4    0    0  0.63858413959E+02  0.74853928509E+02  0.15739661020E+02  0.99643085940E+02  0.00000000000E+00 0. -1.
         -5    1    5    5    0  502  0.22188167572E+02 -0.61560927963E+02  0.84625483305E+02  0.10707765900E+03  0.47000000000E+01 0.  1.
         13    1    6    6    0    0 -0.10311031781E+03 -0.51289341244E+02  0.17346582354E+03  0.20821317465E+03  0.00000000000E+00 0. -1.
        -14    1    6    6    0    0 -0.27662841762E+02  0.18859690571E+02  0.11617674481E+03  0.12090474257E+03  0.00000000000E+00 0.  1.
</event>
<event>
12    1  0.8331241E-002  0.2103912E+03  0.7818608E-02  0.1141445E+00
         21   -1    0    0  501  502  0.00000000000E+00  0.00000000000E+00  0.10554012943E+03  0.10554012943E+03  0.00000000000E+00 0. -1.
         21   -1    0    0  502  503 -0.00000000000E+00 -0.00000000000E+00 -0.53200415873E+03  0.53200415873E+03  0.00000000000E+00 0. -1.
         -6    2    1    2    0  503  0.84816239240E+02 -0.85587372203E+02 -0.64977629618E+02  0.21928975656E+03  0.17130940506E+03 0.  0.
        -24    2    3    3    0    0  0.20794111911E+02 -0.88880471352E+01 -0.84260714207E+02  0.11742932948E+03  0.78602716189E+02 0.  0.
          6    2    1    2  501    0 -0.84816239240E+02  0.85587372203E+02 -0.36148639968E+03  0.41825453160E+03  0.17246867347E+03 0.  0.
         24    2    5    5    0    0 -0.92200956711E+01  0.38935207828E+02 -0.64111973366E+02  0.10785987831E+03  0.76957440496E+02 0.  0.
          5    1    5    5  501    0 -0.75596143569E+02  0.46652164376E+02 -0.29737442631E+03  0.31039465328E+03  0.47000000000E+01 0. -1.
        -11    1    6    6    0    0 -0.11906598317E+02  0.19030240684E+01 -0.69325369897E+02  0.70366153053E+02  0.00000000000E+00 0.  1.
         12    1    6    6    0    0  0.26865026457E+01  0.37032183759E+02  0.52133965304E+01  0.37493725259E+02  0.00000000000E+00 0. -1.
         -5    1    3    3    0  503  0.64022127328E+02 -0.76699325068E+02  0.19283084589E+02  0.10186042708E+03  0.47000000000E+01 0.  1.
         11    1    4    4    0    0  0.29917545700E+02 -0.33439377440E+02 -0.22184919954E+02  0.50054192408E+02  0.00000000000E+00 0. -1.
        -12    1    4    4    0    0 -0.91234337887E+01  0.24551330304E+02 -0.62075794253E+02  0.67375137076E+02  0.00000000000E+00 0.  1.
</event>
<event>
12    1  0.8331241E-002  0.1987947E+03  0.7818608E-02  0.1150920E+00
         21   -1    0    0  503  502  0.00000000000E+00  0.00000000000E+00  0.25255087045E+03  0.25255087045E+03  0.00000000000E+00 0. -1.
         21   -1    0    0  501  503 -0.00000000000E+00 -0.00000000000E+00 -0.38611081065E+03  0.38611081065E+03  0.00000000000E+00 0. -1.
          6    2    1    2  501    0  0.42805815634E+02 -0.89235825298E+02 -0.31330792740E+03  0.37065296053E+03  0.17154121781E+03 0.  0.
         24    2    3    3    0    0  0.90997683094E+02 -0.58011993163E+02 -0.22594867518E+03  0.26600539615E+03  0.89778044555E+02 0.  0.
         -6    2    1    2    0  502 -0.42805815634E+02  0.89235825298E+02  0.17974798719E+03  0.26800872057E+03  0.17240639499E+03 0.  0.
        -24    2    5    5    0    0 -0.72202651693E+02 -0.14395730522E+01  0.97724918464E+02  0.14216725030E+03  0.73797507326E+02 0.  0.
          5    1    3    3  501    0 -0.48191867460E+02 -0.31223832135E+02 -0.87359252216E+02  0.10464756438E+03  0.47000000000E+01 0. -1.
        -13    1    4    4    0    0  0.64242388264E+02 -0.75089668877E+02 -0.12026114359E+03  0.15565437829E+03  0.00000000000E+00 0.  1.
         14    1    4    4    0    0  0.26755294830E+02  0.17077675714E+02 -0.10568753159E+03  0.11035101786E+03  0.00000000000E+00 0. -1.
         -5    1    5    5    0  502  0.29396836059E+02  0.90675398350E+02  0.82023068730E+02  0.12584147027E+03  0.47000000000E+01 0.  1.
         11    1    6    6    0    0 -0.15724211324E+02  0.91939170953E+00  0.81991673206E+02  0.83490901169E+02  0.00000000000E+00 0. -1.
        -12    1    6    6    0    0 -0.56478440368E+02 -0.23589647618E+01  0.15733245258E+02  0.58676349132E+02  0.00000000000E+00 0.  1.
</event>
<event>
12    1  0.8331241E-002  0.3253102E+03  0.7818608E-02  0.1073581E+00
         21   -1    0    0  501  502  0.00000000000E+00  0.00000000000E+00  0.60159104602E+03  0.60159104602E+03  0.00000000000E+00 0. -1.
         21   -1    0    0  502  503 -0.00000000000E+00 -0.00000000000E+00 -0.23514541517E+03  0.23514541517E+03  0.00000000000E+00 0.  1.
         -6    2    1    2    0  503 -0.24368268648E+03  0.12285309508E+03 -0.29042566360E+02  0.32660402579E+03  0.17706660991E+03 0.  0.
        -24    2    3    3    0    0 -0.12475912036E+03  0.14365169026E+03 -0.21318266141E+02  0.20553730472E+03  0.74769438489E+02 0.  0.
          6    2    1    2  501    0  0.24368268648E+03 -0.12285309508E+03  0.39548819721E+03  0.51013243540E+03  0.17131857126E+03 0.  0.
         24    2    5    5    0    0  0.21316913142E+03 -0.86753442239E+02  0.39330523348E+03  0.46258122818E+03  0.79530796883E+02 0.  0.
          5    1    5    5  501    0  0.30513555058E+02 -0.36099652838E+02  0.21829637252E+01  0.47551207218E+02  0.47000000000E+01 0. -1.
        -11    1    6    6    0    0  0.14625948547E+03 -0.23121128354E+02  0.20535213102E+03  0.25317172310E+03  0.00000000000E+00 0.  1.
         12    1    6    6    0    0  0.66909645950E+02 -0.63632313886E+02  0.18795310246E+03  0.20940950508E+03  0.00000000000E+00 0. -1.
         -5    1    3    3    0  503 -0.11892356611E+03 -0.20798595178E+02 -0.77243002190E+01  0.12106672108E+03  0.47000000000E+01 0.  1.
         13    1    4    4    0    0 -0.71667127277E+02  0.11640355128E+03  0.11944078592E+02  0.13721743656E+03  0.00000000000E+00 0. -1.
        -14    1    4    4    0    0 -0.53091993086E+02  0.27248138971E+02 -0.33262344734E+02  0.68319868152E+02  0.00000000000E+00 0.  1.
</event>
<event>
12    1  0.8331241E-002  0.2190272E+03  0.7818608E-02  0.1135151E+00
         21   -1    0    0  501  502  0.00000000000E+00  0.00000000000E+00  0.34733915233E+02  0.34733915233E+02  0.00000000000E+00 0.  1.
         21   -1    0    0  502  503 -0.00000000000E+00 -0.00000000000E+00 -0.14348230812E+04  0.14348230812E+04  0.00000000000E+00 0.  1.
         -6    2    1    2    0  503 -0.11435133990E+03 -0.63638792835E+02 -0.53145180727E+03  0.57373123492E+03  0.17204761427E+03 0.  0.
        -24    2    3    3    0    0 -0.82668417898E+02 -0.48628562888E+02 -0.17585592415E+03  0.21638037562E+03  0.81831268147E+02 0.  0.
          6    2    1    2  501    0  0.11435133990E+03  0.63638792835E+02 -0.86863735873E+03  0.89582576155E+03  0.17563259718E+03 0.  0.
         24    2    5    5    0    0 -0.58684176262E+01  0.57169425852E+02 -0.36123260676E+03  0.37431227646E+03  0.79485234778E+02 0.  0.
          5    1    5    5  501    0  0.12021975752E+03  0.64693669822E+01 -0.50740475197E+03  0.52151348509E+03  0.47000000000E+01 0. -1.
        -13    1    6    6    0    0  0.17471015920E+02  0.39092808530E+02 -0.73453351400E+02  0.85022814044E+02  0.00000000000E+00 0.  1.
         14    1    6    6    0    0 -0.23339433546E+02  0.18076617322E+02 -0.28777925536E+03  0.28928946242E+03  0.00000000000E+00 0. -1.
         -5    1    3    3    0  503 -0.31682921999E+02 -0.15010229947E+02 -0.35559588312E+03  0.35735085930E+03  0.47000000000E+01 0.  1.
         13    1    4    4    0    0 -0.91340127958E+02 -0.26324900470E+02 -0.10521568095E+03  0.14179689305E+03  0.00000000000E+00 0. -1.
        -14    1    4    4    0    0  0.86717100604E+01 -0.22303662417E+02 -0.70640243200E+02  0.74583482568E+02  0.00000000000E+00 0.  1.
</event>
<event>
12    1  0.8331241E-002  0.1827774E+03  0.7818608E-02  0.1165963E+00
         21   -1    0    0  501  502  0.00000000000E+00  0.00000000000E+00  0.98861903769E+03  0.98861903769E+03  0.00000000000E+00 0. -1.
         21   -1    0    0  502  503 -0.00000000000E+00 -0.00000000000E+00 -0.10545151304E+03  0.10545151304E+03  0.00000000000E+00 0. -1.
         -6    2    1    2    0  503 -0.25234515350E+02  0.43902875907E+02 -0.12652419623E+02  0.17979436599E+03  0.17205140814E+03 0.  0.
        -24    2    3    3    0    0 -0.52288740565E+02  0.77633638356E+02  0.20920518643E+02  0.12484959717E+03  0.79929091189E+02 0.  0.
          6    2    1    2  501    0  0.25234515350E+02 -0.43902875907E+02  0.89581994428E+03  0.91427618474E+03  0.17562268117E+03 0.  0.
         24    2    5    5    0    0  0.35066294157E+02 -0.37211232624E+02  0.25521912122E+03  0.27354773487E+03  0.84126349027E+02 0.  0.
          5    1    5    5  501    0 -0.98317788075E+01 -0.66916432836E+01  0.64060082306E+03  0.64072844987E+03  0.47000000000E+01 0. -1.
        -13    1    6    6    0    0  0.15159250954E+02  0.20381054217E+02  0.25924098557E+02  0.36293927129E+02  0.00000000000E+00 0.  1.
         14    1    6    6    0    0  0.19907043203E+02 -0.57592286840E+02  0.22929502266E+03  0.23725380774E+03  0.00000000000E+00 0. -1.
         -5    1    3    3    0  503  0.27054225215E+02 -0.33730762449E+02 -0.33572938266E+02  0.54944768825E+02  0.47000000000E+01 0.  1.
         11    1    4    4    0    0 -0.24158360425E+02  0.58065385371E+02 -0.24893541041E+02  0.67638034731E+02  0.00000000000E+00 0. -1.
        -12    1    4    4    0    0 -0.28130380140E+02  0.19568252986E+02  0.45814059684E+02  0.57211562437E+02  0.00000000000E+00 0.  1.
</event>
<event>
12    1  0.8331241E-002  0.2162437E+03  0.7818608E-02  0.1136780E+00
         21   -1    0    0  501  502  0.00000000000E+00  0.00000000000E+00  0.23177956231E+03  0.23177956231E+03  0.00000000000E+00 0. -1.
         21   -1    0    0  502  503 -0.00000000000E+00 -0.00000000000E+00 -0.42268664858E+03  0.42268664858E+03  0.00000000000E+00 0.  1.
         -6    2    1    2    0  503 -0.37132482608E+02  0.12666372567E+03 -0.33224352580E+03  0.39641783949E+03  0.17128579148E+03 0.  0.
        -24    2    3    3    0    0  0.12238215513E+02  0.14265201901E+03 -0.24470607452E+03  0.29454543531E+03  0.79853478993E+02 0.  0.
          6    2    1    2  501    0  0.37132482608E+02 -0.12666372567E+03  0.14133643954E+03  0.25804837140E+03  0.17085213541E+03 0.  0.
         24    2    5    5    0    0  0.60128986547E+02 -0.14219769761E+03  0.84351725050E+02  0.19449137994E+03  0.82921668615E+02 0.  0.
          5    1    5    5  501    0 -0.22996503939E+02  0.15533971931E+02  0.56984714488E+02  0.63556991454E+02  0.47000000000E+01 0. -1.
        -13    1    6    6    0    0 -0.18889647421E+02 -0.41100618019E+02  0.34270996312E+02  0.56750160963E+02  0.00000000000E+00 0.  1.
         14    1    6    6    0    0  0.79018633968E+02 -0.10109707959E+03  0.50080728738E+02  0.13774121898E+03  0.00000000000E+00 0. -1.
         -5    1    3    3    0  503 -0.49370698121E+02 -0.15988293338E+02 -0.87537451286E+02  0.10187240419E+03  0.47000000000E+01 0.  1.
         13    1    4    4    0    0  0.15692909219E+02  0.42252312032E+01 -0.38170953059E+01  0.16694016744E+02  0.00000000000E+00 0. -1.
        -14    1    4    4    0    0 -0.34546937063E+01  0.13842678781E+03 -0.24088897921E+03  0.27785141856E+03  0.00000000000E+00 0.  1.
</event>
<event>
12    1  0.8331241E-002  0.1986943E+03  0.7818608E-02  0.1150879E+00
         21   -1    0    0  503  502  0.00000000000E+00  0.00000000000E+00  0.23304259461E+04  0.23304259461E+04  0.00000000000E+00 0. -1.
         21   -1    0    0  501  503 -0.00000000000E+00 -0.00000000000E+00 -0.22281551253E+02  0.22281551253E+02  0.00000000000E+00 0. -1.
          6    2    1    2  501    0  0.97716402353E+02 -0.17039073492E+02  0.57706477545E+03  0.61026206950E+03  0.17198026947E+03 0.  0.
         24    2    3    3    0    0  0.96598547400E+02  0.46728578484E+02  0.42138442901E+03  0.44195870261E+03  0.79043142606E+02 0.  0.
         -6    2    1    2    0  502 -0.97716402353E+02  0.17039073492E+02  0.17310796194E+04  0.17424454279E+04  0.17216444188E+03 0.  0.
        -24    2    5    5    0    0 -0.63764075637E+02  0.75133965493E+02  0.97006305885E+03  0.97844538047E+03  0.81376005805E+02 0.  0.
          5    1    3    3  501    0  0.11178549529E+01 -0.63767651975E+02  0.15568034644E+03  0.16830336689E+03  0.47000000000E+01 0. -1.
        -11    1    4    4    0    0  0.40634248016E+02  0.45318763195E+02  0.32367243862E+03  0.32934598818E+03  0.00000000000E+00 0.  1.
         12    1    4    4    0    0  0.55964299385E+02  0.14098152884E+01  0.97711990393E+02  0.11261271443E+03  0.00000000000E+00 0. -1.
         -5    1    5    5    0  502 -0.33952326716E+02 -0.58094892002E+02  0.76101656057E+03  0.76400004740E+03  0.47000000000E+01 0.  1.
         11    1    6    6    0    0 -0.72969516499E-01  0.24864635560E+02  0.55323782245E+03  0.55379630155E+03  0.00000000000E+00 0. -1.
        -12    1    6    6    0    0 -0.63691106120E+02  0.50269329933E+02  0.41682523640E+03  0.42464907892E+03  0.00000000000E+00 0.  1.
</event>
<event>
12    1  0.8331241E-002  0.1762690E+03  0.7818608E-02  0.1174966E+00
         21   -1    0    0  501  502  0.00000000000E+00  0.00000000000E+00  0.11705099116E+03  0.11705099116E+03  0.00000000000E+00 0. -1.
         21   -1    0    0  502  503 -0.00000000000E+00 -0.00000000000E+00 -0.25307404287E+03  0.25307404287E+03  0.00000000000E+00 0.  1.
         -6    2    1    2    0  503 -0.29560395879E+02 -0.33480076050E+02 -0.38662630422E+02  0.18045931939E+03  0.17051696240E+03 0.  0.
        -24    2    3    3    0    0  0.47239955268E+02 -0.12485525379E+02 -0.81865083697E+01  0.95078120587E+02  0.81150036213E+02 0.  0.
          6    2    1    2  501    0  0.29560395879E+02  0.33480076050E+02 -0.97360421281E+02  0.18966571464E+03  0.15652251972E+03 0.  0.
         24    2    5    5    0    0 -0.16560781676E+02  0.12337571916E+02 -0.11067215589E+03  0.13700205754E+03  0.78068959967E+02 0.  0.
          5    1    5    5  501    0  0.46121177555E+02  0.21142504134E+02  0.13311734613E+02  0.52663657093E+02  0.47000000000E+01 0. -1.
        -11    1    6    6    0    0 -0.96711331443E+01 -0.32533743603E+02 -0.34979688460E+02  0.48739654224E+02  0.00000000000E+00 0.  1.
         12    1    6    6    0    0 -0.68896485312E+01  0.44871315520E+02 -0.75692467434E+02  0.88262403318E+02  0.00000000000E+00 0. -1.
         -5    1    3    3    0  503 -0.76800351147E+02 -0.20994550671E+02 -0.30476122052E+02  0.85381198805E+02  0.47000000000E+01 0.  1.
         13    1    4    4    0    0  0.45594990098E+02 -0.39844203056E+02 -0.21951623701E+02  0.64407588236E+02  0.00000000000E+00 0. -1.
        -14    1    4    4    0    0  0.16449651692E+01  0.27358677677E+02  0.13765115331E+02  0.30670532351E+02  0.00000000000E+00 0.  1.
</event>
<event>
12    1  0.8331241E-002  0.3057619E+03  0.7818608E-02  0.1082523E+00
         21   -1    0    0  503  502  0.00000000000E+00  0.00000000000E+00  0.16106984731E+04  0.16106984731E+04  0.00000000000E+00 0. -1.
         21   -1    0    0  501  503 -0.00000000000E+00 -0.00000000000E+00 -0.66752227453E+02  0.66752227453E+02  0.00000000000E+00 0. -1.
          6    2    1    2  501    0  0.19750843801E+03 -0.15603571825E+03  0.46674271932E+03  0.55797771915E+03  0.17359043917E+03 0.  0.
         24    2    3    3    0    0  0.16132115326E+03 -0.68475077442E+02  0.39371249302E+03  0.43826184990E+03  0.79690471181E+02 0.  0.
         -6    2    1    2    0  502 -0.19750843801E+03  0.15603571825E+03  0.10772035263E+04  0.11194729814E+04  0.17174280339E+03 0.  0.
        -24    2    5    5    0    0 -0.56121448387E+02  0.63987713519E+02  0.26355718087E+03  0.28850632655E+03  0.80805126204E+02 0.  0.
          5    1    3    3  501    0  0.36187284746E+02 -0.87560640809E+02  0.73030226305E+02  0.11971586925E+03  0.47000000000E+01 0. -1.
        -13    1    4    4    0    0  0.33136071064E+02  0.14871074972E+02  0.11185166703E+03  0.11760078015E+03  0.00000000000E+00 0.  1.
         14    1    4    4    0    0  0.12818508220E+03 -0.83346152414E+02  0.28186082599E+03  0.32066106974E+03  0.00000000000E+00 0. -1.
         -5    1    5    5    0  502 -0.14138698962E+03  0.92048004733E+02  0.81364634544E+03  0.83096665484E+03  0.47000000000E+01 0.  1.
         11    1    6    6    0    0 -0.36904224559E+02  0.58980309555E+02  0.25893143227E+03  0.26811580580E+03  0.00000000000E+00 0. -1.
        -12    1    6    6    0    0 -0.19217223829E+02  0.50074039638E+01  0.46257486003E+01  0.20390520745E+02  0.00000000000E+00 0.  1.
</event>
<event>
12    1  0.8331241E-002  0.2010519E+03  0.7818608E-02  0.1149116E+00
         21   -1    0    0  501  502  0.00000000000E+00  0.00000000000E+00  0.87453462207E+03  0.87453462207E+03  0.00000000000E+00 0.  1.
         21   -1    0    0  502  503 -0.00000000000E+00 -0.00000000000E+00 -0.10451489875E+03  0.10451489875E+03  0.00000000000E+00 0.  1.
         -6    2    1    2    0  503 -0.48283093157E+02 -0.92843452305E+02  0.18001023283E+02  0.20061904789E+03  0.17021398831E+03 0.  0.
        -24    2    3    3    0    0 -0.64667116050E+01 -0.93818340325E+02 -0.39344065474E+02  0.12948460211E+03  0.79841138231E+02 0.  0.
          6    2    1    2  501    0  0.48283093157E+02  0.92843452305E+02  0.75201870004E+03  0.77843047293E+03  0.17167035931E+03 0.  0.
         24    2    5    5    0    0 -0.30069400763E+02  0.89105531673E+02  0.45436083885E+03  0.47057437395E+03  0.78437904749E+02 0.  0.
          5    1    5    5  501    0  0.78352493920E+02  0.37379206316E+01  0.29765786118E+03  0.30785609898E+03  0.47000000000E+01 0. -1.
        -13    1    6    6    0    0  0.40171533623E+01  0.58681900409E+02  0.36990321238E+03  0.37455051660E+03  0.00000000000E+00 0.  1.
         14    1    6    6    0    0 -0.34086554125E+02  0.30423631265E+02  0.84457626474E+02  0.96023857353E+02  0.00000000000E+00 0. -1.
         -5    1    3    3    0  503 -0.41816381552E+02  0.97488802038E+00  0.57345088756E+02  0.71134445786E+02  0.47000000000E+01 0.  1.
         13    1    4    4    0    0 -0.26495480627E+02 -0.48230767132E+01 -0.25742042308E+02  0.37254869545E+02  0.00000000000E+00 0. -1.
        -14    1    4    4    0    0  0.20028769022E+02 -0.88995263612E+02 -0.13602023166E+02  0.92229732560E+02  0.00000000000E+00 0.  1.
</event>
<event>
12    1  0.8331241E-002  0.2440979E+03  0.7818608E-02  0.1117201E+00
         21   -1    0    0  503  502  0.00000000000E+00  0.00000000000E+00  0.69794695696E+03  0.69794695696E+03  0.00000000000E+00 0. -1.
         21   -1    0    0  501  503 -0.00000000000E+00 -0.00000000000E+00 -0.14976573305E+03  0.14976573305E+03  0.00000000000E+00 0. -1.
          6    2    1    2  501    0 -0.74860999512E+02 -0.15646314730E+03 -0.41309010414E+01  0.24413286729E+03  0.17175245803E+03 0.  0.
         24    2    3    3    0    0 -0.46379742310E+02 -0.16914847781E+03  0.33390100197E+02  0.19512250965E+03  0.78712177830E+02 0.  0.
         -6    2    1    2    0  502  0.74860999512E+02  0.15646314730E+03  0.55231212495E+03  0.60357982272E+03  0.17080700606E+03 0.  0.
        -24    2    5    5    0    0  0.10431815865E+03  0.16145866555E+03  0.43229106607E+03  0.47980654612E+03  0.79922318455E+02 0.  0.
          5    1    3    3  501    0 -0.28481257203E+02  0.12685330513E+02 -0.37521001239E+02  0.49010357640E+02  0.47000000000E+01 0. -1.
        -13    1    4    4    0    0  0.19855177174E+02 -0.50873717552E+02 -0.32261417604E+01  0.54706226235E+02  0.00000000000E+00 0.  1.
         14    1    4    4    0    0 -0.66234919484E+02 -0.11827476026E+03  0.36616241958E+02  0.14041628342E+03  0.00000000000E+00 0. -1.
         -5    1    5    5    0  502 -0.29457159135E+02 -0.49955182516E+01  0.12002105888E+03  0.12377327660E+03  0.47000000000E+01 0.  1.
         13    1    6    6    0    0  0.70158687683E+02  0.15916401563E+03  0.36203039772E+03  0.40164839624E+03  0.00000000000E+00 0. -1.
        -14    1    6    6    0    0  0.34159470964E+02  0.22946499152E+01  0.70260668355E+02  0.78158149878E+02  0.00000000000E+00 0.  1.
</event>
<event>
12    1  0.8331241E-002  0.1735252E+03  0.7818608E-02  0.1174338E+00
         21   -1    0    0  503  502  0.00000000000E+00  0.00000000000E+00  0.28848588003E+03  0.28848588003E+03  0.00000000000E+00 0.  1.
         21   -1    0    0  501  503 -0.00000000000E+00 -0.00000000000E+00 -0.20215816449E+03  0.20215816449E+03  0.00000000000E+00 0.  1.
          6    2    1    2  501    0  0.34023511897E+01 -0.20689013647E+02 -0.12772452809E+03  0.21509121150E+03  0.17178784273E+03 0.  0.
         24    2    3    3    0    0 -0.44701411804E+02 -0.58588311893E+02 -0.10058103548E+03  0.14794072369E+03  0.79618506147E+02 0.  0.
         -6    2    1    2    0  502 -0.34023511897E+01  0.20689013647E+02  0.21405224364E+03  0.27555283302E+03  0.17225385191E+03 0.  0.
        -24    2    5    5    0    0  0.15942271108E+02  0.71693234059E+02  0.84618382315E+02  0.13501508233E+03  0.75330777327E+02 0.  0.
          5    1    3    3  501    0  0.48103762993E+02  0.37899298246E+02 -0.27143492615E+02  0.67150487809E+02  0.47000000000E+01 0. -1.
        -13    1    4    4    0    0 -0.34525688010E+02 -0.30315075358E+02 -0.10767324280E+03  0.11706645182E+03  0.00000000000E+00 0.  1.
         14    1    4    4    0    0 -0.10175723794E+02 -0.28273236535E+02  0.70922073234E+01  0.30874271872E+02  0.00000000000E+00 0. -1.
         -5    1    5    5    0  502 -0.19344622298E+02 -0.51004220413E+02  0.12943386132E+03  0.14053775069E+03  0.47000000000E+01 0.  1.
         13    1    6    6    0    0  0.14006394014E+02  0.77150663895E+02  0.94967983017E+02  0.12315568120E+03  0.00000000000E+00 0. -1.
        -14    1    6    6    0    0  0.19358770941E+01 -0.54574298356E+01 -0.10349600702E+02  0.11859401132E+02  0.00000000000E+00 0.  1.
</event>
<event>
12    1  0.8331241E-002  0.1965608E+03  0.7818608E-02  0.1152773E+00
         21   -1    0    0  503  502  0.00000000000E+00  0.00000000000E+00  0.54882923583E+03  0.54882923583E+03  0.00000000000E+00 0. -1.
         21   -1    0    0  501  503 -0.00000000000E+00 -0.00000000000E+00 -0.71124228709E+02  0.71124228709E+02  0.00000000000E+00 0.  1.
          6    2    1    2  501    0  0.76194999799E+02  0.52596270189E+02  0.27383996880E+03  0.33708230546E+03  0.17339004156E+03 0.  0.
         24    2    3    3    0    0  0.23741023464E+02  0.12420816150E+02  0.40782212631E+02  0.94794265207E+02  0.81270234281E+02 0.  0.
         -6    2    1    2    0  502 -0.76194999799E+02 -0.52596270189E+02  0.20386503833E+03  0.28287115908E+03  0.17286727034E+03 0.  0.
        -24    2    5    5    0    0 -0.85187452184E+02 -0.86433995908E+02  0.10796991859E+03  0.18067615005E+03  0.79111504962E+02 0.  0.
          5    1    3    3  501    0  0.52453976335E+02  0.40175454038E+02  0.23305775617E+03  0.24228804025E+03  0.47000000000E+01 0. -1.
        -11    1    4    4    0    0  0.46513715048E+02 -0.12017927850E+02  0.38039172383E+02  0.61277523718E+02  0.00000000000E+00 0.  1.
         12    1    4    4    0    0 -0.22772691584E+02  0.24438744001E+02  0.27430402478E+01  0.33516741490E+02  0.00000000000E+00 0. -1.
         -5    1    5    5    0  502  0.89924523854E+01  0.33837725719E+02  0.95895119741E+02  0.10219500904E+03  0.47000000000E+01 0.  1.
         11    1    6    6    0    0 -0.65695905659E+01  0.43241207787E+01  0.43858798503E+02  0.44558408262E+02  0.00000000000E+00 0. -1.
        -12    1    6    6    0    0 -0.78617861618E+02 -0.90758116687E+02  0.64111120085E+02  0.13611774178E+03  0.00000000000E+00 0.  1.
</event>
<event>
12    1  0.8331241E-002  0.1917107E+03  0.7818608E-02  0.1157192E+00
         21   -1    0    0  503  502  0.00000000000E+00  0.00000000000E+00  0.84607014239E+02  0.84607014239E+02  0.00000000000E+00 0.  1.
         21   -1    0    0  501  503 -0.00000000000E+00 -0.00000000000E+00 -0.43288350647E+03  0.43288350647E+03  0.00000000000E+00 0.  1.
          6    2    1    2  501    0  0.72189719917E+02 -0.39774309814E+02 -0.16020375234E+03  0.24893072566E+03  0.17177867309E+03 0.  0.
         24    2    3    3    0    0  0.16222328047E+02 -0.83538984502E+02 -0.98053487530E+02  0.15441913314E+03  0.83599380404E+02 0.  0.
         -6    2    1    2    0  502 -0.72189719917E+02  0.39774309814E+02 -0.18807273989E+03  0.26855979506E+03  0.17308858035E+03 0.  0.
        -24    2    5    5    0    0 -0.41662388235E+01 -0.16808834457E+02 -0.15796776687E+03  0.17497963906E+03  0.73240455042E+02 0.  0.
          5    1    3    3  501    0  0.55967391870E+02  0.43764674688E+02 -0.62150264815E+02  0.94511592515E+02  0.47000000000E+01 0. -1.
        -13    1    4    4    0    0  0.15909379517E+02 -0.51265493436E+02 -0.26929567159E+01  0.53744871288E+02  0.00000000000E+00 0.  1.
         14    1    4    4    0    0  0.31294853039E+00 -0.32273491066E+02 -0.95360530814E+02  0.10067426185E+03  0.00000000000E+00 0. -1.
         -5    1    5    5    0  502 -0.68023481093E+02  0.56583144272E+02 -0.30104973021E+02  0.93580155996E+02  0.47000000000E+01 0.  1.
         11    1    6    6    0    0  0.30329922857E+02 -0.73884177797E+00 -0.35308686045E+02  0.46552695066E+02  0.00000000000E+00 0. -1.
        -12    1    6    6    0    0 -0.34496161681E+02 -0.16069992679E+02 -0.12265908082E+03  0.12842694400E+03  0.00000000000E+00 0.  1.
</event>
<event>
12    1  0.8331241E-002  0.2026525E+03  0.7818608E-02  0.1149090E+00
         21   -1    0    0  503  502  0.00000000000E+00  0.00000000000E+00  0.56607533639E+03  0.56607533639E+03  0.00000000000E+00 0.  1.
         21   -1    0    0  501  503 -0.00000000000E+00 -0.00000000000E+00 -0.73420091410E+02  0.73420091410E+02  0.00000000000E+00 0. -1.
          6    2    1    2  501    0  0.64223204887E+01 -0.10723414074E+03  0.17210868867E+03  0.26026180721E+03  0.16301656492E+03 0.  0.
         24    2    3    3    0    0  0.54502598280E+02 -0.48451637841E+02  0.55276791293E+02  0.12083843039E+03  0.78919631117E+02 0.  0.
         -6    2    1    2    0  502 -0.64223204887E+01  0.10723414074E+03  0.32054655631E+03  0.37923362059E+03  0.17183607619E+03 0.  0.
        -24    2    5    5    0    0  0.13424919103E+02 -0.36086596615E+01  0.19265839209E+03  0.20877097991E+03  0.79213730703E+02 0.  0.
          5    1    3    3  501    0 -0.48080277791E+02 -0.58782502896E+02  0.11683189738E+03  0.13942337682E+03  0.47000000000E+01 0. -1.
        -11    1    4    4    0    0  0.60662299546E+02 -0.64275733407E+02  0.36779701517E+02  0.95728945126E+02  0.00000000000E+00 0.  1.
         12    1    4    4    0    0 -0.61597012665E+01  0.15824095567E+02  0.18497089776E+02  0.25109485267E+02  0.00000000000E+00 0. -1.
         -5    1    5    5    0  502 -0.19847239592E+02  0.11084280040E+03  0.12788816422E+03  0.17046264068E+03  0.47000000000E+01 0.  1.
         11    1    6    6    0    0  0.45267846813E+02 -0.13053763211E+02  0.10788945329E+03  0.11772728155E+03  0.00000000000E+00 0. -1.
        -12    1    6    6    0    0 -0.31842927710E+02  0.94451035495E+01  0.84768938800E+02  0.91043698362E+02  0.00000000000E+00 0.  1.
</event>
<event>
12    1  0.8331241E-002  0.1767447E+03  0.7818608E-02  0.1171359E+00
         21   -1    0    0  503  502  0.00000000000E+00  0.00000000000E+00  0.54272894301E+02  0.54272894301E+02  0.00000000000E+00 0. -1.
         21   -1    0    0  501  503 -0.00000000000E+00 -0.00000000000E+00 -0.75817088414E+03  0.75817088414E+03  0.00000000000E+00 0. -1.
          6    2    1    2  501    0 -0.15436358575E+02 -0.25274149548E+02 -0.55501487823E+03  0.58247764451E+03  0.17424588228E+03 0.  0.
         24    2    3    3    0    0  0.98008426305E+01  0.48484432207E+02 -0.37057041907E+03  0.38218013274E+03  0.79324786074E+02 0.  0.
         -6    2    1    2    0  502  0.15436358575E+02  0.25274149548E+02 -0.14888311161E+03  0.22996613394E+03  0.17274599281E+03 0.  0.
        -24    2    5    5    0    0  0.62909790685E+01 -0.52799601132E+02 -0.73459632323E+02  0.12092513367E+03  0.79994975306E+02 0.  0.
          5    1    3    3  501    0 -0.25237201205E+02 -0.73758581754E+02 -0.18444445916E+03  0.20029751177E+03  0.47000000000E+01 0. -1.
        -13    1    4    4    0    0  0.22716696679E+02  0.54126375240E+02 -0.14876395627E+03  0.15992631894E+03  0.00000000000E+00 0.  1.
         14    1    4    4    0    0 -0.12915854049E+02 -0.56419430335E+01 -0.22180646280E+03  0.22225381379E+03  0.00000000000E+00 0. -1.
         -5    1    5    5    0  502  0.91453795061E+01  0.78073750680E+02 -0.75423479289E+02  0.10904100027E+03  0.47000000000E+01 0.  1.
         13    1    6    6    0    0 -0.28633337626E+02  0.42837828243E+01 -0.25670949739E+02  0.38693881679E+02  0.00000000000E+00 0. -1.
        -14    1    6    6    0    0  0.34924316695E+02 -0.57083383957E+02 -0.47788682584E+02  0.82231251989E+02  0.00000000000E+00 0.  1.
</event>
<event>
12    1  0.8331241E-002  0.1846830E+03  0.7818608E-02  0.1163504E+00
         21   -1    0    0  503  502  0.00000000000E+00  0.00000000000E+00  0.87904825709E+03  0.87904825709E+03  0.00000000000E+00 0. -1.
         21   -1    0    0  501  503 -0.00000000000E+00 -0.00000000000E+00 -0.54226994071E+02  0.54226994071E+02  0.00000000000E+00 0. -1.
          6    2    1    2  501    0  0.40494854603E+02 -0.52278631652E+02  0.16185411023E+03  0.24506505585E+03  0.17171849063E+03 0.  0.
         24    2    3    3    0    0  0.63901505982E+02  0.13518646507E+02  0.44251000108E+02  0.10820843507E+03  0.74059152974E+02 0.  0.
         -6    2    1    2    0  502 -0.40494854603E+02  0.52278631652E+02  0.66296715279E+03  0.68821019531E+03  0.17243821697E+03 0.  0.
        -24    2    5    5    0    0  0.27587146804E+02  0.75847187786E+01  0.19236508339E+03  0.21058994607E+03  0.80778842830E+02 0.  0.
          5    1    3    3  501    0 -0.23406651380E+02 -0.65797278159E+02  0.11760311012E+03  0.13685662078E+03  0.47000000000E+01 0. -1.
        -11    1    4    4    0    0  0.34207789394E+01  0.25087458322E+02 -0.89269417722E+01  0.26847208105E+02  0.00000000000E+00 0.  1.
         12    1    4    4    0    0  0.60480727043E+02 -0.11568811815E+02  0.53177941880E+02  0.81361226964E+02  0.00000000000E+00 0. -1.
         -5    1    5    5    0  502 -0.68082001407E+02  0.44693912873E+02  0.47060206940E+03  0.47762024925E+03  0.47000000000E+01 0.  1.
         13    1    6    6    0    0 -0.18695007367E+02  0.46046531743E+01  0.13709054571E+03  0.13843599190E+03  0.00000000000E+00 0. -1.
        -14    1    6    6    0    0  0.46282154171E+02  0.29800656042E+01  0.55274537685E+02  0.72153954167E+02  0.00000000000E+00 0.  1.
</event>
<event>
12    1  0.8331241E-002  0.2180490E+03  0.7818608E-02  0.1135738E+00
         21   -1    0    0  503  502  0.00000000000E+00  0.00000000000E+00  0.62228487245E+03  0.62228487245E+03  0.00000000000E+00 0. -1.
         21   -1    0    0  501  503 -0.00000000000E+00 -0.00000000000E+00 -0.21938043877E+03  0.21938043877E+03  0.00000000000E+00 0. -1.
          6    2    1    2  501    0 -0.24643303719E+02  0.12927831326E+03 -0.13880913460E+03  0.25848280238E+03  0.17385398639E+03 0.  0.
         24    2    3    3    0    0  0.24275283346E+02  0.10920121923E+02 -0.89080937174E+02  0.12101763139E+03  0.77468156658E+02 0.  0.
         -6    2    1    2    0  502  0.24643303719E+02 -0.12927831326E+03  0.54171356829E+03  0.58318250884E+03  0.17125441265E+03 0.  0.
        -24    2    5    5    0    0 -0.39508960518E+02 -0.98554951895E+02  0.25367237517E+03  0.28645155853E+03  0.80192175145E+02 0.  0.
          5    1    3    3  501    0 -0.48918587065E+02  0.11835819133E+03 -0.49728197429E+02  0.13746517099E+03  0.47000000000E+01 0. -1.
        -13    1    4    4    0    0 -0.60292971054E+01 -0.29061911499E+02 -0.46749050857E+02  0.55375273178E+02  0.00000000000E+00 0.  1.
         14    1    4    4    0    0  0.30304580452E+02  0.39982033422E+02 -0.42331886317E+02  0.65642358216E+02  0.00000000000E+00 0. -1.
         -5    1    5    5    0  502  0.64152264237E+02 -0.30723361361E+02  0.28804119312E+03  0.29673095031E+03  0.47000000000E+01 0.  1.
         11    1    6    6    0    0 -0.34785197545E+02 -0.39579504885E+02  0.19912528338E+03  0.20597918743E+03  0.00000000000E+00 0. -1.
        -12    1    6    6    0    0 -0.47237629727E+01 -0.58975447010E+02  0.54547091791E+02  0.80472371094E+02  0.00000000000E+00 0.  1.
</event>
<event>
12    1  0.8331241E-002  0.1997107E+03  0.7818608E-02  0.1150774E+00
         21   -1    0    0  501  502  0.00000000000E+00  0.00000000000E+00  0.48374831931E+03  0.48374831931E+03  0.00000000000E+00 0. -1.
         21   -1    0    0  502  503 -0.00000000000E+00 -0.00000000000E+00 -0.91391551107E+02  0.91391551107E+02  0.00000000000E+00 0. -1.
         -6    2    1    2    0  503  0.75129460855E+02 -0.68169417047E+02  0.10049641745E+03  0.22357073880E+03  0.17202569581E+03 0.  0.
        -24    2    3    3    0    0  0.62734871223E+01 -0.58222137429E+02  0.11575661685E+03  0.15219106960E+03  0.79582368602E+02 0.  0.
          6    2    1    2  501    0 -0.75129460855E+02  0.68169417047E+02  0.29186035075E+03  0.35156913161E+03  0.16771071717E+03 0.  0.
         24    2    5    5    0    0  0.14701224466E+02  0.47312230977E+02  0.19974585247E+03  0.22114005115E+03  0.80931720878E+02 0.  0.
          5    1    5    5  501    0 -0.89830685321E+02  0.20857186070E+02  0.92114498285E+02  0.13042908046E+03  0.47000000000E+01 0. -1.
        -13    1    6    6    0    0  0.82963291530E+01 -0.70957337569E+00  0.15489763124E+03  0.15512127106E+03  0.00000000000E+00 0.  1.
         14    1    6    6    0    0  0.64048953127E+01  0.48021804353E+02  0.44848221226E+02  0.66018780089E+02  0.00000000000E+00 0. -1.
         -5    1    3    3    0  503  0.68855973733E+02 -0.99472796173E+01 -0.15260199401E+02  0.71379669208E+02  0.47000000000E+01 0.  1.
         13    1    4    4    0    0  0.40018467677E+02 -0.47785851375E+02  0.62359122786E+02  0.88168166259E+02  0.00000000000E+00 0. -1.
        -14    1    4    4    0    0 -0.33744980554E+02 -0.10436286054E+02  0.53397494065E+02  0.64022903337E+02  0.00000000000E+00 0.  1.
</event>
<event>
12    1  0.8331241E-002  0.1728167E+03  0.7818608E-02  0.1175014E+00
         21   -1    0    0  503  502  0.00000000000E+00  0.00000000000E+00  0.91383942471E+02  0.91383942471E+02  0.00000000000E+00 0. -1.
         21   -1    0    0  501  503 -0.00000000000E+00 -0.00000000000E+00 -0.41172378237E+03  0.41172378237E+03  0.00000000000E+00 0. -1.
          6    2    1    2  501    0  0.18648611057E+02  0.29947821481E+01 -0.45677933458E+02  0.17875144988E+03  0.17178145364E+03 0.  0.
         24    2    3    3    0    0  0.73205701760E+02 -0.46889878524E+01 -0.21492610896E+01  0.10837850205E+03  0.79750981230E+02 0.  0.
         -6    2    1    2    0  502 -0.18648611057E+02 -0.29947821481E+01 -0.27466190644E+03  0.32435627496E+03  0.17149662050E+03 0.  0.
        -24    2    5    5    0    0  0.52646421409E+01 -0.45057679341E+02 -0.25600183079E+03  0.27228498324E+03  0.80896624179E+02 0.  0.
          5    1    3    3  501    0 -0.54557090703E+02  0.76837700005E+01 -0.43528672368E+02  0.70372947825E+02  0.47000000000E+01 0. -1.
        -11    1    4    4    0    0  0.75908519028E+02  0.21593529266E+02 -0.12687187163E+02  0.79933400311E+02  0.00000000000E+00 0.  1.
         12    1    4    4    0    0 -0.27028172682E+01 -0.26282517119E+02  0.10537926073E+02  0.28445101744E+02  0.00000000000E+00 0. -1.
         -5    1    5    5    0  502 -0.23913253198E+02  0.42062897193E+02 -0.18660075653E+02  0.52071291727E+02  0.47000000000E+01 0.  1.
         13    1    6    6    0    0  0.11496184948E+02 -0.17430362847E+02 -0.75179597256E+01  0.22192330562E+02  0.00000000000E+00 0. -1.
        -14    1    6    6    0    0 -0.62315428067E+01 -0.27627316494E+02 -0.24848387107E+03  0.25009265268E+03  0.00000000000E+00 0.  1.
</event>
<event>
12    1  0.8331241E-002  0.2353890E+03  0.7818608E-02  0.1122997E+00
         21   -1    0    0  501  502  0.00000000000E+00  0.00000000000E+00  0.35800258500E+03  0.35800258500E+03  0.00000000000E+00 0. -1.
         21   -1    0    0  502  503 -0.00000000000E+00 -0.00000000000E+00 -0.25202994138E+03  0.25202994138E+03  0.00000000000E+00 0.  1.
         -6    2    1    2    0  503  0.12677086718E+03 -0.97506850888E+02 -0.13688291616E+03  0.27182135261E+03  0.17196358993E+03 0.  0.
        -24    2    3    3    0    0  0.97474097428E+02 -0.10899861138E+03 -0.41142132056E+02  0.17093156612E+03  0.78377473254E+02 0.  0.
          6    2    1    2  501    0 -0.12677086718E+03  0.97506850888E+02  0.24285555978E+03  0.33821117377E+03  0.17271229374E+03 0.  0.
         24    2    5    5    0    0 -0.13879720430E+03  0.12533527835E+03  0.20015296147E+03  0.28563117698E+03  0.80934327455E+02 0.  0.
          5    1    5    5  501    0  0.12026337112E+02 -0.27828427464E+02  0.42702598314E+02  0.52579996788E+02  0.47000000000E+01 0. -1.
        -13    1    6    6    0    0 -0.79409828741E+02  0.11828075833E+03  0.15620525498E+03  0.21141509023E+03  0.00000000000E+00 0.  1.
         14    1    6    6    0    0 -0.59387375555E+02  0.70545200223E+01  0.43947706486E+02  0.74216086756E+02  0.00000000000E+00 0. -1.
         -5    1    3    3    0  503  0.29296769755E+02  0.11491760496E+02 -0.95740784102E+02  0.10088978649E+03  0.47000000000E+01 0.  1.
         11    1    4    4    0    0  0.24166727973E+02  0.34484298586E+01  0.11196135652E+02  0.26856579510E+02  0.00000000000E+00 0. -1.
        -12    1    4    4    0    0  0.73307369455E+02 -0.11244704124E+03 -0.52338267708E+02  0.14407498661E+03  0.00000000000E+00 0.  1.
</event>
<event>
12    1  0.8331241E-002  0.2112324E+03  0.7818608E-02  0.1141121E+00
         21   -1    0    0  501  502  0.00000000000E+00  0.00000000000E+00  0.40887157795E+03  0.40887157795E+03  0.00000000000E+00 0.  1.
         21   -1    0    0  502  503 -0.00000000000E+00 -0.00000000000E+00 -0.14016799791E+03  0.14016799791E+03  0.00000000000E+00 0.  1.
         -6    2    1    2    0  503  0.31759435646E+02  0.11944159856E+03  0.29978747804E+01  0.21125364827E+03  0.17130137021E+03 0.  0.
        -24    2    3    3    0    0  0.26847021936E+02  0.15579475402E+03  0.19533316282E+01  0.17425547546E+03  0.73269279082E+02 0.  0.
          6    2    1    2  501    0 -0.31759435646E+02 -0.11944159856E+03  0.26570570525E+03  0.33778592759E+03  0.16800254121E+03 0.  0.
         24    2    5    5    0    0  0.82960137509E+01 -0.43183743823E+02  0.22420643504E+03  0.24205725444E+03  0.79934531571E+02 0.  0.
          5    1    5    5  501    0 -0.40055449397E+02 -0.76257854735E+02  0.41499270213E+02  0.95728673152E+02  0.47000000000E+01 0. -1.
        -11    1    6    6    0    0 -0.30664044891E+02 -0.21762358345E+02  0.15725302583E+03  0.16168610955E+03  0.00000000000E+00 0.  1.
         12    1    6    6    0    0  0.38960058642E+02 -0.21421385478E+02  0.66953409215E+02  0.80371144888E+02  0.00000000000E+00 0. -1.
         -5    1    3    3    0  503  0.49124137101E+01 -0.36353155465E+02  0.10445431522E+01  0.36998172807E+02  0.47000000000E+01 0.  1.
         13    1    4    4    0    0 -0.11715244345E+02  0.11270128355E+03  0.16811779560E+02  0.11454895109E+03  0.00000000000E+00 0. -1.
        -14    1    4    4    0    0  0.38562266280E+02  0.43093470476E+02 -0.14858447932E+02  0.59706524378E+02  0.00000000000E+00 0.  1.
</event>
<event>
12    1  0.8331241E-002  0.1945880E+03  0.7818608E-02  0.1155389E+00
         21   -1    0    0  501  502  0.00000000000E+00  0.00000000000E+00  0.58552344559E+03  0.58552344559E+03  0.00000000000E+00 0.  1.
         21   -1    0    0  502  503 -0.00000000000E+00 -0.00000000000E+00 -0.67605088780E+02  0.67605088780E+02  0.00000000000E+00 0. -1.
         -6    2    1    2    0  503 -0.48281643898E+02 -0.65161981304E+02  0.17819618613E+03  0.26385291603E+03  0.17688210650E+03 0.  0.
        -24    2    3    3    0    0 -0.55464992149E+02  0.20094507303E+02  0.50712716813E+02  0.11024824718E+03  0.78120047246E+02 0.  0.
          6    2    1    2  501    0  0.48281643898E+02  0.65161981304E+02  0.33972217067E+03  0.38927561834E+03  0.17189285280E+03 0.  0.
         24    2    5    5    0    0  0.44252171514E+02  0.43083064173E+02  0.34955741050E+03  0.36432492352E+03  0.82023542726E+02 0.  0.
          5    1    5    5  501    0  0.40294723836E+01  0.22078917131E+02 -0.98352398287E+01  0.24950694817E+02  0.47000000000E+01 0. -1.
        -13    1    6    6    0    0  0.34399701137E+02 -0.17526961820E+02  0.96791110836E+02  0.10420677985E+03  0.00000000000E+00 0.  1.
         14    1    6    6    0    0  0.98524703769E+01  0.60610025993E+02  0.25276629967E+03  0.26011814368E+03  0.00000000000E+00 0. -1.
         -5    1    3    3    0  503  0.71833482513E+01 -0.85256488607E+02  0.12748346932E+03  0.15360466885E+03  0.47000000000E+01 0.  1.
         13    1    4    4    0    0 -0.24116184708E+02 -0.16072962443E+02 -0.11991535001E+02  0.31364428868E+02  0.00000000000E+00 0. -1.
        -14    1    4    4    0    0 -0.31348807441E+02  0.36167469746E+02  0.62704251814E+02  0.78883818311E+02  0.00000000000E+00 0.  1.
</event>
<event>
12    1  0.8331241E-002  0.1846491E+03  0.7818608E-02  0.1164313E+00
         21   -1    0    0  501  502  0.00000000000E+00  0.00000000000E+00  0.37205312928E+03  0.37205312928E+03  0.00000000000E+00 0. -1.
         21   -1    0    0  502  503 -0.00000000000E+00 -0.00000000000E+00 -0.13588353365E+03  0.13588353365E+03  0.00000000000E+00 0. -1.
         -6    2    1    2    0  503 -0.32900530256E+02 -0.48385091729E+02 -0.30826798425E+02  0.18331016501E+03  0.17096421585E+03 0.  0.
        -24    2    3    3    0    0 -0.58232322655E+02 -0.41814366689E+02  0.34168721647E+02  0.11308636731E+03  0.80508262122E+02 0.  0.
          6    2    1    2  501    0  0.32900530256E+02  0.48385091729E+02  0.26699639406E+03  0.32462649792E+03  0.17513345402E+03 0.  0.
         24    2    5    5    0    0  0.89447903630E+02  0.39324198888E+02  0.19808138944E+03  0.23489872587E+03  0.79961581357E+02 0.  0.
          5    1    5    5  501    0 -0.56547373374E+02  0.90608928406E+01  0.68915004622E+02  0.89727772047E+02  0.47000000000E+01 0. -1.
        -13    1    6    6    0    0  0.88550711124E+02  0.14517538061E+02  0.18759526798E+03  0.20795185001E+03  0.00000000000E+00 0.  1.
         14    1    6    6    0    0  0.89719250607E+00  0.24806660828E+02  0.10486121457E+02  0.26946875868E+02  0.00000000000E+00 0. -1.
         -5    1    3    3    0  503  0.25331792398E+02 -0.65707250395E+01 -0.64995520071E+02  0.70223797697E+02  0.47000000000E+01 0.  1.
         13    1    4    4    0    0 -0.17048404932E+01 -0.35947298083E+02 -0.13973293475E+02  0.38605280094E+02  0.00000000000E+00 0. -1.
        -14    1    4    4    0    0 -0.56527482161E+02 -0.58670686063E+01  0.48142015121E+02  0.74481087220E+02  0.00000000000E+00 0.  1.
</event>
<event>
12    1  0.8331241E-002  0.1900812E+03  0.7818608E-02  0.1158412E+00
         21   -1    0    0  501  502  0.00000000000E+00  0.00000000000E+00  0.10006824268E+04  0.10006824268E+04  0.00000000000E+00 0.  1.
         21   -1    0    0  502  503 -0.00000000000E+00 -0.00000000000E+00 -0.39784209792E+02  0.39784209792E+02  0.00000000000E+00 0. -1.
         -6    2    1    2    0  503 -0.79707453461E+02  0.15414784199E+02  0.32195831373E+03  0.37388235488E+03  0.17187194593E+03 0.  0.
        -24    2    3    3    0    0 -0.14354108225E+02 -0.19068958379E+02  0.61315408290E+02  0.10292663452E+03  0.79149524340E+02 0.  0.
          6    2    1    2  501    0  0.79707453461E+02 -0.15414784199E+02  0.63893990325E+03  0.66658428169E+03  0.17175421661E+03 0.  0.
         24    2    5    5    0    0  0.26629584977E+02 -0.65528411423E+02  0.47536218062E+03  0.48739612054E+03  0.81133643162E+02 0.  0.
          5    1    5    5  501    0  0.53077868484E+02  0.50113627224E+02  0.16357772263E+03  0.17918816115E+03  0.47000000000E+01 0. -1.
        -11    1    6    6    0    0 -0.13668874152E+00  0.11354451858E+02  0.19821033214E+03  0.19853533194E+03  0.00000000000E+00 0.  1.
         12    1    6    6    0    0  0.26766273719E+02 -0.76882863281E+02  0.27715184848E+03  0.28886078860E+03  0.00000000000E+00 0. -1.
         -5    1    3    3    0  503 -0.65353345236E+02  0.34483742579E+02  0.26064290544E+03  0.27095572036E+03  0.47000000000E+01 0.  1.
         11    1    4    4    0    0 -0.41933451474E+02 -0.31327853386E+02  0.41799379491E+02  0.66985348220E+02  0.00000000000E+00 0. -1.
        -12    1    4    4    0    0  0.27579343249E+02  0.12258895007E+02  0.19516028799E+02  0.35941286300E+02  0.00000000000E+00 0.  1.
</event>
<event>
12    1  0.8331241E-002  0.1951511E+03  0.7818608E-02  0.1157879E+00
         21   -1    0    0  503  502  0.00000000000E+00  0.00000000000E+00  0.13762680606E+03  0.13762680606E+03  0.00000000000E+00 0. -1.
         21   -1    0    0  501  503 -0.00000000000E+00 -0.00000000000E+00 -0.68723494766E+03  0.68723494766E+03  0.00000000000E+00 0. -1.
          6    2    1    2  501    0 -0.52069489956E+02  0.82753730482E+01 -0.59795221648E+03  0.62381174377E+03  0.16974841648E+03 0.  0.
         24    2    3    3    0    0 -0.12742541159E+02 -0.47312551954E+02 -0.21585379434E+03  0.23566496676E+03  0.80896638367E+02 0.  0.
         -6    2    1    2    0  502  0.52069489956E+02 -0.82753730482E+01  0.48344074879E+02  0.20105000995E+03  0.18789423446E+03 0.  0.
        -24    2    5    5    0    0  0.47539390414E+02  0.37910181990E+02 -0.29581489032E+02  0.11023089959E+03  0.87055219208E+02 0.  0.
          5    1    3    3  501    0 -0.39326948797E+02  0.55587925002E+02 -0.38209842214E+03  0.38814677701E+03  0.47000000000E+01 0. -1.
        -11    1    4    4    0    0  0.31188658725E+02 -0.16857581870E+01 -0.72545200528E+02  0.78983418092E+02  0.00000000000E+00 0.  1.
         12    1    4    4    0    0 -0.43931199884E+02 -0.45626793767E+02 -0.14330859381E+03  0.15668154867E+03  0.00000000000E+00 0. -1.
         -5    1    5    5    0  502  0.45300995417E+01 -0.46185555038E+02  0.77925563911E+02  0.90819110362E+02  0.47000000000E+01 0.  1.
         13    1    6    6    0    0  0.46598033289E+02 -0.17377888646E+02 -0.22132200156E+02  0.54435301083E+02  0.00000000000E+00 0. -1.
        -14    1    6    6    0    0  0.94135712481E+00  0.55288070636E+02 -0.74492888762E+01  0.55795598506E+02  0.00000000000E+00 0.  1.
</event>
<event>
12    1  0.8331241E-002  0.2716865E+03  0.7818608E-02  0.1100521E+00
         21   -1    0    0  501  502  0.00000000000E+00  0.00000000000E+00  0.13864004449E+04  0.13864004449E+04  0.00000000000E+00 0. -1.
         21   -1    0    0  502  503 -0.00000000000E+00 -0.00000000000E+00 -0.54510273621E+02  0.54510273621E+02  0.00000000000E+00 0.  1.
         -6    2    1    2    0  503  0.29708451775E+02 -0.20764992270E+03  0.54285335847E+03  0.60640927551E+03  0.17041525200E+03 0.  0.
        -24    2    3    3    0    0 -0.28249209587E+02 -0.45530485078E+02  0.15424764219E+03  0.18134657979E+03  0.78887286467E+02 0.  0.
          6    2    1    2  501    0 -0.29708451775E+02  0.20764992270E+03  0.78903681277E+03  0.83450144297E+03  0.17266291994E+03 0.  0.
         24    2    5    5    0    0  0.24849483042E+02  0.11433498184E+03  0.60291616883E+03  0.61921737357E+03  0.78944690881E+02 0.  0.
          5    1    5    5  501    0 -0.54557934817E+02  0.93314940854E+02  0.18612064393E+03  0.21528406940E+03  0.47000000000E+01 0. -1.
        -11    1    6    6    0    0  0.31057306026E+00 -0.11348599825E+02  0.28037470484E+02  0.30248750797E+02  0.00000000000E+00 0.  1.
         12    1    6    6    0    0  0.24538909981E+02  0.12568358167E+03  0.57487869835E+03  0.58896862278E+03  0.00000000000E+00 0. -1.
         -5    1    3    3    0  503  0.57957661361E+02 -0.16211943762E+03  0.38860571628E+03  0.42506269572E+03  0.47000000000E+01 0.  1.
         13    1    4    4    0    0 -0.14334559695E+02 -0.18837548820E+00  0.12458172326E+03  0.12540383111E+03  0.00000000000E+00 0. -1.
        -14    1    4    4    0    0 -0.13914649892E+02 -0.45342109590E+02  0.29665918932E+02  0.55942748679E+02  0.00000000000E+00 0.  1.
</event>
<event>
12    1  0.8331241E-002  0.1872452E+03  0.7818608E-02  0.1161168E+00
         21   -1    0    0  501  502  0.00000000000E+00  0.00000000000E+00  0.29379803616E+03  0.29379803616E+03  0.00000000000E+00 0. -1.
         21   -1    0    0  502  503 -0.00000000000E+00 -0.00000000000E+00 -0.13778894480E+03  0.13778894480E+03  0.00000000000E+00 0. -1.
         -6    2    1    2    0  503 -0.47813665089E+02  0.57167759871E+02 -0.19727903875E+01  0.18725563651E+03  0.17177450964E+03 0.  0.
        -24    2    3    3    0    0 -0.24451194938E+01  0.77874074977E+02  0.44894183106E+02  0.11865782591E+03  0.77419905766E+02 0.  0.
          6    2    1    2  501    0  0.47813665089E+02 -0.57167759871E+02  0.15798188175E+03  0.24433134445E+03  0.17083685662E+03 0.  0.
         24    2    5    5    0    0  0.67506090450E+02  0.19954671778E+02  0.11058291586E+03  0.15157136899E+03  0.76092295560E+02 0.  0.
          5    1    5    5  501    0 -0.19692425362E+02 -0.77122431649E+02  0.47398965899E+02  0.92759975465E+02  0.47000000000E+01 0. -1.
        -11    1    6    6    0    0  0.63203302059E+01  0.84936404812E+01 -0.10820746729E+02  0.15138595123E+02  0.00000000000E+00 0.  1.
         12    1    6    6    0    0  0.61185760245E+02  0.11461031297E+02  0.12140366258E+03  0.13643277386E+03  0.00000000000E+00 0. -1.
         -5    1    3    3    0  503 -0.45368545595E+02 -0.20706315106E+02 -0.46866973494E+02  0.68597810600E+02  0.47000000000E+01 0.  1.
         13    1    4    4    0    0  0.31592235118E+02  0.30563083227E+02 -0.17755780216E+01  0.43992318118E+02  0.00000000000E+00 0. -1.
        -14    1    4    4    0    0 -0.34037354612E+02  0.47310991750E+02  0.46669761128E+02  0.74665507787E+02  0.00000000000E+00 0.  1.
</event>
<event>
12    1  0.8331241E-002  0.2674988E+03  0.7818608E-02  0.1102934E+00
         21   -1    0    0  501  502  0.00000000000E+00  0.00000000000E+00  0.56411018704E+02  0.56411018704E+02  0.00000000000E+00 0. -1.
         21   -1    0    0  502  503 -0.00000000000E+00 -0.00000000000E+00 -0.13192461411E+04  0.13192461411E+04  0.00000000000E+00 0.  1.
         -6    2    1    2    0  503  0.78210730581E+02  0.18923657643E+03 -0.77699294166E+03  0.82175036205E+03  0.17212851569E+03 0.  0.
        -24    2    3    3    0    0 -0.24393678889E+02  0.10794584787E+03 -0.38629233963E+03  0.40967646357E+03  0.79785183456E+02 0.  0.
          6    2    1    2  501    0 -0.78210730581E+02 -0.18923657643E+03 -0.48584218074E+03  0.55390679775E+03  0.16983143342E+03 0.  0.
         24    2    5    5    0    0  0.19648190383E+01 -0.12965764798E+03 -0.37513174938E+03  0.40472014593E+03  0.79117639829E+02 0.  0.
          5    1    5    5  501    0 -0.80175549619E+02 -0.59578928444E+02 -0.11071043136E+03  0.14918665183E+03  0.47000000000E+01 0. -1.
        -11    1    6    6    0    0  0.40262261545E+01 -0.11021474006E+03 -0.19909740969E+03  0.22760333471E+03  0.00000000000E+00 0.  1.
         12    1    6    6    0    0 -0.20614071162E+01 -0.19442907925E+02 -0.17603433969E+03  0.17711681122E+03  0.00000000000E+00 0. -1.
         -5    1    3    3    0  503  0.10260440947E+03  0.81290728554E+02 -0.39070060202E+03  0.41207389849E+03  0.47000000000E+01 0.  1.
         13    1    4    4    0    0  0.22984030588E+02  0.71250718625E+02 -0.18259590548E+03  0.19734790413E+03  0.00000000000E+00 0. -1.
        -14    1    4    4    0    0 -0.47377709477E+02  0.36695129246E+02 -0.20369643415E+03  0.21232855943E+03  0.00000000000E+00 0.  1.
</event>
<event>
12    1  0.8331241E-002  0.2079282E+03  0.7818608E-02  0.1143713E+00
         21   -1    0    0  503  502  0.00000000000E+00  0.00000000000E+00  0.44666048147E+02  0.44666048147E+02  0.00000000000E+00 0.  1.
         21   -1    0    0  501  503 -0.00000000000E+00 -0.00000000000E+00 -0.10578338653E+04  0.10578338653E+04  0.00000000000E+00 0. -1.
          6    2    1    2  501    0  0.44229725188E+02 -0.10254830727E+03 -0.33872568925E+03  0.39745343500E+03  0.17539018365E+03 0.  0.
         24    2    3    3    0    0  0.19689160740E+02 -0.14006917886E+03 -0.26554877675E+03  0.31150574374E+03  0.80700914723E+02 0.  0.
         -6    2    1    2    0  502 -0.44229725188E+02  0.10254830727E+03 -0.67444212791E+03  0.70504647846E+03  0.17247008137E+03 0.  0.
        -24    2    5    5    0    0  0.35040433690E+02  0.82469927943E+02 -0.47398353578E+03  0.48849940144E+03  0.77085355346E+02 0.  0.
          5    1    3    3  501    0  0.24540564449E+02  0.37520871589E+02 -0.73176912500E+02  0.85947691251E+02  0.47000000000E+01 0. -1.
        -13    1    4    4    0    0 -0.11397312992E+02 -0.31072042476E+02 -0.14651035835E+02  0.36194245649E+02  0.00000000000E+00 0.  1.
         14    1    4    4    0    0  0.31086473732E+02 -0.10899713639E+03 -0.25089774091E+03  0.27531149810E+03  0.00000000000E+00 0. -1.
         -5    1    5    5    0  502 -0.79270158878E+02  0.20078379329E+02 -0.20045859214E+03  0.21654707702E+03  0.47000000000E+01 0.  1.
         11    1    6    6    0    0  0.84525385403E+00 -0.11010540711E+02 -0.13803605922E+02  0.17677273469E+02  0.00000000000E+00 0. -1.
        -12    1    6    6    0    0  0.34195179836E+02  0.93480468654E+02 -0.46017992985E+03  0.47082212797E+03  0.00000000000E+00 0.  1.
</event>
<event>
12    1  0.8331241E-002  0.2172226E+03  0.7818608E-02  0.1136124E+00
         21   -1    0    0  501  502  0.00000000000E+00  0.00000000000E+00  0.73640951485E+03  0.73640951485E+03  0.00000000000E+00 0.  1.
         21   -1    0    0  502  503 -0.00000000000E+00 -0.00000000000E+00 -0.65662784803E+02  0.65662784803E+02  0.00000000000E+00 0.  1.
         -6    2    1    2    0  503  0.11843987431E+03  0.58267976801E+02  0.26788707617E+03  0.34438073680E+03  0.17149765407E+03 0.  0.
        -24    2    3    3    0    0  0.82239110241E+02 -0.21764438483E+02  0.20529402678E+03  0.23641934255E+03  0.80693903529E+02 0.  0.
          6    2    1    2  501    0 -0.11843987431E+03 -0.58267976801E+02  0.40285965387E+03  0.45769156285E+03  0.17251812959E+03 0.  0.
         24    2    5    5    0    0 -0.83019750420E+02 -0.57373670039E+02  0.13350052486E+03  0.18597145807E+03  0.81110887704E+02 0.  0.
          5    1    5    5  501    0 -0.35420123891E+02 -0.89430676218E+00  0.26935912901E+03  0.27172010478E+03  0.47000000000E+01 0. -1.
        -11    1    6    6    0    0 -0.46410100761E+02 -0.26711897765E+02  0.12693623053E+03  0.13776875392E+03  0.00000000000E+00 0.  1.
         12    1    6    6    0    0 -0.36609649659E+02 -0.30661772273E+02  0.65642943280E+01  0.48202704147E+02  0.00000000000E+00 0. -1.
         -5    1    3    3    0  503  0.36200764070E+02  0.80032415284E+02  0.62593049394E+02  0.10796139425E+03  0.47000000000E+01 0.  1.
         11    1    4    4    0    0  0.51578536124E+01 -0.32008077384E+02  0.28059268852E+02  0.42877068932E+02  0.00000000000E+00 0. -1.
        -12    1    4    4    0    0  0.77081256629E+02  0.10243638901E+02  0.17723475792E+03  0.19354227362E+03  0.00000000000E+00 0.  1.
</event>
<event>
12    1  0.8331241E-002  0.1725602E+03  0.7818608E-02  0.1175320E+00
         21   -1    0    0  501  502  0.00000000000E+00  0.00000000000E+00  0.26962518685E+03  0.26962518685E+03  0.00000000000E+00 0.  1.
         21   -1    0    0  502  503 -0.00000000000E+00 -0.00000000000E+00 -0.11738334179E+03  0.11738334179E+03  0.00000000000E+00 0.  1.
         -6    2    1    2    0  503 -0.27792288032E+02  0.21645710380E+02  0.27986173143E+02  0.17436682942E+03  0.16846250996E+03 0.  0.
        -24    2    3    3    0    0  0.47506243432E+02 -0.19215736286E+01  0.23119830525E+02  0.95176823697E+02  0.79142691358E+02 0.  0.
          6    2    1    2  501    0  0.27792288032E+02 -0.21645710380E+02  0.12425567192E+03  0.21264169922E+03  0.16892623298E+03 0.  0.
         24    2    5    5    0    0  0.54884079914E+02 -0.65605560404E+02  0.10508075623E+03  0.15735878148E+03  0.80021678292E+02 0.  0.
          5    1    5    5  501    0 -0.27091791882E+02  0.43959850024E+02  0.19174915694E+02  0.55282917736E+02  0.47000000000E+01 0. -1.
        -11    1    6    6    0    0  0.12099308543E+02  0.18043342998E+02  0.30262258403E+02  0.37252647925E+02  0.00000000000E+00 0.  1.
         12    1    6    6    0    0  0.42784771370E+02 -0.83648903402E+02  0.74818497827E+02  0.12010613356E+03  0.00000000000E+00 0. -1.
         -5    1    3    3    0  503 -0.75298531463E+02  0.23567284009E+02  0.48663426181E+01  0.79190005724E+02  0.47000000000E+01 0.  1.
         13    1    4    4    0    0  0.41175336884E+02  0.31534244002E+02 -0.34636607388E+01  0.51978975153E+02  0.00000000000E+00 0. -1.
        -14    1    4    4    0    0  0.63309065478E+01 -0.33455817630E+02  0.26583491264E+02  0.43197848544E+02  0.00000000000E+00 0.  1.
</event>
<event>
12    1  0.8331241E-002  0.1902239E+03  0.7818608E-02  0.1158276E+00
         21   -1    0    0  503  502  0.00000000000E+00  0.00000000000E+00  0.78783028275E+02  0.78783028275E+02  0.00000000000E+00 0.  1.
         21   -1    0    0  501  503 -0.00000000000E+00 -0.00000000000E+00 -0.10915328232E+04  0.10915328232E+04  0.00000000000E+00 0.  1.
          6    2    1    2  501    0 -0.16052231451E+01 -0.81356420016E+02 -0.95173707677E+03  0.97054673270E+03  0.17186056335E+03 0.  0.
         24    2    3    3    0    0 -0.23362325245E+02 -0.79343833866E+01 -0.75365197843E+03  0.75812271537E+03  0.78421899277E+02 0.  0.
         -6    2    1    2    0  502  0.16052231451E+01  0.81356420016E+02 -0.61012718122E+02  0.19976911874E+03  0.17194099340E+03 0.  0.
        -24    2    5    5    0    0 -0.32870476720E+02 -0.91877177369E+01 -0.19485260150E+02  0.94254027271E+02  0.85669503889E+02 0.  0.
          5    1    3    3  501    0  0.21757102100E+02 -0.73422036630E+02 -0.19808509834E+03  0.21242401733E+03  0.47000000000E+01 0. -1.
        -13    1    4    4    0    0 -0.34569696666E+02 -0.22298144347E+02 -0.20079423964E+03  0.20496486977E+03  0.00000000000E+00 0.  1.
         14    1    4    4    0    0  0.11207371421E+02  0.14363760960E+02 -0.55285773879E+03  0.55315784560E+03  0.00000000000E+00 0. -1.
         -5    1    5    5    0  502  0.34475699865E+02  0.90544137753E+02 -0.41527457972E+02  0.10551509147E+03  0.47000000000E+01 0.  1.
         13    1    6    6    0    0  0.24504736129E+02 -0.21771264019E+02 -0.14599942216E+01  0.32811607898E+02  0.00000000000E+00 0. -1.
        -14    1    6    6    0    0 -0.57375212849E+02  0.12583546282E+02 -0.18025265928E+02  0.61442419372E+02  0.00000000000E+00 0.  1.
</event>
<event>
12    1  0.8331241E-002  0.2565683E+03  0.7818608E-02  0.1110738E+00
         21   -1    0    0  503  502  0.00000000000E+00  0.00000000000E+00  0.26418298355E+04  0.26418298355E+04  0.00000000000E+00 0.  1.
         21   -1    0    0  501  503 -0.00000000000E+00 -0.00000000000E+00 -0.83220711540E+02  0.83220711540E+02  0.00000000000E+00 0.  1.
          6    2    1    2  501    0  0.10734337937E+02  0.17964369620E+03  0.12270119784E+03  0.27566802968E+03  0.16896802964E+03 0.  0.
         24    2    3    3    0    0  0.62483630418E+02  0.63835651451E+02  0.67866324713E+02  0.13739856157E+03  0.79330525178E+02 0.  0.
         -6    2    1    2    0  502 -0.10734337937E+02 -0.17964369620E+03  0.24359079261E+04  0.24493825173E+04  0.18286664048E+03 0.  0.
        -24    2    5    5    0    0  0.14549508373E+02 -0.10868317588E+03  0.21312665947E+04  0.21355304835E+04  0.78545703115E+02 0.  0.
          5    1    3    3  501    0 -0.51749292482E+02  0.11580804475E+03  0.54834873128E+02  0.13826946811E+03  0.47000000000E+01 0. -1.
        -11    1    4    4    0    0  0.52083502030E+02  0.79178504644E+02  0.37707114033E+02  0.10199879034E+03  0.00000000000E+00 0.  1.
         12    1    4    4    0    0  0.10400128389E+02 -0.15342853192E+02  0.30159210680E+02  0.35399771234E+02  0.00000000000E+00 0. -1.
         -5    1    5    5    0  502 -0.25283846310E+02 -0.70960520326E+02  0.30464133141E+03  0.31385203382E+03  0.47000000000E+01 0.  1.
         11    1    6    6    0    0  0.43874257294E+02 -0.36967730624E+02  0.88435920047E+03  0.88621823442E+03  0.00000000000E+00 0. -1.
        -12    1    6    6    0    0 -0.29324748920E+02 -0.71715445254E+02  0.12469073942E+04  0.12493122491E+04  0.00000000000E+00 0.  1.
</event>
<event>
12    1  0.8331241E-002  0.1925015E+03  0.7818608E-02  0.1156641E+00
         21   -1    0    0  501  502  0.00000000000E+00  0.00000000000E+00  0.15775198143E+03  0.15775198143E+03  0.00000000000E+00 0.  1.
         21   -1    0    0  502  503 -0.00000000000E+00 -0.00000000000E+00 -0.29952911653E+03  0.29952911653E+03  0.00000000000E+00 0.  1.
         -6    2    1    2    0  503  0.10620822700E+02  0.90008213942E+02 -0.17867479892E+03  0.26127529110E+03  0.16770752374E+03 0.  0.
        -24    2    3    3    0    0  0.42581937739E+02  0.71188579696E+02 -0.45558674683E+02  0.12300857768E+03  0.78577872477E+02 0.  0.
          6    2    1    2  501    0 -0.10620822700E+02 -0.90008213942E+02  0.36897663823E+02  0.19600580686E+03  0.16983096972E+03 0.  0.
         24    2    5    5    0    0  0.15117123181E+02  0.96735745429E+01  0.43223224057E+02  0.92753671163E+02  0.80080527962E+02 0.  0.
          5    1    5    5  501    0 -0.25737945881E+02 -0.99681788485E+02 -0.63255602338E+01  0.10325213570E+03  0.47000000000E+01 0. -1.
        -11    1    6    6    0    0 -0.28863607942E+02 -0.41527659386E+01 -0.57026222802E+00  0.29166393802E+02  0.00000000000E+00 0.  1.
         12    1    6    6    0    0  0.43980731123E+02  0.13826340481E+02  0.43793486285E+02  0.63587277361E+02  0.00000000000E+00 0. -1.
         -5    1    3    3    0  503 -0.31961115039E+02  0.18819634246E+02 -0.13311612424E+03  0.13826671342E+03  0.47000000000E+01 0.  1.
         11    1    4    4    0    0  0.46175247685E+02  0.32457017014E+02  0.77991245726E+01  0.56977520096E+02  0.00000000000E+00 0. -1.
        -12    1    4    4    0    0 -0.35933099462E+01  0.38731562682E+02 -0.53357799255E+02  0.66031057583E+02  0.00000000000E+00 0.  1.
</event>
<event>
12    1  0.8331241E-002  0.1888726E+03  0.7818608E-02  0.1160606E+00
         21   -1    0    0  501  502  0.00000000000E+00  0.00000000000E+00  0.18739228028E+03  0.18739228028E+03  0.00000000000E+00 0.  1.
         21   -1    0    0  502  503 -0.00000000000E+00 -0.00000000000E+00 -0.11748291809E+04  0.11748291809E+04  0.00000000000E+00 0.  1.
         -6    2    1    2    0  503  0.60237561838E+02 -0.30799427534E+02 -0.11197652128E+04  0.11355822247E+04  0.17633969700E+03 0.  0.
        -24    2    3    3    0    0  0.30851881230E+02  0.33072387095E+02 -0.36798151003E+03  0.38050345224E+03  0.85597103185E+02 0.  0.
          6    2    1    2  501    0 -0.60237561838E+02  0.30799427534E+02  0.13232831222E+03  0.22663923641E+03  0.17110637824E+03 0.  0.
         24    2    5    5    0    0  0.33254197493E+02  0.15644939511E+02  0.76127363839E+02  0.11640764308E+03  0.80029732340E+02 0.  0.
          5    1    5    5  501    0 -0.93491759330E+02  0.15154488022E+02  0.56200948385E+02  0.11023159334E+03  0.47000000000E+01 0. -1.
        -11    1    6    6    0    0  0.26260173137E+01 -0.18242504973E+02  0.67437648438E+02  0.69910810190E+02  0.00000000000E+00 0.  1.
         12    1    6    6    0    0  0.30628180179E+02  0.33887444484E+02  0.86897154013E+01  0.46496832887E+02  0.00000000000E+00 0. -1.
         -5    1    3    3    0  503  0.29385680608E+02 -0.63871814629E+02 -0.75178370278E+03  0.75507877251E+03  0.47000000000E+01 0.  1.
         11    1    4    4    0    0 -0.13412673916E+02  0.37639122521E+01 -0.25803706741E+03  0.25841283833E+03  0.00000000000E+00 0. -1.
        -12    1    4    4    0    0  0.44264555145E+02  0.29308474843E+02 -0.10994444262E+03  0.12209061390E+03  0.00000000000E+00 0.  1.
</event>
<event>
12    1  0.8331241E-002  0.2265601E+03  0.7818608E-02  0.1129125E+00
         21   -1    0    0  501  502  0.00000000000E+00  0.00000000000E+00  0.20356601711E+03  0.20356601711E+03  0.00000000000E+00 0.  1.
         21   -1    0    0  502  503 -0.00000000000E+00 -0.00000000000E+00 -0.59277761558E+03  0.59277761558E+03  0.00000000000E+00 0.  1.
         -6    2    1    2    0  503  0.69546511030E+02  0.13159276392E+03 -0.49658901588E+03  0.54582976737E+03  0.17081016228E+03 0.  0.
        -24    2    3    3    0    0 -0.26491943859E+02  0.78870745429E+02 -0.23192614596E+03  0.25934849265E+03  0.80928893999E+02 0.  0.
          6    2    1    2  501    0 -0.69546511030E+02 -0.13159276392E+03  0.10737741742E+03  0.25051386532E+03  0.17051074522E+03 0.  0.
         24    2    5    5    0    0 -0.62551740650E+02 -0.10422775454E+03  0.63444101884E+01  0.14550182267E+03  0.79714388820E+02 0.  0.
          5    1    5    5  501    0 -0.69947703800E+01 -0.27365009375E+02  0.10103300723E+03  0.10501204265E+03  0.47000000000E+01 0. -1.
        -13    1    6    6    0    0 -0.69193009225E+01 -0.34708721277E+02  0.37126210705E+02  0.51292568460E+02  0.00000000000E+00 0.  1.
         14    1    6    6    0    0 -0.55632439727E+02 -0.69519033268E+02 -0.30781800516E+02  0.94209254214E+02  0.00000000000E+00 0. -1.
         -5    1    3    3    0  503  0.96038454889E+02  0.52722018490E+02 -0.26466286992E+03  0.28648127472E+03  0.47000000000E+01 0.  1.
         13    1    4    4    0    0 -0.28078494664E+02 -0.67177557223E+01 -0.41374253336E+02  0.50451550458E+02  0.00000000000E+00 0. -1.
        -14    1    4    4    0    0  0.15865508046E+01  0.85588501151E+02 -0.19055189263E+03  0.20889694219E+03  0.00000000000E+00 0.  1.
</event>
<event>
12    1  0.8331241E-002  0.1900247E+03  0.7818608E-02  0.1158924E+00
         21   -1    0    0  501  502  0.00000000000E+00  0.00000000000E+00  0.12362960812E+04  0.12362960812E+04  0.00000000000E+00 0. -1.
         21   -1    0    0  502  503 -0.00000000000E+00 -0.00000000000E+00 -0.35574248743E+02  0.35574248743E+02  0.00000000000E+00 0.  1.
         -6    2    1    2    0  503 -0.25799828487E+02  0.73571283979E+02  0.32174121293E+03  0.37258376819E+03  0.17094704222E+03 0.  0.
        -24    2    3    3    0    0 -0.55486528413E+02  0.73370907050E+02  0.12376250818E+03  0.17233642653E+03  0.76945699318E+02 0.  0.
          6    2    1    2  501    0  0.25799828487E+02 -0.73571283979E+02  0.87898061956E+03  0.89928656179E+03  0.17329462102E+03 0.  0.
         24    2    5    5    0    0 -0.53357637323E+02 -0.58278411381E+02  0.56120848043E+03  0.57141311249E+03  0.72901138049E+02 0.  0.
          5    1    5    5  501    0  0.79157465810E+02 -0.15292872597E+02  0.31777213913E+03  0.32787344929E+03  0.47000000000E+01 0. -1.
        -13    1    6    6    0    0  0.16664831695E+02 -0.11215152442E+02  0.63407581758E+02  0.66513289531E+02  0.00000000000E+00 0.  1.
         14    1    6    6    0    0 -0.70022469018E+02 -0.47063258939E+02  0.49780089867E+03  0.50489982296E+03  0.00000000000E+00 0. -1.
         -5    1    3    3    0  503  0.29686699926E+02  0.20037692908E+00  0.19797870475E+03  0.20024734165E+03  0.47000000000E+01 0.  1.
         11    1    4    4    0    0 -0.55130920050E+02  0.78127064623E+02  0.13189435217E+03  0.16290910566E+03  0.00000000000E+00 0. -1.
        -12    1    4    4    0    0 -0.35560836283E+00 -0.47561575738E+01 -0.81318439921E+01  0.94273208754E+01  0.00000000000E+00 0.  1.
</event>
<event>
12    1  0.8331241E-002  0.2351213E+03  0.7818608E-02  0.1124170E+00
         21   -1    0    0  501  502  0.00000000000E+00  0.00000000000E+00  0.12325753948E+03  0.12325753948E+03  0.00000000000E+00 0.  1.
         21   -1    0    0  502  503 -0.00000000000E+00 -0.00000000000E+00 -0.16550384421E+04  0.16550384421E+04  0.00000000000E+00 0.  1.
         -6    2    1    2    0  503 -0.58773920136E+02  0.14889303440E+03 -0.15260370300E+04  0.15431045805E+04  0.16358245664E+03 0.  0.
        -24    2    3    3    0    0 -0.10213983959E+02  0.10045576146E+02 -0.48827402434E+03  0.49495820240E+03  0.79792607460E+02 0.  0.
          6    2    1    2  501    0  0.58773920136E+02 -0.14889303440E+03 -0.57438725619E+01  0.23519140101E+03  0.17221641517E+03 0.  0.
         24    2    5    5    0    0 -0.18305423600E+02 -0.57048065789E+02  0.34831426179E+02  0.10852187682E+03  0.83511670774E+02 0.  0.
          5    1    5    5  501    0  0.77079343736E+02 -0.91844968610E+02 -0.40575298741E+02  0.12666952419E+03  0.47000000000E+01 0. -1.
        -11    1    6    6    0    0  0.32745053126E+01 -0.50163564440E+02 -0.16095855130E+02  0.52784298184E+02  0.00000000000E+00 0.  1.
         12    1    6    6    0    0 -0.21579928912E+02 -0.68845013492E+01  0.50927281310E+02  0.55737578637E+02  0.00000000000E+00 0. -1.
         -5    1    3    3    0  503 -0.48559936177E+02  0.13884745825E+03 -0.10377630057E+04  0.10481463781E+04  0.47000000000E+01 0.  1.
         13    1    4    4    0    0  0.21351715946E+02 -0.14634252109E+02 -0.35107342488E+03  0.35202642907E+03  0.00000000000E+00 0. -1.
        -14    1    4    4    0    0 -0.31565699905E+02  0.24679828256E+02 -0.13720059947E+03  0.14293177333E+03  0.00000000000E+00 0.  1.
</event>
<event>
12    1  0.8331241E-002  0.2993202E+03  0.7818608E-02  0.1085669E+00
         21   -1    0    0  503  502  0.00000000000E+00  0.00000000000E+00  0.85283412117E+03  0.85283412117E+03  0.00000000000E+00 0. -1.
         21   -1    0    0  501  503 -0.00000000000E+00 -0.00000000000E+00 -0.41104849499E+03  0.41104849499E+03  0.00000000000E+00 0. -1.
          6    2    1    2  501    0 -0.42237194127E+02  0.24135156381E+03 -0.32463318630E+03  0.44108836037E+03  0.17069762181E+03 0.  0.
         24    2    3    3    0    0 -0.49694553873E+02  0.15485788427E+03 -0.30062923464E+03  0.35089385661E+03  0.79360247464E+02 0.  0.
         -6    2    1    2    0  502  0.42237194127E+02 -0.24135156381E+03  0.76641881247E+03  0.82279425579E+03  0.17192449895E+03 0.  0.
        -24    2    5    5    0    0  0.67732958949E+02 -0.25027296854E+03  0.67503261441E+03  0.72738381254E+03  0.78701129035E+02 0.  0.
          5    1    3    3  501    0  0.74573597463E+01  0.86493679535E+02 -0.24003951652E+02  0.90194503762E+02  0.47000000000E+01 0. -1.
        -13    1    4    4    0    0 -0.32368139030E+01  0.66405432308E+01  0.43964512495E+01  0.85966599463E+01  0.00000000000E+00 0.  1.
         14    1    4    4    0    0 -0.46457739970E+02  0.14821734104E+03 -0.30502568589E+03  0.34229719666E+03  0.00000000000E+00 0. -1.
         -5    1    5    5    0  502 -0.25495764822E+02  0.89214047385E+01  0.91386198057E+02  0.95410443253E+02  0.47000000000E+01 0.  1.
         13    1    6    6    0    0  0.51253776373E+02 -0.11194159285E+03  0.22760053210E+03  0.25876605654E+03  0.00000000000E+00 0. -1.
        -14    1    6    6    0    0  0.16479182576E+02 -0.13833137569E+03  0.44743208231E+03  0.46861775600E+03  0.00000000000E+00 0.  1.
</event>
<event>
12    1  0.8331241E-002  0.1727721E+03  0.7818608E-02  0.1175101E+00
         21   -1    0    0  501  502  0.00000000000E+00  0.00000000000E+00  0.14151711594E+03  0.14151711594E+03  0.00000000000E+00 0.  1.
         21   -1    0    0  502  503 -0.00000000000E+00 -0.00000000000E+00 -0.24377511965E+03  0.24377511965E+03  0.00000000000E+00 0.  1.
         -6    2    1    2    0  503  0.10841066915E+02  0.53645221490E+01 -0.12248027990E+03  0.21178197386E+03  0.17234813216E+03 0.  0.
        -24    2    3    3    0    0 -0.41580951326E+02 -0.13638807471E+02 -0.12614897377E+03  0.15570395814E+03  0.80094733988E+02 0.  0.
          6    2    1    2  501    0 -0.10841066915E+02 -0.53645221490E+01  0.20222276188E+02  0.17351026173E+03  0.17190277381E+03 0.  0.
         24    2    5    5    0    0  0.40856892219E+02 -0.12379457329E+02  0.58714953411E+02  0.10850515044E+03  0.80643569570E+02 0.  0.
          5    1    5    5  501    0 -0.51697959134E+02  0.70149351801E+01 -0.38492677223E+02  0.65005111291E+02  0.47000000000E+01 0. -1.
        -13    1    6    6    0    0  0.40990046019E+01  0.32146388058E+02  0.29380434725E+02  0.43742451332E+02  0.00000000000E+00 0.  1.
         14    1    6    6    0    0  0.36757887617E+02 -0.44525845387E+02  0.29334518685E+02  0.64762699110E+02  0.00000000000E+00 0. -1.
         -5    1    3    3    0  503  0.52422018241E+02  0.19003329620E+02  0.36686938728E+01  0.56078015727E+02  0.47000000000E+01 0.  1.
         13    1    4    4    0    0 -0.44712509832E+02  0.61089557702E+01 -0.23030464952E+02  0.50664881249E+02  0.00000000000E+00 0. -1.
        -14    1    4    4    0    0  0.31315585059E+01 -0.19747763241E+02 -0.10311850882E+03  0.10503907689E+03  0.00000000000E+00 0.  1.
</event>
<event>
12    1  0.8331241E-002  0.2206488E+03  0.7818608E-02  0.1133627E+00
         21   -1    0    0  503  502  0.00000000000E+00  0.00000000000E+00  0.82459720487E+03  0.82459720487E+03  0.00000000000E+00 0.  1.
         21   -1    0    0  501  503 -0.00000000000E+00 -0.00000000000E+00 -0.11010561259E+03  0.11010561259E+03  0.00000000000E+00 0. -1.
          6    2    1    2  501    0 -0.13571087367E+03 -0.16651281955E+02  0.38492495710E+02  0.22398118947E+03  0.17317965985E+03 0.  0.
         24    2    3    3    0    0 -0.35467910378E+02 -0.36590049849E+02 -0.25068428966E+02  0.10353083745E+03  0.86564448582E+02 0.  0.
         -6    2    1    2    0  502  0.13571087367E+03  0.16651281955E+02  0.67599909657E+03  0.71072162799E+03  0.17162676804E+03 0.  0.
        -24    2    5    5    0    0  0.28238036856E+02  0.19733050045E+02  0.10805982681E+03  0.13267577160E+03  0.68841515173E+02 0.  0.
          5    1    3    3  501    0 -0.10024296329E+03  0.19938767894E+02  0.63560924676E+02  0.12045035202E+03  0.47000000000E+01 0. -1.
        -13    1    4    4    0    0 -0.26014271768E+02 -0.59890058296E+02  0.36031300592E+01  0.65395290079E+02  0.00000000000E+00 0.  1.
         14    1    4    4    0    0 -0.94536386094E+01  0.23300008447E+02 -0.28671559025E+02  0.38135547374E+02  0.00000000000E+00 0. -1.
         -5    1    5    5    0  502  0.10747283682E+03 -0.30817680895E+01  0.56793926976E+03  0.57804585639E+03  0.47000000000E+01 0.  1.
         11    1    6    6    0    0  0.17586292207E+02 -0.20666197118E+02  0.15809831752E+02  0.31405734459E+02  0.00000000000E+00 0. -1.
        -12    1    6    6    0    0  0.10651744649E+02  0.40399247163E+02  0.92249995055E+02  0.10127003714E+03  0.00000000000E+00 0.  1.
</event>
<event>
12    1  0.8331241E-002  0.1804376E+03  0.7818608E-02  0.1167628E+00
         21   -1    0    0  503  502  0.00000000000E+00  0.00000000000E+00  0.25905013540E+02  0.25905013540E+02  0.00000000000E+00 0.  1.
         21   -1    0    0  501  503 -0.00000000000E+00 -0.00000000000E+00 -0.12514107919E+04  0.12514107919E+04  0.00000000000E+00 0.  1.
          6    2    1    2  501    0  0.47644496152E+02  0.13753192221E+02 -0.59084935423E+03  0.61778693308E+03  0.17348944340E+03 0.  0.
         24    2    3    3    0    0  0.64685665848E+02 -0.32378489756E+02 -0.23721290537E+03  0.26071640571E+03  0.80439292441E+02 0.  0.
         -6    2    1    2    0  502 -0.47644496152E+02 -0.13753192221E+02 -0.63465642412E+03  0.65952887235E+03  0.17242508080E+03 0.  0.
        -24    2    5    5    0    0  0.28143432487E+02  0.20726042826E+02 -0.21699985422E+03  0.23362779446E+03  0.79192095364E+02 0.  0.
          5    1    3    3  501    0 -0.17041169696E+02  0.46131681977E+02 -0.35363644886E+03  0.35707052736E+03  0.47000000000E+01 0. -1.
        -11    1    4    4    0    0  0.95774522625E+00  0.16431624438E+02 -0.10317722893E+03  0.10448184592E+03  0.00000000000E+00 0.  1.
         12    1    4    4    0    0  0.63727920622E+02 -0.48810114194E+02 -0.13403567644E+03  0.15623455980E+03  0.00000000000E+00 0. -1.
         -5    1    5    5    0  502 -0.75787928639E+02 -0.34479235048E+02 -0.41765656990E+03  0.42590107790E+03  0.47000000000E+01 0.  1.
         11    1    6    6    0    0 -0.17617607065E+02 -0.57881723124E+01 -0.12411968378E+02  0.22314568704E+02  0.00000000000E+00 0. -1.
        -12    1    6    6    0    0  0.45761039552E+02  0.26514215139E+02 -0.20458788584E+03  0.21131322575E+03  0.00000000000E+00 0.  1.
</event>
<event>
12    1  0.8331241E-002  0.2966215E+03  0.7818608E-02  0.1087219E+00
         21   -1    0    0  501  502  0.00000000000E+00  0.00000000000E+00  0.98005221720E+02  0.98005221720E+02  0.00000000000E+00 0. -1.
         21   -1    0    0  502  503 -0.00000000000E+00 -0.00000000000E+00 -0.11607081158E+04  0.11607081158E+04  0.00000000000E+00 0.  1.
         -6    2    1    2    0  503 -0.89404708728E+02 -0.22366072844E+03 -0.83612905968E+03  0.88718436266E+03  0.17310969219E+03 0.  0.
        -24    2    3    3    0    0  0.94965459648E+01 -0.76164823717E+02 -0.41552202438E+03  0.43060045117E+03  0.82866947873E+02 0.  0.
          6    2    1    2  501    0  0.89404708728E+02  0.22366072844E+03 -0.22657383439E+03  0.37152897485E+03  0.16935392919E+03 0.  0.
         24    2    5    5    0    0  0.65068182962E+02  0.24236424541E+03 -0.20661697449E+03  0.33461753636E+03  0.79397894215E+02 0.  0.
          5    1    5    5  501    0  0.24336525767E+02 -0.18703516976E+02 -0.19956859899E+02  0.36911438480E+02  0.47000000000E+01 0. -1.
        -13    1    6    6    0    0 -0.18466284665E+02  0.54601874313E+02 -0.42286616392E+02  0.71487944953E+02  0.00000000000E+00 0.  1.
         14    1    6    6    0    0  0.83534467626E+02  0.18776237110E+03 -0.16433035810E+03  0.26312959141E+03  0.00000000000E+00 0. -1.
         -5    1    3    3    0  503 -0.98901254693E+02 -0.14749590472E+03 -0.42060703530E+03  0.45658391149E+03  0.47000000000E+01 0.  1.
         13    1    4    4    0    0  0.34516021818E+02 -0.25745691327E+02 -0.84624640811E+02  0.94950124889E+02  0.00000000000E+00 0. -1.
        -14    1    4    4    0    0 -0.25019475853E+02 -0.50419132390E+02 -0.33089738356E+03  0.33565032628E+03  0.00000000000E+00 0.  1.
</event>
<event>
12    1  0.8331241E-002  0.1743870E+03  0.7818608E-02  0.1175126E+00
         21   -1    0    0  501  502  0.00000000000E+00  0.00000000000E+00  0.90666127243E+03  0.90666127243E+03  0.00000000000E+00 0.  1.
         21   -1    0    0  502  503 -0.00000000000E+00 -0.00000000000E+00 -0.33851063174E+02  0.33851063174E+02  0.00000000000E+00 0.  1.
         -6    2    1    2    0  503  0.10638668963E+02 -0.15419589698E+02  0.34183724072E+03  0.38374929589E+03  0.17337784728E+03 0.  0.
        -24    2    3    3    0    0  0.58467516417E+02  0.96319032007E+01  0.29660025449E+03  0.31315431824E+03  0.81133790952E+02 0.  0.
          6    2    1    2  501    0 -0.10638668963E+02  0.15419589698E+02  0.53097296854E+03  0.55676303972E+03  0.16643870961E+03 0.  0.
         24    2    5    5    0    0 -0.65439149621E+02  0.17634255793E+02  0.42269171435E+03  0.43529321863E+03  0.78858427124E+02 0.  0.
          5    1    5    5  501    0  0.54800480658E+02 -0.22146660944E+01  0.10828125420E+03  0.12146982109E+03  0.47000000000E+01 0. -1.
        -11    1    6    6    0    0  0.63722062634E+01  0.25447553628E+02  0.60094571596E+02  0.65570881751E+02  0.00000000000E+00 0.  1.
         12    1    6    6    0    0 -0.71811355884E+02 -0.78132978354E+01  0.36259714275E+03  0.36972233688E+03  0.00000000000E+00 0. -1.
         -5    1    3    3    0  503 -0.47828847455E+02 -0.25051492899E+02  0.45236986225E+02  0.70594977641E+02  0.47000000000E+01 0.  1.
         13    1    4    4    0    0  0.13390764798E+02  0.24758819302E+02  0.25708242324E+02  0.38121194085E+02  0.00000000000E+00 0. -1.
        -14    1    4    4    0    0  0.45076751620E+02 -0.15126916102E+02  0.27089201217E+03  0.27503312416E+03  0.00000000000E+00 0.  1.
</event>
<event>
12    1  0.8331241E-002  0.1885415E+03  0.7818608E-02  0.1160370E+00
         21   -1    0    0  501  502  0.00000000000E+00  0.00000000000E+00  0.47981651712E+03  0.47981651712E+03  0.00000000000E+00 0.  1.
         21   -1    0    0  502  503 -0.00000000000E+00 -0.00000000000E+00 -0.93542169285E+02  0.93542169285E+02  0.00000000000E+00 0.  1.
         -6    2    1    2    0  503  0.83186834266E+01  0.73477625148E+02  0.60106974548E+02  0.19789078414E+03  0.17343515263E+03 0.  0.
        -24    2    3    3    0    0 -0.10908293273E+02  0.42879610902E+02  0.10680508837E+03  0.13865634362E+03  0.76554574207E+02 0.  0.
          6    2    1    2  501    0 -0.83186834266E+01 -0.73477625148E+02  0.32616737329E+03  0.37546790227E+03  0.17065411903E+03 0.  0.
         24    2    5    5    0    0 -0.22261295688E+02 -0.12938986790E+02  0.29318115589E+03  0.30497319531E+03  0.79940459232E+02 0.  0.
          5    1    5    5  501    0  0.13942612261E+02 -0.60538638358E+02  0.32986217401E+02  0.70494706960E+02  0.47000000000E+01 0. -1.
        -13    1    6    6    0    0  0.23770441960E+02 -0.37777898440E+01  0.34484224454E+02  0.42053149029E+02  0.00000000000E+00 0.  1.
         14    1    6    6    0    0 -0.46031737648E+02 -0.91611969462E+01  0.25869693144E+03  0.26292004628E+03  0.00000000000E+00 0. -1.
         -5    1    3    3    0  503  0.19226976700E+02  0.30598014246E+02 -0.46698113823E+02  0.59234440518E+02  0.47000000000E+01 0.  1.
         11    1    4    4    0    0 -0.19571555263E+02  0.55249663249E+02  0.41982624339E+02  0.72097932085E+02  0.00000000000E+00 0. -1.
        -12    1    4    4    0    0  0.86632619898E+01 -0.12370052347E+02  0.64822464032E+02  0.66558411539E+02  0.00000000000E+00 0.  1.
</event>
<event>
12    1  0.8331241E-002  0.4430957E+03  0.7818608E-02  0.1029831E+00
         21   -1    0    0  501  502  0.00000000000E+00  0.00000000000E+00  0.56293559300E+03  0.56293559300E+03  0.00000000000E+00 0.  1.
         21   -1    0    0  502  503 -0.00000000000E+00 -0.00000000000E+00 -0.34916339778E+03  0.34916339778E+03  0.00000000000E+00 0.  1.
         -6    2    1    2    0  503  0.24618227117E+03  0.32567176810E+03  0.86405081596E+02  0.45106080646E+03  0.17123726762E+03 0.  0.
        -24    2    3    3    0    0  0.22564271876E+03  0.25024336849E+03  0.16707083381E+02  0.34622179828E+03  0.77807627950E+02 0.  0.
          6    2    1    2  501    0 -0.24618227117E+03 -0.32567176810E+03  0.12736711363E+03  0.46103818431E+03  0.17223824948E+03 0.  0.
         24    2    5    5    0    0 -0.79293983663E+02 -0.10535858197E+03 -0.53297652874E+01  0.15441112718E+03  0.80164974643E+02 0.  0.
          5    1    5    5  501    0 -0.16688828751E+03 -0.22031318614E+03  0.13269687891E+03  0.30662705713E+03  0.47000000000E+01 0. -1.
        -13    1    6    6    0    0 -0.54922893014E+02 -0.17003546453E+02  0.17229950644E+02  0.60020962740E+02  0.00000000000E+00 0.  1.
         14    1    6    6    0    0 -0.24371090649E+02 -0.88355035513E+02 -0.22559715931E+02  0.94390164439E+02  0.00000000000E+00 0. -1.
         -5    1    3    3    0  503  0.20539552413E+02  0.75428399611E+02  0.69697998216E+02  0.10483900818E+03  0.47000000000E+01 0.  1.
         11    1    4    4    0    0  0.10113108762E+03  0.58007623065E+02  0.13399245915E+00  0.11658644505E+03  0.00000000000E+00 0. -1.
        -12    1    4    4    0    0  0.12451163114E+03  0.19223574543E+03  0.16573090921E+02  0.22963535323E+03  0.00000000000E+00 0.  1.
</event>
<event>
12    1  0.8331241E-002  0.1783781E+03  0.7818608E-02  0.1169928E+00
         21   -1    0    0  501  502  0.00000000000E+00  0.00000000000E+00  0.54454936538E+02  0.54454936538E+02  0.00000000000E+00 0. -1.
         21   -1    0    0  502  503 -0.00000000000E+00 -0.00000000000E+00 -0.59920278835E+03  0.59920278835E+03  0.00000000000E+00 0. -1.
         -6    2    1    2    0  503  0.38177050138E+02  0.16024765401E+01 -0.33352718259E+03  0.37719270184E+03  0.17197063037E+03 0.  0.
        -24    2    3    3    0    0 -0.34428886544E+01 -0.31767076331E+02 -0.97593985886E+02  0.13525818659E+03  0.88029485615E+02 0.  0.
          6    2    1    2  501    0 -0.38177050138E+02 -0.16024765401E+01 -0.21122066922E+03  0.27646502305E+03  0.17423743218E+03 0.  0.
         24    2    5    5    0    0 -0.35165812590E+02  0.55475175261E+02 -0.17165487609E+03  0.20679101159E+03  0.94778671347E+02 0.  0.
          5    1    5    5  501    0 -0.30112375480E+01 -0.57077651801E+02 -0.39565793135E+02  0.69674011461E+02  0.47000000000E+01 0. -1.
        -11    1    6    6    0    0  0.98986255519E+00 -0.83333330919E+01 -0.11183290878E+03  0.11214733057E+03  0.00000000000E+00 0.  1.
         12    1    6    6    0    0 -0.36155675145E+02  0.63808508353E+02 -0.59821967314E+02  0.94643681019E+02  0.00000000000E+00 0. -1.
         -5    1    3    3    0  503  0.41619938792E+02  0.33369552871E+02 -0.23593319671E+03  0.24193451525E+03  0.47000000000E+01 0.  1.
         11    1    4    4    0    0 -0.53883609962E+01 -0.31676653361E+02 -0.11415096981E+03  0.11858705119E+03  0.00000000000E+00 0. -1.
        -12    1    4    4    0    0  0.19454723418E+01 -0.90422969082E-01  0.16556983920E+02  0.16671135399E+02  0.00000000000E+00 0.  1.
</event>
<event>
12    1  0.8331241E-002  0.2318469E+03  0.7818608E-02  0.1125468E+00
         21   -1    0    0  501  502  0.00000000000E+00  0.00000000000E+00  0.45103604504E+03  0.45103604504E+03  0.00000000000E+00 0.  1.
         21   -1    0    0  502  503 -0.00000000000E+00 -0.00000000000E+00 -0.30574444497E+03  0.30574444497E+03  0.00000000000E+00 0.  1.
         -6    2    1    2    0  503 -0.10420683044E+03  0.11333916750E+03 -0.22326155544E+03  0.32136757440E+03  0.17241393602E+03 0.  0.
        -24    2    3    3    0    0 -0.87577191203E+02  0.71355177294E+02 -0.55339151521E+02  0.14741578776E+03  0.76861349483E+02 0.  0.
          6    2    1    2  501    0  0.10420683044E+03 -0.11333916750E+03  0.36855315552E+03  0.43541291561E+03  0.17334401703E+03 0.  0.
         24    2    5    5    0    0  0.12288746307E+03 -0.98500922447E+02  0.20832519387E+03  0.27335049169E+03  0.80730072499E+02 0.  0.
          5    1    5    5  501    0 -0.18680632630E+02 -0.14838245055E+02  0.16022796165E+03  0.16206242392E+03  0.47000000000E+01 0. -1.
        -13    1    6    6    0    0  0.34558911412E+01  0.36251669481E+01  0.50103852120E+02  0.50353560114E+02  0.00000000000E+00 0.  1.
         14    1    6    6    0    0  0.11943157193E+03 -0.10212608940E+03  0.15822134175E+03  0.22299693158E+03  0.00000000000E+00 0. -1.
         -5    1    3    3    0  503 -0.16629639236E+02  0.41983990208E+02 -0.16792240392E+03  0.17395178664E+03  0.47000000000E+01 0.  1.
         11    1    4    4    0    0 -0.90494613321E+02  0.71354866441E+02 -0.68413834552E+02  0.13401956858E+03  0.00000000000E+00 0. -1.
        -12    1    4    4    0    0  0.29174221174E+01  0.31085357866E-03  0.13074683031E+02  0.13396219178E+02  0.00000000000E+00 0.  1.
</event>
<event>
12    1  0.8331241E-002  0.1726474E+03  0.7818608E-02  0.1175429E+00
         21   -1    0    0  501  502  0.00000000000E+00  0.00000000000E+00  0.39869990062E+02  0.39869990062E+02  0.00000000000E+00 0. -1.
         21   -1    0    0  502  503 -0.00000000000E+00 -0.00000000000E+00 -0.18154483663E+04  0.18154483663E+04  0.00000000000E+00 0. -1.
         -6    2    1    2    0  503  0.85304088223E+01  0.51244316514E+01 -0.15997152503E+04  0.16088736992E+04  0.17113348695E+03 0.  0.
        -24    2    3    3    0    0  0.42628046240E+02 -0.33593412994E+02 -0.55891142066E+03  0.56678137023E+03  0.76899140241E+02 0.  0.
          6    2    1    2  501    0 -0.85304088223E+01 -0.51244316514E+01 -0.17586312596E+03  0.24644465716E+03  0.17236038493E+03 0.  0.
         24    2    5    5    0    0 -0.38120820987E+02  0.87387094095E+01 -0.19050041396E+03  0.21033206418E+03  0.80122452963E+02 0.  0.
          5    1    5    5  501    0  0.29590412164E+02 -0.13863141061E+02  0.14637287991E+02  0.36112592982E+02  0.47000000000E+01 0. -1.
        -13    1    6    6    0    0  0.90750791811E+01  0.32746612978E+02 -0.98308196717E+02  0.10401537995E+03  0.00000000000E+00 0.  1.
         14    1    6    6    0    0 -0.47195900168E+02 -0.24007903568E+02 -0.92192217238E+02  0.10631668423E+03  0.00000000000E+00 0. -1.
         -5    1    3    3    0  503 -0.34097637418E+02  0.38717844646E+02 -0.10408038296E+04  0.10420923290E+04  0.47000000000E+01 0.  1.
         11    1    4    4    0    0  0.64506808804E+02 -0.17431589926E+02 -0.40890469305E+03  0.41432841648E+03  0.00000000000E+00 0. -1.
        -12    1    4    4    0    0 -0.21878762564E+02 -0.16161823068E+02 -0.15000672761E+03  0.15245295374E+03  0.00000000000E+00 0.  1.
</event>
<event>
12    1  0.8331241E-002  0.1727391E+03  0.7818608E-02  0.1175844E+00
         21   -1    0    0  501  502  0.00000000000E+00  0.00000000000E+00  0.11933892234E+03  0.11933892234E+03  0.00000000000E+00 0. -1.
         21   -1    0    0  502  503 -0.00000000000E+00 -0.00000000000E+00 -0.43942958226E+03  0.43942958226E+03  0.00000000000E+00 0. -1.
         -6    2    1    2    0  503 -0.11697713870E+02  0.55143829175E+01 -0.34650531947E+03  0.38717534566E+03  0.17225436696E+03 0.  0.
        -24    2    3    3    0    0 -0.87631191964E+01 -0.52079613803E+02 -0.29410069153E+03  0.30911117120E+03  0.79154412207E+02 0.  0.
          6    2    1    2  501    0  0.11697713870E+02 -0.55143829175E+01  0.26414659537E+02  0.17159315894E+03  0.16905393527E+03 0.  0.
         24    2    5    5    0    0 -0.40185520845E+01 -0.45806427786E+02 -0.32861935975E+02  0.98065921334E+02  0.80141378224E+02 0.  0.
          5    1    5    5  501    0  0.15716265955E+02  0.40292044868E+02  0.59276595512E+02  0.73527237611E+02  0.47000000000E+01 0. -1.
        -13    1    6    6    0    0  0.35356164910E+02 -0.14179613500E+02 -0.52582105786E+00  0.38097195749E+02  0.00000000000E+00 0.  1.
         14    1    6    6    0    0 -0.39374716995E+02 -0.31626814286E+02 -0.32336114917E+02  0.59968725585E+02  0.00000000000E+00 0. -1.
         -5    1    3    3    0  503 -0.29345946738E+01  0.57593996721E+02 -0.52404627940E+02  0.78064174457E+02  0.47000000000E+01 0.  1.
         13    1    4    4    0    0  0.11463683933E+02 -0.37286074371E+02 -0.27460364304E+03  0.27736046611E+03  0.00000000000E+00 0. -1.
        -14    1    4    4    0    0 -0.20226803129E+02 -0.14793539432E+02 -0.19497048483E+02  0.31750705084E+02  0.00000000000E+00 0.  1.
</event>
<event>
12    1  0.8331241E-002  0.2342282E+03  0.7818608E-02  0.1124154E+00
         21   -1    0    0  503  502  0.00000000000E+00  0.00000000000E+00  0.56596210795E+02  0.56596210795E+02  0.00000000000E+00 0.  1.
         21   -1    0    0  501  503 -0.00000000000E+00 -0.00000000000E+00 -0.12912954780E+04  0.12912954780E+04  0.00000000000E+00 0. -1.
          6    2    1    2  501    0 -0.15506636899E+03  0.12818008248E+02 -0.96206879901E+03  0.99017131675E+03  0.17507993135E+03 0.  0.
         24    2    3    3    0    0 -0.14151762082E+03 -0.30283623933E+02 -0.51042660375E+03  0.53625052872E+03  0.78006261591E+02 0.  0.
         -6    2    1    2    0  502  0.15506636899E+03 -0.12818008248E+02 -0.27263046822E+03  0.35772037207E+03  0.17154186738E+03 0.  0.
        -24    2    5    5    0    0  0.18331828385E+03 -0.11234343578E+02 -0.21830836309E+03  0.29629025085E+03  0.79984796593E+02 0.  0.
          5    1    3    3  501    0 -0.13548748164E+02  0.43101632181E+02 -0.45164219526E+03  0.45392078803E+03  0.47000000000E+01 0. -1.
        -11    1    4    4    0    0 -0.38566050418E+02 -0.44887042460E+02 -0.15450850543E+03  0.16545411773E+03  0.00000000000E+00 0.  1.
         12    1    4    4    0    0 -0.10295157040E+03  0.14603418527E+02 -0.35591809832E+03  0.37079641098E+03  0.00000000000E+00 0. -1.
         -5    1    5    5    0  502 -0.28251914861E+02 -0.15836646701E+01 -0.54322105127E+02  0.61430121216E+02  0.47000000000E+01 0.  1.
         13    1    6    6    0    0  0.58708483385E+01  0.85624131108E+00 -0.53450036292E+02  0.53778307792E+02  0.00000000000E+00 0. -1.
        -14    1    6    6    0    0  0.17744743551E+03 -0.12090584889E+02 -0.16485832680E+03  0.24251194306E+03  0.00000000000E+00 0.  1.
</event>
<event>
12    1  0.8331241E-002  0.2283801E+03  0.7818608E-02  0.1127898E+00
         21   -1    0    0  503  502  0.00000000000E+00  0.00000000000E+00  0.12536719439E+03  0.12536719439E+03  0.00000000000E+00 0.  1.
         21   -1    0    0  501  503 -0.00000000000E+00 -0.00000000000E+00 -0.56209220870E+03  0.56209220870E+03  0.00000000000E+00 0.  1.
          6    2    1    2  501    0  0.10883881038E+03  0.10387944563E+03 -0.39404435882E+03  0.45512532090E+03  0.17097156237E+03 0.  0.
         24    2    3    3    0    0  0.12338245320E+03  0.28214738304E+02 -0.28292851306E+03  0.31982755056E+03  0.78878497564E+02 0.  0.
         -6    2    1    2    0  502 -0.10883881038E+03 -0.10387944563E+03 -0.42680655497E+02  0.23233408219E+03  0.17181577786E+03 0.  0.
        -24    2    5    5    0    0  0.20209663093E+01 -0.76253199907E+02  0.18110862418E+01  0.10963646760E+03  0.78728903171E+02 0.  0.
          5    1    3    3  501    0 -0.14543642820E+02  0.75664707327E+02 -0.11111584576E+03  0.13529777034E+03  0.47000000000E+01 0. -1.
        -13    1    4    4    0    0  0.62878292494E+02  0.53415757570E+02 -0.17659013975E+03  0.19491280174E+03  0.00000000000E+00 0.  1.
         14    1    4    4    0    0  0.60504160708E+02 -0.25201019266E+02 -0.10633837331E+03  0.12491474882E+03  0.00000000000E+00 0. -1.
         -5    1    5    5    0  502 -0.11085977669E+03 -0.27626245725E+02 -0.44491741738E+02  0.12269761458E+03  0.47000000000E+01 0.  1.
         11    1    6    6    0    0  0.28232337343E+02 -0.45780681249E+01  0.14828762398E+02  0.32216700232E+02  0.00000000000E+00 0. -1.
        -12    1    6    6    0    0 -0.26211371034E+02 -0.71675131782E+02 -0.13017676156E+02  0.77419767372E+02  0.00000000000E+00 0.  1.
</event>
<event>
12    1  0.8331241E-002  0.2265818E+03  0.7818608E-02  0.1130284E+00
         21   -1    0    0  503  502  0.00000000000E+00  0.00000000000E+00  0.19847186314E+04  0.19847186314E+04  0.00000000000E+00 0.  1.
         21   -1    0    0  501  503 -0.00000000000E+00 -0.00000000000E+00 -0.32022380131E+02  0.32022380131E+02  0.00000000000E+00 0. -1.
          6    2    1    2  501    0  0.84547725067E+02 -0.11612167869E+03  0.51938979094E+03  0.56666134199E+03  0.17523344287E+03 0.  0.
         24    2    3    3    0    0  0.21243110859E+01 -0.54194751513E+02  0.12106942926E+03  0.15518866488E+03  0.80524103324E+02 0.  0.
         -6    2    1    2    0  502 -0.84547725067E+02  0.11612167869E+03  0.14333064603E+04  0.14500796695E+04  0.16652650454E+03 0.  0.
        -24    2    5    5    0    0 -0.61490390641E+02  0.12754370762E+03  0.91983359548E+03  0.93594099530E+03  0.99213092927E+02 0.  0.
          5    1    3    3  501    0  0.82423413981E+02 -0.61926927175E+02  0.39832036168E+03  0.41147267711E+03  0.47000000000E+01 0. -1.
        -13    1    4    4    0    0 -0.11401966282E+01 -0.28749237309E+02  0.12584650426E+03  0.12909361459E+03  0.00000000000E+00 0.  1.
         14    1    4    4    0    0  0.32645077141E+01 -0.25445514204E+02 -0.47770750026E+01  0.26095050283E+02  0.00000000000E+00 0. -1.
         -5    1    5    5    0  502 -0.23057334427E+02 -0.11422028930E+02  0.51347286483E+03  0.51413867422E+03  0.47000000000E+01 0.  1.
         13    1    6    6    0    0 -0.13041362901E+02  0.20353653304E+02  0.30772101983E+02  0.39131452945E+02  0.00000000000E+00 0. -1.
        -14    1    6    6    0    0 -0.48449027740E+02  0.10719005431E+03  0.88906149350E+03  0.89680954235E+03  0.00000000000E+00 0.  1.
</event>
<event>
12    1  0.8331241E-002  0.1843930E+03  0.7818608E-02  0.1165228E+00
         21   -1    0    0  503  502  0.00000000000E+00  0.00000000000E+00  0.53214856202E+03  0.53214856202E+03  0.00000000000E+00 0.  1.
         21   -1    0    0  501  503 -0.00000000000E+00 -0.00000000000E+00 -0.72462448746E+02  0.72462448746E+02  0.00000000000E+00 0.  1.
          6    2    1    2  501    0 -0.10234040461E+02  0.45754208508E+02  0.35060265183E+03  0.39613507212E+03  0.17833281445E+03 0.  0.
         24    2    3    3    0    0  0.61940359428E+02  0.41693070428E+02  0.18108561761E+03  0.21178824754E+03  0.80544029213E+02 0.  0.
         -6    2    1    2    0  502  0.10234040461E+02 -0.45754208508E+02  0.10908346144E+03  0.20847593865E+03  0.17136170008E+03 0.  0.
        -24    2    5    5    0    0  0.29187276134E+02  0.19521965096E+02  0.73162651670E+01  0.86006121057E+02  0.78169820992E+02 0.  0.
          5    1    3    3  501    0 -0.72174399890E+02  0.40611380803E+01  0.16951703422E+03  0.18434682458E+03  0.47000000000E+01 0. -1.
        -11    1    4    4    0    0  0.11859990393E+02  0.40292912697E+02  0.27415899979E+02  0.50157848413E+02  0.00000000000E+00 0.  1.
         12    1    4    4    0    0  0.50080369035E+02  0.14001577306E+01  0.15366971763E+03  0.16163039913E+03  0.00000000000E+00 0. -1.
         -5    1    5    5    0  502 -0.18953235673E+02 -0.65276173604E+02  0.10176719628E+03  0.12246981759E+03  0.47000000000E+01 0.  1.
         13    1    6    6    0    0  0.33261565608E+02  0.43574704043E+02  0.20194662284E+02  0.58420124648E+02  0.00000000000E+00 0. -1.
        -14    1    6    6    0    0 -0.40742894734E+01 -0.24052738947E+02 -0.12878397117E+02  0.27585996409E+02  0.00000000000E+00 0.  1.
</event>
<event>
12    1  0.8331241E-002  0.8246907E+03  0.7818608E-02  0.9525004E-01
         21   -1    0    0  503  502  0.00000000000E+00  0.00000000000E+00  0.18816555206E+04  0.18816555206E+04  0.00000000000E+00 0.  1.
         21   -1    0    0  501  503 -0.00000000000E+00 -0.00000000000E+00 -0.45797658079E+03  0.45797658079E+03  0.00000000000E+00 0.  1.
          6    2    1    2  501    0  0.78486543728E+01 -0.80641694053E+03  0.17463410298E+03  0.84297794188E+03  0.17246697429E+03 0.  0.
         24    2    3    3    0    0 -0.46415860467E+02 -0.54481093087E+03  0.74187885025E+02  0.55750662185E+03  0.79601561637E+02 0.  0.
         -6    2    1    2    0  502 -0.78486543728E+01  0.80641694053E+03  0.12490448369E+04  0.14966541595E+04  0.17172881371E+03 0.  0.
        -24    2    5    5    0    0  0.42156983128E+02  0.46811273737E+03  0.63852885964E+03  0.79686694467E+03  0.79819025373E+02 0.  0.
          5    1    3    3  501    0  0.54264514840E+02 -0.26160600965E+03  0.10044621796E+03  0.28547132003E+03  0.47000000000E+01 0. -1.
        -13    1    4    4    0    0 -0.34138203188E+02 -0.43887067295E+03  0.27408288073E+02  0.44104886209E+03  0.00000000000E+00 0.  1.
         14    1    4    4    0    0 -0.12277657279E+02 -0.10594025792E+03  0.46779596952E+02  0.11645775976E+03  0.00000000000E+00 0. -1.
         -5    1    5    5    0  502 -0.50005637501E+02  0.33830420316E+03  0.61051597722E+03  0.69978721487E+03  0.47000000000E+01 0.  1.
         11    1    6    6    0    0  0.20213931653E+02  0.12577962445E+03  0.11915084608E+03  0.17443061968E+03  0.00000000000E+00 0. -1.
        -12    1    6    6    0    0  0.21943051475E+02  0.34233311292E+03  0.51937801355E+03  0.62243632499E+03  0.00000000000E+00 0.  1.
</event>
<event>
12    1  0.8331241E-002  0.1890953E+03  0.7818608E-02  0.1159854E+00
         21   -1    0    0  503  502  0.00000000000E+00  0.00000000000E+00  0.66556475157E+03  0.66556475157E+03  0.00000000000E+00 0.  1.
         21   -1    0    0  501  503 -0.00000000000E+00 -0.00000000000E+00 -0.83339289577E+02  0.83339289577E+02  0.00000000000E+00 0. -1.
          6    2    1    2  501    0 -0.19591508051E+02 -0.74310895012E+02  0.63997075008E+02  0.19725408411E+03  0.17002238613E+03 0.  0.
         24    2    3    3    0    0 -0.76808580916E+02 -0.35590576736E+02  0.34668027834E+02  0.12205209290E+03  0.80799715174E+02 0.  0.
         -6    2    1    2    0  502  0.19591508051E+02  0.74310895012E+02  0.51822838699E+03  0.55164995703E+03  0.17277464430E+03 0.  0.
        -24    2    5    5    0    0  0.37004694458E+02  0.55174298729E+02  0.51550604246E+03  0.52521268150E+03  0.75421020522E+02 0.  0.
          5    1    3    3  501    0  0.57217072866E+02 -0.38720318276E+02  0.29329047174E+02  0.75201991216E+02  0.47000000000E+01 0. -1.
        -11    1    4    4    0    0 -0.29188949649E+02 -0.51074909492E+02  0.40818910856E+02  0.71601848054E+02  0.00000000000E+00 0.  1.
         12    1    4    4    0    0 -0.47619631268E+02  0.15484332755E+02 -0.61508830226E+01  0.50450244845E+02  0.00000000000E+00 0. -1.
         -5    1    5    5    0  502 -0.17413186407E+02  0.19136596283E+02  0.27223445229E+01  0.26437275538E+02  0.47000000000E+01 0.  1.
         13    1    6    6    0    0  0.41976788805E+02  0.18230762383E+02  0.12832602918E+03  0.13624236221E+03  0.00000000000E+00 0. -1.
        -14    1    6    6    0    0 -0.49720943474E+01  0.36943536346E+02  0.38718001328E+03  0.38897031929E+03  0.00000000000E+00 0.  1.
</event>
<event>
12    1  0.8331241E-002  0.2009909E+03  0.7818608E-02  0.1149001E+00
         21   -1    0    0  501  502  0.00000000000E+00  0.00000000000E+00  0.22899479162E+03  0.22899479162E+03  0.00000000000E+00 0.  1.
         21   -1    0    0  502  503 -0.00000000000E+00 -0.00000000000E+00 -0.19221601798E+03  0.19221601798E+03  0.00000000000E+00 0.  1.
         -6    2    1    2    0  503  0.72743079987E+02  0.70190267325E+02 -0.42738060548E+02  0.20548450164E+03  0.17372135528E+03 0.  0.
        -24    2    3    3    0    0  0.10525993362E+03  0.34735823957E+02  0.57836586103E+01  0.13699500934E+03  0.80299133163E+02 0.  0.
          6    2    1    2  501    0 -0.72743079987E+02 -0.70190267325E+02  0.79516834193E+02  0.21572630797E+03  0.17319550721E+03 0.  0.
         24    2    5    5    0    0 -0.94378304707E+02 -0.47126770956E+02  0.10990299337E+03  0.17161943228E+03  0.79033946161E+02 0.  0.
          5    1    5    5  501    0  0.21635224719E+02 -0.23063496369E+02 -0.30386159175E+02  0.44106875686E+02  0.47000000000E+01 0. -1.
        -13    1    6    6    0    0 -0.10437129010E+03 -0.40326183297E+02  0.75049316310E+02  0.13472923638E+03  0.00000000000E+00 0.  1.
         14    1    6    6    0    0  0.99929853915E+01 -0.68005876591E+01  0.34853677058E+02  0.36890195906E+02  0.00000000000E+00 0. -1.
         -5    1    3    3    0  503 -0.32516853630E+02  0.35454443368E+02 -0.48521719158E+02  0.68489492293E+02  0.47000000000E+01 0.  1.
         11    1    4    4    0    0  0.59503980401E+02 -0.22307686221E+02  0.63612094359E+01  0.63865652220E+02  0.00000000000E+00 0. -1.
        -12    1    4    4    0    0  0.45755953216E+02  0.57043510178E+02 -0.57755082556E+00  0.73129357122E+02  0.00000000000E+00 0.  1.
</event>
<event>
12    1  0.8331241E-002  0.2311771E+03  0.7818608E-02  0.1125856E+00
         21   -1    0    0  501  502  0.00000000000E+00  0.00000000000E+00  0.12718395605E+03  0.12718395605E+03  0.00000000000E+00 0.  1.
         21   -1    0    0  502  503 -0.00000000000E+00 -0.00000000000E+00 -0.42387694144E+03  0.42387694144E+03  0.00000000000E+00 0.  1.
         -6    2    1    2    0  503 -0.33610414419E+02  0.15011933658E+03 -0.17555328285E+03  0.29027888082E+03  0.17256128870E+03 0.  0.
        -24    2    3    3    0    0 -0.74548310085E+02  0.50010490379E+02 -0.70872114646E+02  0.13968695087E+03  0.80194064145E+02 0.  0.
          6    2    1    2  501    0  0.33610414419E+02 -0.15011933658E+03 -0.12113970253E+03  0.26078201667E+03  0.17224098674E+03 0.  0.
         24    2    5    5    0    0  0.18148216261E+02 -0.17940232887E+03 -0.10771035891E+03  0.22474022871E+03  0.79950582385E+02 0.  0.
          5    1    5    5  501    0  0.15462198158E+02  0.29282992290E+02 -0.13429343621E+02  0.36041787961E+02  0.47000000000E+01 0. -1.
        -13    1    6    6    0    0 -0.20557857109E+02 -0.10822725104E+03 -0.88918272500E+02  0.14157055676E+03  0.00000000000E+00 0.  1.
         14    1    6    6    0    0  0.38706073370E+02 -0.71175077831E+02 -0.18792086412E+02  0.83169671946E+02  0.00000000000E+00 0. -1.
         -5    1    3    3    0  503  0.40937895666E+02  0.10010884620E+03 -0.10468116821E+03  0.15059192995E+03  0.47000000000E+01 0.  1.
         13    1    4    4    0    0  0.13896493608E+02 -0.61942639729E+01 -0.55115432025E+01  0.16182044037E+02  0.00000000000E+00 0. -1.
        -14    1    4    4    0    0 -0.88444803693E+02  0.56204754352E+02 -0.65360571443E+02  0.12350490683E+03  0.00000000000E+00 0.  1.
</event>
<event>
12    1  0.8331241E-002  0.2844276E+03  0.7818608E-02  0.1093506E+00
         21   -1    0    0  503  502  0.00000000000E+00  0.00000000000E+00  0.44703249797E+03  0.44703249797E+03  0.00000000000E+00 0.  1.
         21   -1    0    0  501  503 -0.00000000000E+00 -0.00000000000E+00 -0.68133984755E+03  0.68133984755E+03  0.00000000000E+00 0. -1.
          6    2    1    2  501    0 -0.14533925208E+03  0.17144693747E+03 -0.60121113887E+03  0.66509691545E+03  0.17430296291E+03 0.  0.
         24    2    3    3    0    0 -0.33009879280E+02  0.24020631147E+02 -0.13782978661E+03  0.16600096134E+03  0.83021841930E+02 0.  0.
         -6    2    1    2    0  502  0.14533925208E+03 -0.17144693747E+03  0.36690378929E+03  0.46327543008E+03  0.17172123617E+03 0.  0.
        -24    2    5    5    0    0  0.10963641338E+03 -0.92333463924E+02  0.33060193017E+03  0.36907591116E+03  0.79835958494E+02 0.  0.
          5    1    3    3  501    0 -0.11232937280E+03  0.14742630632E+03 -0.46338135225E+03  0.49909595411E+03  0.47000000000E+01 0. -1.
        -11    1    4    4    0    0 -0.41199374963E+02  0.30624479181E+02 -0.33850193467E+02  0.61490510001E+02  0.00000000000E+00 0.  1.
         12    1    4    4    0    0  0.81894956828E+01 -0.66038480334E+01 -0.10397959315E+03  0.10451045134E+03  0.00000000000E+00 0. -1.
         -5    1    5    5    0  502  0.35702838698E+02 -0.79113473548E+02  0.36301859120E+02  0.94199518914E+02  0.47000000000E+01 0.  1.
         13    1    6    6    0    0  0.28294126631E+00  0.30581894974E+01  0.75701895698E+02  0.75764170892E+02  0.00000000000E+00 0. -1.
        -14    1    6    6    0    0  0.10935347212E+03 -0.95391653421E+02  0.25490003447E+03  0.29331174027E+03  0.00000000000E+00 0.  1.
</event>
<event>
12    1  0.8331241E-002  0.2512788E+03  0.7818608E-02  0.1112997E+00
         21   -1    0    0  503  502  0.00000000000E+00  0.00000000000E+00  0.92049808703E+03  0.92049808703E+03  0.00000000000E+00 0. -1.
         21   -1    0    0  501  503 -0.00000000000E+00 -0.00000000000E+00 -0.98924880953E+02  0.98924880953E+02  0.00000000000E+00 0.  1.
          6    2    1    2  501    0 -0.17413392569E+03 -0.35962927248E+02  0.12636819893E+03  0.28126490191E+03  0.17755299809E+03 0.  0.
         24    2    3    3    0    0 -0.43698019653E+02  0.31702514910E+02  0.87458207788E+02  0.12918526797E+03  0.78264480949E+02 0.  0.
         -6    2    1    2    0  502  0.17413392569E+03  0.35962927248E+02  0.69520500714E+03  0.73815806607E+03  0.17306464786E+03 0.  0.
        -24    2    5    5    0    0  0.66662827886E+02 -0.41056999129E+01  0.51185343529E+03  0.52183557384E+03  0.76535204388E+02 0.  0.
          5    1    3    3  501    0 -0.13043590604E+03 -0.67665442158E+02  0.38909991143E+02  0.15207963393E+03  0.47000000000E+01 0. -1.
        -11    1    4    4    0    0 -0.65297508377E+02  0.14860278723E+02  0.54572067226E+02  0.86386937701E+02  0.00000000000E+00 0.  1.
         12    1    4    4    0    0  0.21599488724E+02  0.16842236186E+02  0.32886140562E+02  0.42798330271E+02  0.00000000000E+00 0. -1.
         -5    1    5    5    0  502  0.10747109781E+03  0.40068627161E+02  0.18335157185E+03  0.21632249223E+03  0.47000000000E+01 0.  1.
         13    1    6    6    0    0 -0.31598900492E+01 -0.40016849229E+01  0.27144618882E+03  0.27149407326E+03  0.00000000000E+00 0. -1.
        -14    1    6    6    0    0  0.69822717935E+02 -0.10401498997E+00  0.24040724647E+03  0.25034150058E+03  0.00000000000E+00 0.  1.
</event>
<event>
12    1  0.8331241E-002  0.1994346E+03  0.7818608E-02  0.1150396E+00
         21   -1    0    0  501  502  0.00000000000E+00  0.00000000000E+00  0.35499976546E+02  0.35499976546E+02  0.00000000000E+00 0.  1.
         21   -1    0    0  502  503 -0.00000000000E+00 -0.00000000000E+00 -0.18205721203E+04  0.18205721203E+04  0.00000000000E+00 0.  1.
         -6    2    1    2    0  503 -0.73090518558E+02  0.66935276313E+02 -0.14688407757E+04  0.14822052290E+04  0.17209462929E+03 0.  0.
        -24    2    3    3    0    0  0.27585837162E+02  0.20430926846E+02 -0.53443329194E+03  0.54122817359E+03  0.78298091743E+02 0.  0.
          6    2    1    2  501    0  0.73090518558E+02 -0.66935276313E+02 -0.31623136800E+03  0.37386686779E+03  0.17306531021E+03 0.  0.
         24    2    5    5    0    0  0.99735753549E+02 -0.54110800421E+02 -0.31466446719E+03  0.34388385747E+03  0.79794619202E+02 0.  0.
          5    1    5    5  501    0 -0.26645234991E+02 -0.12824475892E+02 -0.15669008112E+01  0.29983010319E+02  0.47000000000E+01 0. -1.
        -11    1    6    6    0    0  0.75178231107E+02 -0.53016365918E+02 -0.14013336359E+03  0.16763013177E+03  0.00000000000E+00 0.  1.
         12    1    6    6    0    0  0.24557522442E+02 -0.10944345037E+01 -0.17453110360E+03  0.17625372569E+03  0.00000000000E+00 0. -1.
         -5    1    3    3    0  503 -0.10067635572E+03  0.46504349467E+02 -0.93440748378E+03  0.94097705544E+03  0.47000000000E+01 0.  1.
         13    1    4    4    0    0 -0.56535453836E+01 -0.24615924266E+02 -0.97297885200E+02  0.10052255850E+03  0.00000000000E+00 0. -1.
        -14    1    4    4    0    0  0.33239382545E+02  0.45046851112E+02 -0.43713540674E+03  0.44070561509E+03  0.00000000000E+00 0.  1.
</event>
<event>
12    1  0.8331241E-002  0.2485749E+03  0.7818608E-02  0.1114410E+00
         21   -1    0    0  501  502  0.00000000000E+00  0.00000000000E+00  0.69889225024E+03  0.69889225024E+03  0.00000000000E+00 0. -1.
         21   -1    0    0  502  503 -0.00000000000E+00 -0.00000000000E+00 -0.10956245771E+03  0.10956245771E+03  0.00000000000E+00 0.  1.
         -6    2    1    2    0  503  0.13935317215E+02  0.17713035866E+03  0.47474161549E+03  0.53588160892E+03  0.17383940944E+03 0.  0.
        -24    2    3    3    0    0 -0.51799681569E+01  0.12825558164E+03  0.45549983352E+03  0.47978816779E+03  0.78995324722E+02 0.  0.
          6    2    1    2  501    0 -0.13935317215E+02 -0.17713035866E+03  0.11458817704E+03  0.27257309904E+03  0.17203571425E+03 0.  0.
         24    2    5    5    0    0  0.69517067984E+00 -0.19753557614E+03  0.74443190557E+02  0.22499018176E+03  0.77833194497E+02 0.  0.
          5    1    5    5  501    0 -0.14630487894E+02  0.20405217484E+02  0.40144986481E+02  0.47582917272E+02  0.47000000000E+01 0. -1.
        -13    1    6    6    0    0 -0.24555053751E+02 -0.17681054614E+03  0.71125786175E+02  0.19215565916E+03  0.00000000000E+00 0.  1.
         14    1    6    6    0    0  0.25250224430E+02 -0.20725030006E+02  0.33174043826E+01  0.32834522600E+02  0.00000000000E+00 0. -1.
         -5    1    3    3    0  503  0.19115285372E+02  0.48874777021E+02  0.19241781970E+02  0.56093441123E+02  0.47000000000E+01 0.  1.
         11    1    4    4    0    0  0.32077669276E+02  0.95563173187E+02  0.32034889604E+03  0.33583435222E+03  0.00000000000E+00 0. -1.
        -12    1    4    4    0    0 -0.37257637433E+02  0.32692408451E+02  0.13515093748E+03  0.14395381557E+03  0.00000000000E+00 0.  1.
</event>
<event>
12    1  0.8331241E-002  0.2206491E+03  0.7818608E-02  0.1133466E+00
         21   -1    0    0  501  502  0.00000000000E+00  0.00000000000E+00  0.13278979142E+03  0.13278979142E+03  0.00000000000E+00 0.  1.
         21   -1    0    0  502  503 -0.00000000000E+00 -0.00000000000E+00 -0.36691516992E+03  0.36691516992E+03  0.00000000000E+00 0.  1.
         -6    2    1    2    0  503 -0.12269444908E+03  0.62374827097E+02 -0.12911691355E+03  0.25534291628E+03  0.17200081581E+03 0.  0.
        -24    2    3    3    0    0 -0.99052089042E+02 -0.35114376870E+02 -0.71311702692E+02  0.13946954366E+03  0.57637304437E+02 0.  0.
          6    2    1    2  501    0  0.12269444908E+03 -0.62374827097E+02 -0.10500846495E+03  0.24436204506E+03  0.17245719603E+03 0.  0.
         24    2    5    5    0    0  0.11071563536E+03  0.16925065286E+02 -0.46983223209E+02  0.14526116924E+03  0.79680451024E+02 0.  0.
          5    1    5    5  501    0  0.11978813717E+02 -0.79299892383E+02 -0.58025241738E+02  0.99100875823E+02  0.47000000000E+01 0. -1.
        -13    1    6    6    0    0  0.44445151102E+02 -0.72105692578E+01 -0.58475663284E+02  0.73802215156E+02  0.00000000000E+00 0.  1.
         14    1    6    6    0    0  0.66270484263E+02  0.24135634544E+02  0.11492440074E+02  0.71458954080E+02  0.00000000000E+00 0. -1.
         -5    1    3    3    0  503 -0.23642360040E+02  0.97489203968E+02 -0.57805210856E+02  0.11587337261E+03  0.47000000000E+01 0.  1.
         11    1    4    4    0    0 -0.13876096345E+01 -0.30383795763E-01 -0.26327756900E+02  0.26364316169E+02  0.00000000000E+00 0. -1.
        -12    1    4    4    0    0 -0.97664479407E+02 -0.35083993075E+02 -0.44983945793E+02  0.11310522750E+03  0.00000000000E+00 0.  1.
</event>
<event>
12    1  0.8331241E-002  0.1811498E+03  0.7818608E-02  0.1169082E+00
         21   -1    0    0  503  502  0.00000000000E+00  0.00000000000E+00  0.15763845508E+03  0.15763845508E+03  0.00000000000E+00 0.  1.
         21   -1    0    0  501  503 -0.00000000000E+00 -0.00000000000E+00 -0.19726077762E+03  0.19726077762E+03  0.00000000000E+00 0.  1.
          6    2    1    2  501    0 -0.70622855700E+00  0.10145263390E+01 -0.23038614658E+02  0.18260894733E+03  0.18114558195E+03 0.  0.
         24    2    3    3    0    0 -0.71342196972E+01 -0.29424434335E+02 -0.80504362090E+02  0.11709367030E+03  0.79456156981E+02 0.  0.
         -6    2    1    2    0  502  0.70622855700E+00 -0.10145263390E+01 -0.16583707880E+02  0.17229028537E+03  0.17148584503E+03 0.  0.
        -24    2    5    5    0    0 -0.23924107291E+02 -0.37457113813E+02  0.40889773127E+02  0.99764382105E+02  0.79407556980E+02 0.  0.
          5    1    3    3  501    0  0.64279911402E+01  0.30438960674E+02  0.57465747432E+02  0.65515277034E+02  0.47000000000E+01 0. -1.
        -13    1    4    4    0    0 -0.85666457676E+01  0.92120019462E+01 -0.77279228455E+02  0.78296408284E+02  0.00000000000E+00 0.  1.
         14    1    4    4    0    0  0.14324260704E+01 -0.38636436281E+02 -0.32251336347E+01  0.38797262016E+02  0.00000000000E+00 0. -1.
         -5    1    5    5    0  502  0.24630335848E+02  0.36442587474E+02 -0.57473481007E+02  0.72525903268E+02  0.47000000000E+01 0.  1.
         11    1    6    6    0    0 -0.33272410709E+02  0.12336141355E+02  0.33060519903E+02  0.48499811073E+02  0.00000000000E+00 0. -1.
        -12    1    6    6    0    0  0.93483034176E+01 -0.49793255168E+02  0.78292532241E+01  0.51264571031E+02  0.00000000000E+00 0.  1.
</event>
<event>
12    1  0.8331241E-002  0.2129866E+03  0.7818608E-02  0.1139346E+00
         21   -1    0    0  503  502  0.00000000000E+00  0.00000000000E+00  0.32021837252E+02  0.32021837252E+02  0.00000000000E+00 0.  1.
         21   -1    0    0  501  503 -0.00000000000E+00 -0.00000000000E+00 -0.17588243652E+04  0.17588243652E+04  0.00000000000E+00 0.  1.
          6    2    1    2  501    0 -0.80580512363E+02  0.95965918197E+02 -0.12618245249E+04  0.12796735645E+04  0.17222259884E+03 0.  0.
         24    2    3    3    0    0 -0.11298362879E+03  0.43656318902E+02 -0.78085534390E+03  0.79476151141E+03  0.85085941114E+02 0.  0.
         -6    2    1    2    0  502  0.80580512363E+02 -0.95965918197E+02 -0.46497800303E+03  0.51117263796E+03  0.17143583659E+03 0.  0.
        -24    2    5    5    0    0  0.81275381726E+02 -0.60955428997E+02 -0.17164740049E+03  0.21572188135E+03  0.82169629406E+02 0.  0.
          5    1    3    3  501    0  0.32403116423E+02  0.52309599295E+02 -0.48096918102E+03  0.48491205308E+03  0.47000000000E+01 0. -1.
        -11    1    4    4    0    0 -0.11426395909E+02  0.77747107403E+01 -0.36249413998E+03  0.36275750877E+03  0.00000000000E+00 0.  1.
         12    1    4    4    0    0 -0.10155723288E+03  0.35881608162E+02 -0.41836120392E+03  0.43200400264E+03  0.00000000000E+00 0. -1.
         -5    1    5    5    0  502 -0.69486936274E+00 -0.35010489200E+02 -0.29333060254E+03  0.29545075661E+03  0.47000000000E+01 0.  1.
         11    1    6    6    0    0 -0.13624069433E+02 -0.10908754908E+02 -0.61775814657E+01  0.18514284062E+02  0.00000000000E+00 0. -1.
        -12    1    6    6    0    0  0.94899451160E+02 -0.50046674090E+02 -0.16546981903E+03  0.19720759728E+03  0.00000000000E+00 0.  1.
</event>
<event>
12    1  0.8331241E-002  0.2227272E+03  0.7818608E-02  0.1133736E+00
         21   -1    0    0  501  502  0.00000000000E+00  0.00000000000E+00  0.44170991917E+03  0.44170991917E+03  0.00000000000E+00 0.  1.
         21   -1    0    0  502  503 -0.00000000000E+00 -0.00000000000E+00 -0.11504916388E+03  0.11504916388E+03  0.00000000000E+00 0.  1.
         -6    2    1    2    0  503  0.12579806421E+03 -0.12379435915E+01  0.87841692441E+02  0.23019831639E+03  0.17160540922E+03 0.  0.
        -24    2    3    3    0    0  0.97420560837E+02 -0.65697249580E+02  0.57227875382E+02  0.15325950550E+03  0.80040939704E+02 0.  0.
          6    2    1    2  501    0 -0.12579806421E+03  0.12379435915E+01  0.23881906285E+03  0.32656076666E+03  0.18379527763E+03 0.  0.
         24    2    5    5    0    0 -0.99038532660E+02 -0.26962904697E+02  0.58638632677E+02  0.14217411370E+03  0.78989620736E+02 0.  0.
          5    1    5    5  501    0 -0.26759531552E+02  0.28200848288E+02  0.18018043017E+03  0.18438665296E+03  0.47000000000E+01 0. -1.
        -11    1    6    6    0    0 -0.83630418013E+02 -0.63018968079E+01  0.74274073934E+02  0.11202856234E+03  0.00000000000E+00 0.  1.
         12    1    6    6    0    0 -0.15408114648E+02 -0.20661007889E+02 -0.15635441257E+02  0.30145551368E+02  0.00000000000E+00 0. -1.
         -5    1    3    3    0  503  0.28377503376E+02  0.64459305989E+02  0.30613817060E+02  0.76938810891E+02  0.47000000000E+01 0.  1.
         11    1    4    4    0    0  0.43417509706E+01 -0.33182092247E+02 -0.87941435960E+01  0.34601141729E+02  0.00000000000E+00 0. -1.
        -12    1    4    4    0    0  0.93078809866E+02 -0.32515157333E+02  0.66022018978E+02  0.11865836377E+03  0.00000000000E+00 0.  1.
</event>
<event>
12    1  0.8331241E-002  0.2613249E+03  0.7818608E-02  0.1106375E+00
         21   -1    0    0  501  502  0.00000000000E+00  0.00000000000E+00  0.87443007772E+03  0.87443007772E+03  0.00000000000E+00 0.  1.
         21   -1    0    0  502  503 -0.00000000000E+00 -0.00000000000E+00 -0.83405113875E+02  0.83405113875E+02  0.00000000000E+00 0.  1.
         -6    2    1    2    0  503  0.99046247998E+02 -0.16858322699E+03  0.27424069927E+03  0.37881220709E+03  0.17337895905E+03 0.  0.
        -24    2    3    3    0    0  0.34305565833E+02 -0.81220674049E+01  0.10082229556E+03  0.13379144796E+03  0.80574043201E+02 0.  0.
          6    2    1    2  501    0 -0.99046247998E+02  0.16858322699E+03  0.51678426458E+03  0.57902298451E+03  0.17312185537E+03 0.  0.
         24    2    5    5    0    0 -0.25575208743E+02  0.13405565287E+03  0.43885225204E+03  0.46639245773E+03  0.79407909791E+02 0.  0.
          5    1    5    5  501    0 -0.73471039255E+02  0.34527574117E+02  0.77932012540E+02  0.11263052678E+03  0.47000000000E+01 0. -1.
        -13    1    6    6    0    0 -0.16371892763E+02  0.86503662751E+02  0.15346971399E+03  0.17692901303E+03  0.00000000000E+00 0.  1.
         14    1    6    6    0    0 -0.92033159798E+01  0.47551990123E+02  0.28538253806E+03  0.28946344470E+03  0.00000000000E+00 0. -1.
         -5    1    3    3    0  503  0.64740682165E+02 -0.16046115959E+03  0.17341840370E+03  0.24502075913E+03  0.47000000000E+01 0.  1.
         11    1    4    4    0    0  0.40150300627E+02  0.19990305149E+02  0.22109297807E+02  0.50004799669E+02  0.00000000000E+00 0. -1.
        -12    1    4    4    0    0 -0.58447347947E+01 -0.28112372554E+02  0.78712997758E+02  0.83786648289E+02  0.00000000000E+00 0.  1.
</event>
<event>
12    1  0.8331241E-002  0.1838334E+03  0.7818608E-02  0.1164369E+00
         21   -1    0    0  501  502  0.00000000000E+00  0.00000000000E+00  0.61472439556E+03  0.61472439556E+03  0.00000000000E+00 0.  1.
         21   -1    0    0  502  503 -0.00000000000E+00 -0.00000000000E+00 -0.56582797037E+02  0.56582797037E+02  0.00000000000E+00 0.  1.
         -6    2    1    2    0  503  0.59991231989E+02  0.21775832068E+02  0.21838218049E+03  0.28545663691E+03  0.17239947802E+03 0.  0.
        -24    2    3    3    0    0  0.94766324260E+02  0.49813679530E+02  0.13024582988E+03  0.18653477769E+03  0.79807193937E+02 0.  0.
          6    2    1    2  501    0 -0.59991231989E+02 -0.21775832068E+02  0.33975941803E+03  0.38585055569E+03  0.17137985414E+03 0.  0.
         24    2    5    5    0    0  0.87099879691E+01 -0.42701886318E+02  0.62196979319E+02  0.99108938976E+02  0.63677331626E+02 0.  0.
          5    1    5    5  501    0 -0.68701219958E+02  0.20926054251E+02  0.27756243871E+03  0.28674161671E+03  0.47000000000E+01 0. -1.
        -11    1    6    6    0    0  0.14303237732E+02 -0.19739485012E+02  0.70077219093E+02  0.74196000660E+02  0.00000000000E+00 0.  1.
         12    1    6    6    0    0 -0.55932497633E+01 -0.22962401306E+02 -0.78802397734E+01  0.24912938316E+02  0.00000000000E+00 0. -1.
         -5    1    3    3    0  503 -0.34775092271E+02 -0.28037847463E+02  0.88136350607E+02  0.98921859218E+02  0.47000000000E+01 0.  1.
         13    1    4    4    0    0  0.43315935076E+02  0.54722228076E+01  0.10561791902E+03  0.11428630833E+03  0.00000000000E+00 0. -1.
        -14    1    4    4    0    0  0.51450389183E+02  0.44341456723E+02  0.24627910866E+02  0.72248469361E+02  0.00000000000E+00 0.  1.
</event>
<event>
12    1  0.8331241E-002  0.2063498E+03  0.7818608E-02  0.1145908E+00
         21   -1    0    0  501  502  0.00000000000E+00  0.00000000000E+00  0.60942788270E+02  0.60942788270E+02  0.00000000000E+00 0.  1.
         21   -1    0    0  502  503 -0.00000000000E+00 -0.00000000000E+00 -0.79195333737E+03  0.79195333737E+03  0.00000000000E+00 0.  1.
         -6    2    1    2    0  503  0.12635703496E+02 -0.11238045396E+03 -0.53422324529E+03  0.57269076951E+03  0.17260131589E+03 0.  0.
        -24    2    3    3    0    0  0.30653573182E+02 -0.12871146316E+03 -0.52358408720E+03  0.54573474654E+03  0.78611926034E+02 0.  0.
          6    2    1    2  501    0 -0.12635703496E+02  0.11238045396E+03 -0.19678730381E+03  0.28020535613E+03  0.16431911400E+03 0.  0.
         24    2    5    5    0    0  0.43166445751E+02  0.10987771868E+03 -0.11901067898E+03  0.18433337422E+03  0.76673307213E+02 0.  0.
          5    1    5    5  501    0 -0.55802149247E+02  0.25027352815E+01 -0.77776624832E+02  0.95871981907E+02  0.47000000000E+01 0. -1.
        -11    1    6    6    0    0  0.46102013541E+02  0.81098430400E+02 -0.42452194076E+02  0.10249165745E+03  0.00000000000E+00 0.  1.
         12    1    6    6    0    0 -0.29355677902E+01  0.28779288277E+02 -0.76558484905E+02  0.81841716764E+02  0.00000000000E+00 0. -1.
         -5    1    3    3    0  503 -0.18017869686E+02  0.16331009206E+02 -0.10639158087E+02  0.26956022973E+02  0.47000000000E+01 0.  1.
         11    1    4    4    0    0 -0.13206469647E+02 -0.69730932521E+02 -0.35179166026E+03  0.35887906880E+03  0.00000000000E+00 0. -1.
        -12    1    4    4    0    0  0.43860042829E+02 -0.58980530644E+02 -0.17179242694E+03  0.18685567774E+03  0.00000000000E+00 0.  1.
</event>
<event>
12    1  0.8331241E-002  0.1963375E+03  0.7818608E-02  0.1153061E+00
         21   -1    0    0  501  502  0.00000000000E+00  0.00000000000E+00  0.10724733003E+03  0.10724733003E+03  0.00000000000E+00 0. -1.
         21   -1    0    0  502  503 -0.00000000000E+00 -0.00000000000E+00 -0.45009041293E+03  0.45009041293E+03  0.00000000000E+00 0.  1.
         -6    2    1    2    0  503  0.31973965962E+02  0.88540074491E+02 -0.29730425707E+03  0.35578824987E+03  0.17127106639E+03 0.  0.
        -24    2    3    3    0    0  0.65585570007E+02  0.15069412727E+02 -0.11379403339E+03  0.15522461841E+03  0.81345226863E+02 0.  0.
          6    2    1    2  501    0 -0.31973965962E+02 -0.88540074491E+02 -0.45538825822E+02  0.20154949309E+03  0.17229838716E+03 0.  0.
         24    2    5    5    0    0  0.48464706943E+02 -0.37720086017E+02 -0.30181252364E+02  0.10505598870E+03  0.79713361858E+02 0.  0.
          5    1    5    5  501    0 -0.80438672905E+02 -0.50819988473E+02 -0.15357573459E+02  0.96493504391E+02  0.47000000000E+01 0. -1.
        -11    1    6    6    0    0  0.51843355476E+02 -0.11497626402E+02 -0.49275222303E+02  0.72442918584E+02  0.00000000000E+00 0.  1.
         12    1    6    6    0    0 -0.33786485331E+01 -0.26222459615E+02  0.19093969940E+02  0.32613070114E+02  0.00000000000E+00 0. -1.
         -5    1    3    3    0  503 -0.33611604044E+02  0.73470661764E+02 -0.18351022369E+03  0.20056363146E+03  0.47000000000E+01 0.  1.
         13    1    4    4    0    0  0.25686886095E+02  0.18613917677E+01  0.75257552239E+01  0.26831285625E+02  0.00000000000E+00 0. -1.
        -14    1    4    4    0    0  0.39898683911E+02  0.13208020959E+02 -0.12131978861E+03  0.12839333279E+03  0.00000000000E+00 0.  1.
</event>
<event>
12    1  0.8331241E-002  0.1885165E+03  0.7818608E-02  0.1160560E+00
         21   -1    0    0  503  502  0.00000000000E+00  0.00000000000E+00  0.74488038853E+03  0.74488038853E+03  0.00000000000E+00 0.  1.
         21   -1    0    0  501  503 -0.00000000000E+00 -0.00000000000E+00 -0.63474430112E+02  0.63474430112E+02  0.00000000000E+00 0.  1.
          6    2    1    2  501    0  0.99370893248E+01 -0.66182372770E+02  0.13628378129E+03  0.23261926686E+03  0.17623734583E+03 0.  0.
         24    2    3    3    0    0 -0.26034528057E+02 -0.88761205121E+02  0.42394878756E+02  0.12946415576E+03  0.80045572626E+02 0.  0.
         -6    2    1    2    0  502 -0.99370893248E+01  0.66182372770E+02  0.54512217713E+03  0.57573555178E+03  0.17272633086E+03 0.  0.
        -24    2    5    5    0    0  0.12596298321E+02 -0.30553375993E+02  0.26504392721E+03  0.27852943689E+03  0.78982202737E+02 0.  0.
          5    1    3    3  501    0  0.35971617381E+02  0.22578832351E+02  0.93888902532E+02  0.10315511110E+03  0.47000000000E+01 0. -1.
        -13    1    4    4    0    0 -0.39518005280E+02 -0.38657904491E+02  0.52911997900E+02  0.76523106593E+02  0.00000000000E+00 0.  1.
         14    1    4    4    0    0  0.13483477223E+02 -0.50103300630E+02 -0.10517119144E+02  0.52941049170E+02  0.00000000000E+00 0. -1.
         -5    1    5    5    0  502 -0.22533387646E+02  0.96735748763E+02  0.28007824992E+03  0.29720611489E+03  0.47000000000E+01 0.  1.
         11    1    6    6    0    0  0.19308403520E+02 -0.20301418831E+02  0.23201588901E+02  0.36376857761E+02  0.00000000000E+00 0. -1.
        -12    1    6    6    0    0 -0.67121051981E+01 -0.10251957162E+02  0.24184233831E+03  0.24215257913E+03  0.00000000000E+00 0.  1.
</event>
<event>
12    1  0.8331241E-002  0.2546484E+03  0.7818608E-02  0.1110442E+00
         21   -1    0    0  503  502  0.00000000000E+00  0.00000000000E+00  0.86492064441E+03  0.86492064441E+03  0.00000000000E+00 0.  1.
         21   -1    0    0  501  503 -0.00000000000E+00 -0.00000000000E+00 -0.79227661278E+02  0.79227661278E+02  0.00000000000E+00 0. -1.
          6    2    1    2  501    0  0.84645579788E+02  0.16907231030E+03  0.28265797901E+03  0.38044889948E+03  0.17057406523E+03 0.  0.
         24    2    3    3    0    0  0.51617343448E+02  0.16007409249E+03  0.28978356835E+03  0.34516864519E+03  0.82938603250E+02 0.  0.
         -6    2    1    2    0  502 -0.84645579788E+02 -0.16907231030E+03  0.50303500412E+03  0.56369940621E+03  0.17018367989E+03 0.  0.
        -24    2    5    5    0    0 -0.92531132907E+02 -0.82863347534E+02  0.41309721425E+03  0.43877917864E+03  0.80308867897E+02 0.  0.
          5    1    3    3  501    0  0.33028236340E+02  0.89982178103E+01 -0.71255893328E+01  0.35280254291E+02  0.47000000000E+01 0. -1.
        -11    1    4    4    0    0 -0.46590144372E+01  0.54350023528E+02  0.15770620962E+03  0.16687384465E+03  0.00000000000E+00 0.  1.
         12    1    4    4    0    0  0.56276357886E+02  0.10572406896E+03  0.13207735872E+03  0.17829480055E+03  0.00000000000E+00 0. -1.
         -5    1    5    5    0  502  0.78855531192E+01 -0.86208962766E+02  0.89937789866E+02  0.12492022757E+03  0.47000000000E+01 0.  1.
         11    1    6    6    0    0 -0.60447210223E+02 -0.88449499213E+02  0.36715150799E+03  0.38246229743E+03  0.00000000000E+00 0. -1.
        -12    1    6    6    0    0 -0.32083922684E+02  0.55861516794E+01  0.45945706261E+02  0.56316881210E+02  0.00000000000E+00 0.  1.
</event>
<event>
12    1  0.8331241E-002  0.2994327E+03  0.7818608E-02  0.1085560E+00
         21   -1    0    0  501  502  0.00000000000E+00  0.00000000000E+00  0.40640706001E+03  0.40640706001E+03  0.00000000000E+00 0. -1.
         21   -1    0    0  502  503 -0.00000000000E+00 -0.00000000000E+00 -0.28105964619E+03  0.28105964619E+03  0.00000000000E+00 0.  1.
         -6    2    1    2    0  503  0.22899446028E+03 -0.87150668183E+02 -0.96977792766E+02  0.31474530389E+03  0.17212266621E+03 0.  0.
        -24    2    3    3    0    0  0.23857042005E+03 -0.10336315292E+03 -0.68770068556E+02  0.28050630022E+03  0.79716218119E+02 0.  0.
          6    2    1    2  501    0 -0.22899446028E+03  0.87150668183E+02  0.22232520659E+03  0.37272140231E+03  0.17163637275E+03 0.  0.
         24    2    5    5    0    0 -0.21039077815E+03  0.85246590403E+02  0.24569619171E+03  0.34242263259E+03  0.73180461748E+02 0.  0.
          5    1    5    5  501    0 -0.18603682131E+02  0.19040777796E+01 -0.23370985121E+02  0.30298769720E+02  0.47000000000E+01 0. -1.
        -13    1    6    6    0    0 -0.15609775271E+02  0.10851886351E+02 -0.14568876870E+01  0.19067014531E+02  0.00000000000E+00 0.  1.
         14    1    6    6    0    0 -0.19478100288E+03  0.74394704052E+02  0.24715307940E+03  0.32335561806E+03  0.00000000000E+00 0. -1.
         -5    1    3    3    0  503 -0.95759597676E+01  0.16212484734E+02 -0.28207724210E+02  0.34239003663E+02  0.47000000000E+01 0.  1.
         13    1    4    4    0    0  0.13000506460E+03 -0.91449775114E+02 -0.17672455414E+02  0.15992715176E+03  0.00000000000E+00 0. -1.
        -14    1    4    4    0    0  0.10856535545E+03 -0.11913377803E+02 -0.51097613142E+02  0.12057914846E+03  0.00000000000E+00 0.  1.
</event>
<event>
12    1  0.8331241E-002  0.1878971E+03  0.7818608E-02  0.1160424E+00
         21   -1    0    0  503  502  0.00000000000E+00  0.00000000000E+00  0.45664953368E+03  0.45664953368E+03  0.00000000000E+00 0.  1.
         21   -1    0    0  501  503 -0.00000000000E+00 -0.00000000000E+00 -0.95280988822E+02  0.95280988822E+02  0.00000000000E+00 0.  1.
          6    2    1    2  501    0 -0.75185198448E+02 -0.28847738023E+01  0.60449650495E+02  0.19716651328E+03  0.17192829241E+03 0.  0.
         24    2    3    3    0    0  0.14075588799E+02 -0.17141107902E+02  0.70260054167E+02  0.10612220966E+03  0.76377407597E+02 0.  0.
         -6    2    1    2    0  502  0.75185198448E+02  0.28847738023E+01  0.30091889437E+03  0.35476400922E+03  0.17217486828E+03 0.  0.
        -24    2    5    5    0    0  0.29875663752E+02  0.62436731134E+02  0.13079131478E+03  0.16884770307E+03  0.81315915611E+02 0.  0.
          5    1    3    3  501    0 -0.89260787247E+02  0.14256334099E+02 -0.98104036722E+01  0.91044303623E+02  0.47000000000E+01 0. -1.
        -11    1    4    4    0    0 -0.19883477098E+02 -0.34145439093E+02  0.23847900962E+02  0.46151771934E+02  0.00000000000E+00 0.  1.
         12    1    4    4    0    0  0.33959065897E+02  0.17004331191E+02  0.46412153206E+02  0.59970437726E+02  0.00000000000E+00 0. -1.
         -5    1    5    5    0  502  0.45309534696E+02 -0.59551957332E+02  0.17012757959E+03  0.18591630615E+03  0.47000000000E+01 0.  1.
         11    1    6    6    0    0 -0.26493799549E+02  0.26008842012E+02  0.29888623645E+02  0.47662470569E+02  0.00000000000E+00 0. -1.
        -12    1    6    6    0    0  0.56369463301E+02  0.36427889122E+02  0.10090269113E+03  0.12118523250E+03  0.00000000000E+00 0.  1.
</event>
<event>
12    1  0.8331241E-002  0.1725154E+03  0.7818608E-02  0.1175316E+00
         21   -1    0    0  501  502  0.00000000000E+00  0.00000000000E+00  0.11458999404E+04  0.11458999404E+04  0.00000000000E+00 0.  1.
         21   -1    0    0  502  503 -0.00000000000E+00 -0.00000000000E+00 -0.12558006274E+03  0.12558006274E+03  0.00000000000E+00 0.  1.
         -6    2    1    2    0  503  0.13885250177E+01  0.14540179214E+02 -0.56223416268E+02  0.18120158145E+03  0.17163797881E+03 0.  0.
        -24    2    3    3    0    0  0.23501828158E+01 -0.53604708387E+02 -0.90095921467E+00  0.93296435148E+02  0.76317920328E+02 0.  0.
          6    2    1    2  501    0 -0.13885250177E+01 -0.14540179214E+02  0.10765432939E+04  0.10902784217E+04  0.17189598101E+03 0.  0.
         24    2    5    5    0    0  0.36232868075E+02 -0.59597949227E+02  0.82529094078E+03  0.83221756294E+03  0.81340019974E+02 0.  0.
          5    1    5    5  501    0 -0.37621393093E+02  0.45057770012E+02  0.25125235314E+03  0.25806085874E+03  0.47000000000E+01 0. -1.
        -13    1    6    6    0    0  0.34407764591E+02  0.92372875775E+01  0.20018566817E+03  0.20333106867E+03  0.00000000000E+00 0.  1.
         14    1    6    6    0    0  0.18251034841E+01 -0.68835236804E+02  0.62510527261E+03  0.62888649426E+03  0.00000000000E+00 0. -1.
         -5    1    3    3    0  503 -0.96165779817E+00  0.68144887601E+02 -0.55322457053E+02  0.87905146302E+02  0.47000000000E+01 0.  1.
         13    1    4    4    0    0 -0.27083716900E+02 -0.44739689688E+02  0.20142524793E+02  0.56043633533E+02  0.00000000000E+00 0. -1.
        -14    1    4    4    0    0  0.29433899716E+02 -0.88650186991E+01 -0.21043484008E+02  0.37252801615E+02  0.00000000000E+00 0.  1.
</event>
<event>
12    1  0.8331241E-002  0.1855743E+03  0.7818608E-02  0.1163047E+00
         21   -1    0    0  501  502  0.00000000000E+00  0.00000000000E+00  0.13786366363E+03  0.13786366363E+03  0.00000000000E+00 0.  1.
         21   -1    0    0  502  503 -0.00000000000E+00 -0.00000000000E+00 -0.40278791267E+03  0.40278791267E+03  0.00000000000E+00 0.  1.
         -6    2    1    2    0  503  0.28774210052E+02 -0.55105175480E+02 -0.30021599128E+03  0.35175127560E+03  0.17243776540E+03 0.  0.
        -24    2    3    3    0    0  0.40001312847E+02 -0.79352527020E+02 -0.14317642421E+03  0.19238535226E+03  0.92820831405E+02 0.  0.
          6    2    1    2  501    0 -0.28774210052E+02  0.55105175480E+02  0.35291742241E+02  0.18890030071E+03  0.17485216901E+03 0.  0.
         24    2    5    5    0    0  0.47307505853E+02  0.58443794975E+02  0.21411578770E+02  0.11134823553E+03  0.79286168839E+02 0.  0.
          5    1    5    5  501    0 -0.76081715905E+02 -0.33386194949E+01  0.13880163471E+02  0.77552065177E+02  0.47000000000E+01 0. -1.
        -11    1    6    6    0    0 -0.13992515334E+02  0.21754374808E+02  0.29750211979E+02  0.39422308678E+02  0.00000000000E+00 0.  1.
         12    1    6    6    0    0  0.61300021188E+02  0.36689420166E+02 -0.83386332095E+01  0.71925926852E+02  0.00000000000E+00 0. -1.
         -5    1    3    3    0  503 -0.11227102796E+02  0.24247351540E+02 -0.15703956707E+03  0.15936592333E+03  0.47000000000E+01 0.  1.
         13    1    4    4    0    0  0.12384892368E+02  0.97486925771E+01  0.56477385109E+01  0.16742745181E+02  0.00000000000E+00 0. -1.
        -14    1    4    4    0    0  0.27616420479E+02 -0.89101219597E+02 -0.14882416272E+03  0.17564260708E+03  0.00000000000E+00 0.  1.
</event>
<event>
12    1  0.8331241E-002  0.2035955E+03  0.7818608E-02  0.1147002E+00
         21   -1    0    0  501  502  0.00000000000E+00  0.00000000000E+00  0.26877148041E+03  0.26877148041E+03  0.00000000000E+00 0. -1.
         21   -1    0    0  502  503 -0.00000000000E+00 -0.00000000000E+00 -0.35363341373E+03  0.35363341373E+03  0.00000000000E+00 0. -1.
         -6    2    1    2    0  503 -0.41949543592E+01  0.10666604662E+03 -0.27662315811E+03  0.34272023567E+03  0.17187654055E+03 0.  0.
        -24    2    3    3    0    0  0.10552404245E+02  0.13173746419E+03 -0.15986113701E+03  0.22229797802E+03  0.79966838134E+02 0.  0.
          6    2    1    2  501    0  0.41949543592E+01 -0.10666604662E+03  0.19176122479E+03  0.27968465847E+03  0.17336636844E+03 0.  0.
         24    2    5    5    0    0  0.68899262470E+02 -0.73486646120E+02  0.13740540959E+03  0.18877720690E+03  0.81296935565E+02 0.  0.
          5    1    5    5  501    0 -0.64704308111E+02 -0.33179400500E+02  0.54355815193E+02  0.90907451570E+02  0.47000000000E+01 0. -1.
        -11    1    6    6    0    0  0.50240996564E+02 -0.16964896239E+01  0.30966236859E+02  0.59041880373E+02  0.00000000000E+00 0.  1.
         12    1    6    6    0    0  0.18658265906E+02 -0.71790156496E+02  0.10643917273E+03  0.12973532653E+03  0.00000000000E+00 0. -1.
         -5    1    3    3    0  503 -0.14747358604E+02 -0.25071417574E+02 -0.11676202110E+03  0.12042225765E+03  0.47000000000E+01 0.  1.
         13    1    4    4    0    0  0.20046987902E+02  0.17803476763E+02 -0.75770692373E+02  0.80374394750E+02  0.00000000000E+00 0. -1.
        -14    1    4    4    0    0 -0.94945836572E+01  0.11393398743E+03 -0.84090444633E+02  0.14192358327E+03  0.00000000000E+00 0.  1.
</event>
<event>
12    1  0.8331241E-002  0.1892011E+03  0.7818608E-02  0.1159390E+00
         21   -1    0    0  503  502  0.00000000000E+00  0.00000000000E+00  0.30692124952E+02  0.30692124952E+02  0.00000000000E+00 0. -1.
         21   -1    0    0  501  503 -0.00000000000E+00 -0.00000000000E+00 -0.22372356671E+04  0.22372356671E+04  0.00000000000E+00 0. -1.
          6    2    1    2  501    0  0.18919391681E+02  0.71210327123E+02 -0.18912351834E+04  0.19006755565E+04  0.17426473623E+03 0.  0.
         24    2    3    3    0    0 -0.21130104223E+02  0.44431477603E+02 -0.49538740373E+03  0.50398869727E+03  0.78583011475E+02 0.  0.
         -6    2    1    2    0  502 -0.18919391681E+02 -0.71210327123E+02 -0.31530835875E+03  0.36725223550E+03  0.17328008919E+03 0.  0.
        -24    2    5    5    0    0  0.31853663898E+02 -0.19269994177E+02 -0.77579450935E+02  0.11863038414E+03  0.81661546981E+02 0.  0.
          5    1    3    3  501    0  0.40049495904E+02  0.26778849521E+02 -0.13958477796E+04  0.13966868592E+04  0.47000000000E+01 0. -1.
        -13    1    4    4    0    0  0.26300137667E+02  0.23730299061E+02 -0.29113937589E+03  0.29328648201E+03  0.00000000000E+00 0.  1.
         14    1    4    4    0    0 -0.47430241890E+02  0.20701178542E+02 -0.20424802784E+03  0.21070221526E+03  0.00000000000E+00 0. -1.
         -5    1    5    5    0  502 -0.50773055579E+02 -0.51940332947E+02 -0.23772890782E+03  0.24862185136E+03  0.47000000000E+01 0.  1.
         13    1    6    6    0    0  0.12851422367E+02 -0.18640529350E+02  0.12979030788E+02  0.26097579035E+02  0.00000000000E+00 0. -1.
        -14    1    6    6    0    0  0.19002241531E+02 -0.62946482691E+00 -0.90558481723E+02  0.92532805108E+02  0.00000000000E+00 0.  1.
</event>
<event>
12    1  0.8331241E-002  0.1763315E+03  0.7818608E-02  0.1171584E+00
         21   -1    0    0  501  502  0.00000000000E+00  0.00000000000E+00  0.13072430319E+03  0.13072430319E+03  0.00000000000E+00 0. -1.
         21   -1    0    0  502  503 -0.00000000000E+00 -0.00000000000E+00 -0.29651890209E+03  0.29651890209E+03  0.00000000000E+00 0. -1.
         -6    2    1    2    0  503  0.35131514196E+02  0.30034389773E+01 -0.17885536519E+03  0.25116139305E+03  0.17277025139E+03 0.  0.
        -24    2    3    3    0    0  0.13340138878E+01  0.54974685754E+02 -0.16148048748E+03  0.18660709115E+03  0.75645640741E+02 0.  0.
          6    2    1    2  501    0 -0.35131514196E+02 -0.30034389773E+01  0.13060766291E+02  0.17608181222E+03  0.17202028091E+03 0.  0.
         24    2    5    5    0    0  0.40264487169E+01 -0.27318616320E+02 -0.45960929866E+02  0.10104699013E+03  0.85647930823E+02 0.  0.
          5    1    5    5  501    0 -0.39157962913E+02  0.24315177342E+02  0.59021696156E+02  0.75034822088E+02  0.47000000000E+01 0. -1.
        -13    1    6    6    0    0 -0.24157855436E+02  0.22150707181E+02 -0.20657879630E+02  0.38742790281E+02  0.00000000000E+00 0.  1.
         14    1    6    6    0    0  0.28184304153E+02 -0.49469323501E+02 -0.25303050235E+02  0.62304199854E+02  0.00000000000E+00 0. -1.
         -5    1    3    3    0  503  0.33797500309E+02 -0.51971246777E+02 -0.17374877712E+02  0.64554301903E+02  0.47000000000E+01 0.  1.
         11    1    4    4    0    0  0.17799868661E+02  0.10632307357E+02 -0.12543592646E+03  0.12713792876E+03  0.00000000000E+00 0. -1.
        -12    1    4    4    0    0 -0.16465854774E+02  0.44342378397E+02 -0.36044561021E+02  0.59469162383E+02  0.00000000000E+00 0.  1.
</event>
<event>
12    1  0.8331241E-002  0.2275514E+03  0.7818608E-02  0.1129194E+00
         21   -1    0    0  501  502  0.00000000000E+00  0.00000000000E+00  0.64237602927E+03  0.64237602927E+03  0.00000000000E+00 0.  1.
         21   -1    0    0  502  503 -0.00000000000E+00 -0.00000000000E+00 -0.16387422837E+03  0.16387422837E+03  0.00000000000E+00 0. -1.
         -6    2    1    2    0  503  0.10854130349E+03  0.92707677042E+02 -0.49685017962E+02  0.23291247135E+03  0.17721086409E+03 0.  0.
        -24    2    3    3    0    0  0.11810649539E+02  0.91543721596E+02 -0.63033203784E+02  0.13514520550E+03  0.75969055446E+02 0.  0.
          6    2    1    2  501    0 -0.10854130349E+03 -0.92707677042E+02  0.52818681886E+03  0.57333778630E+03  0.17134460493E+03 0.  0.
         24    2    5    5    0    0 -0.52385376117E+02 -0.51011933791E+01  0.38191121066E+03  0.39376321206E+03  0.80143898967E+02 0.  0.
          5    1    5    5  501    0 -0.56155927369E+02 -0.87606483663E+02  0.14627560820E+03  0.17957457424E+03  0.47000000000E+01 0. -1.
        -13    1    6    6    0    0 -0.29285118106E+02  0.33336999058E+02  0.26219185525E+03  0.26592018090E+03  0.00000000000E+00 0.  1.
         14    1    6    6    0    0 -0.23100258011E+02 -0.38438192437E+02  0.11971935541E+03  0.12784303116E+03  0.00000000000E+00 0. -1.
         -5    1    3    3    0  503  0.96730653947E+02  0.11639554467E+01  0.13348185822E+02  0.97767265841E+02  0.47000000000E+01 0.  1.
         13    1    4    4    0    0  0.13666074230E+01  0.56593996872E+02 -0.77440740071E+02  0.95926098224E+02  0.00000000000E+00 0. -1.
        -14    1    4    4    0    0  0.10444042116E+02  0.34949724724E+02  0.14407536287E+02  0.39219107280E+02  0.00000000000E+00 0.  1.
</event>
<event>
12    1  0.8331241E-002  0.3057347E+03  0.7818608E-02  0.1082478E+00
         21   -1    0    0  503  502  0.00000000000E+00  0.00000000000E+00  0.30777636811E+03  0.30777636811E+03  0.00000000000E+00 0. -1.
         21   -1    0    0  501  503 -0.00000000000E+00 -0.00000000000E+00 -0.33107805353E+03  0.33107805353E+03  0.00000000000E+00 0.  1.
          6    2    1    2  501    0 -0.20573037767E+03  0.14561354347E+03 -0.10442372514E+03  0.32254051715E+03  0.17204586159E+03 0.  0.
         24    2    3    3    0    0 -0.51429174670E+02  0.10048690697E+03 -0.81211796733E+02  0.16004079964E+03  0.79215674838E+02 0.  0.
         -6    2    1    2    0  502  0.20573037767E+03 -0.14561354347E+03  0.81122039724E+02  0.31631390448E+03  0.17304741691E+03 0.  0.
        -24    2    5    5    0    0  0.57519826832E+02 -0.83914131064E+02  0.87905705823E+02  0.15556163234E+03  0.78242548967E+02 0.  0.
          5    1    3    3  501    0 -0.15430120301E+03  0.45126636503E+02 -0.23211928411E+02  0.16249971751E+03  0.47000000000E+01 0. -1.
        -11    1    4    4    0    0 -0.34086984926E+02  0.16422965148E+02 -0.61124247970E+02  0.71887481633E+02  0.00000000000E+00 0.  1.
         12    1    4    4    0    0 -0.17342189743E+02  0.84063941823E+02 -0.20087548763E+02  0.88153318005E+02  0.00000000000E+00 0. -1.
         -5    1    5    5    0  502  0.14821055084E+03 -0.61699412411E+02 -0.67836660989E+01  0.16075227214E+03  0.47000000000E+01 0.  1.
         13    1    6    6    0    0  0.60691801518E+02 -0.24213195793E+02  0.28525469638E+02  0.71298499564E+02  0.00000000000E+00 0. -1.
        -14    1    6    6    0    0 -0.31719746868E+01 -0.59700935270E+02  0.59380236185E+02  0.84263132775E+02  0.00000000000E+00 0.  1.
</event>
<event>
12    1  0.8331241E-002  0.1743985E+03  0.7818608E-02  0.1173529E+00
         21   -1    0    0  501  502  0.00000000000E+00  0.00000000000E+00  0.58278008451E+02  0.58278008451E+02  0.00000000000E+00 0.  1.
         21   -1    0    0  502  503 -0.00000000000E+00 -0.00000000000E+00 -0.54013667681E+03  0.54013667681E+03  0.00000000000E+00 0.  1.
         -6    2    1    2    0  503 -0.27619743032E+02 -0.23397590094E+01 -0.29872861301E+03  0.34552845036E+03  0.17141412165E+03 0.  0.
        -24    2    3    3    0    0 -0.13713543673E+02 -0.55908610066E+02 -0.26044791834E+03  0.27807101365E+03  0.78590944146E+02 0.  0.
          6    2    1    2  501    0  0.27619743032E+02  0.23397590094E+01 -0.18313005535E+03  0.25288623490E+03  0.17218160747E+03 0.  0.
         24    2    5    5    0    0  0.58244231220E+02  0.41390136824E+02 -0.17009238985E+03  0.20136088186E+03  0.80679921675E+02 0.  0.
          5    1    5    5  501    0 -0.30624488188E+02 -0.39050377815E+02 -0.13037665498E+02  0.51525353040E+02  0.47000000000E+01 0. -1.
        -13    1    6    6    0    0  0.75627281999E+02  0.17153386299E+02 -0.13031428343E+03  0.15164279380E+03  0.00000000000E+00 0.  1.
         14    1    6    6    0    0 -0.17383050779E+02  0.24236750524E+02 -0.39778106416E+02  0.49718088061E+02  0.00000000000E+00 0. -1.
         -5    1    3    3    0  503 -0.13906199359E+02  0.53568851057E+02 -0.38280694671E+02  0.67457436719E+02  0.47000000000E+01 0.  1.
         13    1    4    4    0    0  0.24606803209E+02 -0.21573987468E+02 -0.39913810236E+02  0.51614377328E+02  0.00000000000E+00 0. -1.
        -14    1    4    4    0    0 -0.38320346882E+02 -0.34334622598E+02 -0.22053410811E+03  0.22645663632E+03  0.00000000000E+00 0.  1.
</event>
<event>
12    1  0.8331241E-002  0.1856412E+03  0.7818608E-02  0.1162455E+00
         21   -1    0    0  503  502  0.00000000000E+00  0.00000000000E+00  0.10173384352E+03  0.10173384352E+03  0.00000000000E+00 0. -1.
         21   -1    0    0  501  503 -0.00000000000E+00 -0.00000000000E+00 -0.53322090515E+03  0.53322090515E+03  0.00000000000E+00 0.  1.
          6    2    1    2  501    0  0.61490625071E+02  0.32957393267E+02 -0.40747630699E+03  0.44776726180E+03  0.17202119997E+03 0.  0.
         24    2    3    3    0    0  0.96613212269E+01  0.69080232378E+00 -0.36187664872E+03  0.37142049722E+03  0.83094274937E+02 0.  0.
         -6    2    1    2    0  502 -0.61490625071E+02 -0.32957393267E+02 -0.24010754639E+02  0.18718748687E+03  0.17203299730E+03 0.  0.
        -24    2    5    5    0    0 -0.30913402593E+02 -0.88111734595E+02 -0.27654060713E+02  0.12384451898E+03  0.76507526257E+02 0.  0.
          5    1    3    3  501    0  0.51829303844E+02  0.32266590943E+02 -0.45599658269E+02  0.76346764583E+02  0.47000000000E+01 0. -1.
        -11    1    4    4    0    0  0.85806969394E+01  0.32571227675E+02 -0.68691302067E+02  0.76504955473E+02  0.00000000000E+00 0.  1.
         12    1    4    4    0    0  0.10806242875E+01 -0.31880425351E+02 -0.29318534665E+03  0.29491554174E+03  0.00000000000E+00 0. -1.
         -5    1    5    5    0  502 -0.30577222479E+02  0.55154341328E+02  0.36433060743E+01  0.63342967889E+02  0.47000000000E+01 0.  1.
         13    1    6    6    0    0  0.22028414767E+02 -0.26572463751E+02  0.75981962200E+01  0.35342318440E+02  0.00000000000E+00 0. -1.
        -14    1    6    6    0    0 -0.52941817359E+02 -0.61539270843E+02 -0.35252256933E+02  0.88502200538E+02  0.00000000000E+00 0.  1.
</event>
<event>
12    1  0.8331241E-002  0.2121259E+03  0.7818608E-02  0.1140063E+00
         21   -1    0    0  501  502  0.00000000000E+00  0.00000000000E+00  0.12524914045E+03  0.12524914045E+03  0.00000000000E+00 0. -1.
         21   -1    0    0  502  503 -0.00000000000E+00 -0.00000000000E+00 -0.85681296391E+03  0.85681296391E+03  0.00000000000E+00 0. -1.
         -6    2    1    2    0  503  0.35678576301E+02  0.11898195774E+03 -0.74082596456E+03  0.77059749107E+03  0.17195265745E+03 0.  0.
        -24    2    3    3    0    0  0.70527457034E+02  0.12517403358E+03 -0.68299788145E+03  0.70263453434E+03  0.81034078664E+02 0.  0.
          6    2    1    2  501    0 -0.35678576301E+02 -0.11898195774E+03  0.92621411084E+01  0.21146461329E+03  0.17088542460E+03 0.  0.
         24    2    5    5    0    0 -0.20447598406E+01 -0.85658729973E+02 -0.58842359079E+02  0.12838643285E+03  0.75359497441E+02 0.  0.
          5    1    5    5  501    0 -0.33633816461E+02 -0.33323227772E+02  0.68104500188E+02  0.83078180437E+02  0.47000000000E+01 0. -1.
        -11    1    6    6    0    0 -0.42995262912E+01 -0.90529675119E+02 -0.70977679606E+02  0.11511706653E+03  0.00000000000E+00 0.  1.
         12    1    6    6    0    0  0.22547664505E+01  0.48709451460E+01  0.12135320526E+02  0.13269366324E+02  0.00000000000E+00 0. -1.
         -5    1    3    3    0  503 -0.34848880733E+02 -0.61920758338E+01 -0.57828083111E+02  0.67962956732E+02  0.47000000000E+01 0.  1.
         13    1    4    4    0    0  0.31117102667E+02  0.75265556246E+02 -0.54035430906E+03  0.54645764461E+03  0.00000000000E+00 0. -1.
        -14    1    4    4    0    0  0.39410354368E+02  0.49908477333E+02 -0.14264357239E+03  0.15617688973E+03  0.00000000000E+00 0.  1.
</event>
<event>
12    1  0.8331241E-002  0.1861164E+03  0.7818608E-02  0.1162024E+00
         21   -1    0    0  501  502  0.00000000000E+00  0.00000000000E+00  0.46791109370E+02  0.46791109370E+02  0.00000000000E+00 0. -1.
         21   -1    0    0  502  503 -0.00000000000E+00 -0.00000000000E+00 -0.98619341199E+03  0.98619341199E+03  0.00000000000E+00 0.  1.
         -6    2    1    2    0  503 -0.19566820985E+02 -0.67078727391E+02 -0.72766750172E+03  0.75107860827E+03  0.17244322713E+03 0.  0.
        -24    2    3    3    0    0 -0.23589759269E+02 -0.43529656545E+01 -0.17548139025E+03  0.19530680535E+03  0.82314062219E+02 0.  0.
          6    2    1    2  501    0  0.19566820985E+02  0.67078727391E+02 -0.21173480090E+03  0.28190591309E+03  0.17250188919E+03 0.  0.
         24    2    5    5    0    0  0.50175762173E+02  0.67368903121E+02 -0.22122574809E+03  0.24951518045E+03  0.79125327429E+02 0.  0.
          5    1    5    5  501    0 -0.30608941188E+02 -0.29017572991E+00  0.94909471889E+01  0.32390732643E+02  0.47000000000E+01 0. -1.
        -13    1    6    6    0    0  0.13087448044E+01  0.21097693338E+02 -0.15016185530E+03  0.15164236962E+03  0.00000000000E+00 0.  1.
         14    1    6    6    0    0  0.48867017369E+02  0.46271209783E+02 -0.71063892786E+02  0.97872810827E+02  0.00000000000E+00 0. -1.
         -5    1    3    3    0  503  0.40229382842E+01 -0.62725761737E+02 -0.55218611147E+03  0.55577180291E+03  0.47000000000E+01 0.  1.
         11    1    4    4    0    0  0.27551161293E+02 -0.10827644143E+02 -0.36021020853E+02  0.46624224493E+02  0.00000000000E+00 0. -1.
        -12    1    4    4    0    0 -0.51140920562E+02  0.64746784884E+01 -0.13946036940E+03  0.14868258086E+03  0.00000000000E+00 0.  1.
</event>
<event>
12    1  0.8331241E-002  0.3218483E+03  0.7818608E-02  0.1075021E+00
         21   -1    0    0  503  502  0.00000000000E+00  0.00000000000E+00  0.34828720183E+03  0.34828720183E+03  0.00000000000E+00 0. -1.
         21   -1    0    0  501  503 -0.00000000000E+00 -0.00000000000E+00 -0.30937462333E+03  0.30937462333E+03  0.00000000000E+00 0.  1.
          6    2    1    2  501    0  0.15955814347E+03 -0.21904199116E+03 -0.49864383270E+02  0.32379410695E+03  0.17005285043E+03 0.  0.
         24    2    3    3    0    0  0.84631349573E+01 -0.10325511829E+03 -0.25316902335E+02  0.13180199683E+03  0.77444023134E+02 0.  0.
         -6    2    1    2    0  502 -0.15955814347E+03  0.21904199116E+03  0.88776961765E+02  0.33386771821E+03  0.17363210902E+03 0.  0.
        -24    2    5    5    0    0 -0.13154320592E+03  0.86527207744E+02  0.98168055859E+01  0.17701810612E+03  0.80302350628E+02 0.  0.
          5    1    3    3  501    0  0.15109500851E+03 -0.11578687287E+03 -0.24547480935E+02  0.19199211012E+03  0.47000000000E+01 0. -1.
        -13    1    4    4    0    0  0.29054899352E+01  0.11566748716E+02 -0.10509537310E+02  0.15895971883E+02  0.00000000000E+00 0.  1.
         14    1    4    4    0    0  0.55576450220E+01 -0.11482186701E+03 -0.14807365025E+02  0.11590602495E+03  0.00000000000E+00 0. -1.
         -5    1    5    5    0  502 -0.28014937546E+02  0.13251478342E+03  0.78960156180E+02  0.15684961209E+03  0.47000000000E+01 0.  1.
         13    1    6    6    0    0 -0.13411718538E+02  0.20436099041E+02  0.31561009041E+02  0.39919990354E+02  0.00000000000E+00 0. -1.
        -14    1    6    6    0    0 -0.11813148739E+03  0.66091108703E+02 -0.21744203455E+02  0.13709811576E+03  0.00000000000E+00 0.  1.
</event>
<event>
12    1  0.8331241E-002  0.2082884E+03  0.7818608E-02  0.1142997E+00
         21   -1    0    0  503  502  0.00000000000E+00  0.00000000000E+00  0.12302099206E+03  0.12302099206E+03  0.00000000000E+00 0. -1.
         21   -1    0    0  501  503 -0.00000000000E+00 -0.00000000000E+00 -0.45341097346E+03  0.45341097346E+03  0.00000000000E+00 0. -1.
          6    2    1    2  501    0  0.11490156630E+03 -0.13586596087E+02 -0.30155234456E+03  0.36649401492E+03  0.17319665392E+03 0.  0.
         24    2    3    3    0    0  0.67172001778E+02 -0.71245389474E+02 -0.15217540910E+03  0.19934675460E+03  0.83628883115E+02 0.  0.
         -6    2    1    2    0  502 -0.11490156630E+03  0.13586596087E+02 -0.28837636835E+02  0.20993795059E+03  0.17278706048E+03 0.  0.
        -24    2    5    5    0    0 -0.96627305301E+02  0.74623538851E+02 -0.57961134793E+01  0.14202286541E+03  0.72328353268E+02 0.  0.
          5    1    3    3  501    0  0.47729564524E+02  0.57658793388E+02 -0.14937693546E+03  0.16714726032E+03  0.47000000000E+01 0. -1.
        -11    1    4    4    0    0  0.33720773496E+02  0.11598405268E+02 -0.67052308970E+02  0.75944885991E+02  0.00000000000E+00 0.  1.
         12    1    4    4    0    0  0.33451228282E+02 -0.82843794742E+02 -0.85123100130E+02  0.12340186861E+03  0.00000000000E+00 0. -1.
         -5    1    5    5    0  502 -0.18274261002E+02 -0.61036942765E+02 -0.23041523356E+02  0.67915085186E+02  0.47000000000E+01 0.  1.
         13    1    6    6    0    0  0.71546610420E+01  0.26060737758E+02  0.25030056688E+01  0.27140675461E+02  0.00000000000E+00 0. -1.
        -14    1    6    6    0    0 -0.10378196634E+03  0.48562801093E+02 -0.82991191481E+01  0.11488218995E+03  0.00000000000E+00 0.  1.
</event>
<event>
12    1  0.8331241E-002  0.3037910E+03  0.7818608E-02  0.1084427E+00
         21   -1    0    0  501  502  0.00000000000E+00  0.00000000000E+00  0.34872159670E+03  0.34872159670E+03  0.00000000000E+00 0. -1.
         21   -1    0    0  502  503 -0.00000000000E+00 -0.00000000000E+00 -0.35531760296E+03  0.35531760296E+03  0.00000000000E+00 0.  1.
         -6    2    1    2    0  503  0.23257861599E+03 -0.58324807124E+02 -0.18817606222E+03  0.35011786229E+03  0.17227214330E+03 0.  0.
        -24    2    3    3    0    0  0.10579647285E+03  0.35697677325E+02 -0.10167813741E+03  0.17006809029E+03  0.78214409625E+02 0.  0.
          6    2    1    2  501    0 -0.23257861599E+03  0.58324807124E+02  0.18158005596E+03  0.35392133737E+03  0.18653257243E+03 0.  0.
         24    2    5    5    0    0 -0.11803359103E+03  0.27920673761E+02  0.10638420385E+02  0.14586339630E+03  0.80320991999E+02 0.  0.
          5    1    5    5  501    0 -0.11454502496E+03  0.30404133363E+02  0.17094163558E+03  0.20805794107E+03  0.47000000000E+01 0. -1.
        -13    1    6    6    0    0 -0.71230967893E+02  0.47541566879E+02 -0.18116126974E+02  0.87534252866E+02  0.00000000000E+00 0.  1.
         14    1    6    6    0    0 -0.46802623138E+02 -0.19620893118E+02  0.28754547360E+02  0.58329143429E+02  0.00000000000E+00 0. -1.
         -5    1    3    3    0  503  0.12678214314E+03 -0.94022484449E+02 -0.86497924806E+02  0.18004977200E+03  0.47000000000E+01 0.  1.
         13    1    4    4    0    0 -0.41556955479E+01  0.87848060191E+01  0.78975219911E+01  0.12522518751E+02  0.00000000000E+00 0. -1.
        -14    1    4    4    0    0  0.10995216840E+03  0.26912871306E+02 -0.10957565940E+03  0.15754557154E+03  0.00000000000E+00 0.  1.
</event>
<event>
12    1  0.8331241E-002  0.2378891E+03  0.7818608E-02  0.1121865E+00
         21   -1    0    0  503  502  0.00000000000E+00  0.00000000000E+00  0.11935433872E+04  0.11935433872E+04  0.00000000000E+00 0. -1.
         21   -1    0    0  501  503 -0.00000000000E+00 -0.00000000000E+00 -0.46861879664E+02  0.46861879664E+02  0.00000000000E+00 0. -1.
          6    2    1    2  501    0 -0.10072995190E+03 -0.12700122726E+03  0.53593060394E+03  0.58635555426E+03  0.17411314951E+03 0.  0.
         24    2    3    3    0    0 -0.80110282549E+00 -0.11067722027E+03  0.31909256022E+03  0.34699583483E+03  0.79598734578E+02 0.  0.
         -6    2    1    2    0  502  0.10072995190E+03  0.12700122726E+03  0.61075090356E+03  0.65404971257E+03  0.16878544185E+03 0.  0.
        -24    2    5    5    0    0  0.33969114612E+02  0.12568460823E+03  0.30262318248E+03  0.33873475039E+03  0.78803039608E+02 0.  0.
          5    1    3    3  501    0 -0.99928849075E+02 -0.16324006995E+02  0.21683804372E+03  0.23935971943E+03  0.47000000000E+01 0. -1.
        -11    1    4    4    0    0  0.47161604101E+01 -0.73502159525E+01 -0.25670662311E+01  0.91026189966E+01  0.00000000000E+00 0.  1.
         12    1    4    4    0    0 -0.55172632355E+01 -0.10332700432E+03  0.32165962645E+03  0.33789321583E+03  0.00000000000E+00 0. -1.
         -5    1    5    5    0  502  0.66760837288E+02  0.13166190360E+01  0.30812772108E+03  0.31531496219E+03  0.47000000000E+01 0.  1.
         13    1    6    6    0    0  0.46268698256E+02  0.92262060953E+02  0.27479039424E+03  0.29353507644E+03  0.00000000000E+00 0. -1.
        -14    1    6    6    0    0 -0.12299583644E+02  0.33422547275E+02  0.27832788237E+02  0.45199673950E+02  0.00000000000E+00 0.  1.
</event>
<event>
12    1  0.8331241E-002  0.2048032E+03  0.7818608E-02  0.1146005E+00
         21   -1    0    0  501  502  0.00000000000E+00  0.00000000000E+00  0.18320986010E+03  0.18320986010E+03  0.00000000000E+00 0. -1.
         21   -1    0    0  502  503 -0.00000000000E+00 -0.00000000000E+00 -0.53125455025E+03  0.53125455025E+03  0.00000000000E+00 0. -1.
         -6    2    1    2    0  503  0.21490157377E+01 -0.11045653295E+03 -0.44389566346E+03  0.48834110525E+03  0.17096318640E+03 0.  0.
        -24    2    3    3    0    0  0.40645107117E+02 -0.13081943071E+03 -0.36650560076E+03  0.39941468364E+03  0.80249522960E+02 0.  0.
          6    2    1    2  501    0 -0.21490157377E+01  0.11045653295E+03  0.95850973310E+02  0.22612330510E+03  0.17245021336E+03 0.  0.
         24    2    5    5    0    0 -0.23810286486E+02  0.13030717861E+03  0.34547480711E+02  0.15798031582E+03  0.78850245541E+02 0.  0.
          5    1    5    5  501    0  0.21661270749E+02 -0.19850645665E+02  0.61303492599E+02  0.68142989285E+02  0.47000000000E+01 0. -1.
        -13    1    6    6    0    0  0.28652999327E+02  0.42725814560E+02  0.18305476147E+02  0.54603846542E+02  0.00000000000E+00 0.  1.
         14    1    6    6    0    0 -0.52463285813E+02  0.87581364055E+02  0.16242004563E+02  0.10337646928E+03  0.00000000000E+00 0. -1.
         -5    1    3    3    0  503 -0.38496091379E+02  0.20362897760E+02 -0.77390062700E+02  0.88926421616E+02  0.47000000000E+01 0.  1.
         11    1    4    4    0    0  0.11774401036E+02 -0.25859076812E+02 -0.18946762089E+03  0.19158629319E+03  0.00000000000E+00 0. -1.
        -12    1    4    4    0    0  0.28870706081E+02 -0.10496035390E+03 -0.17703797987E+03  0.20782839045E+03  0.00000000000E+00 0.  1.
</event>
<event>
12    1  0.8331241E-002  0.2841596E+03  0.7818608E-02  0.1093454E+00
         21   -1    0    0  503  502  0.00000000000E+00  0.00000000000E+00  0.44190626673E+03  0.44190626673E+03  0.00000000000E+00 0. -1.
         21   -1    0    0  501  503 -0.00000000000E+00 -0.00000000000E+00 -0.29098213694E+03  0.29098213694E+03  0.00000000000E+00 0.  1.
          6    2    1    2  501    0  0.21337513958E+02  0.22504386093E+03  0.29904359136E+03  0.41244172624E+03  0.17199150898E+03 0.  0.
         24    2    3    3    0    0  0.57809003007E+02  0.21370872605E+03  0.21014863432E+03  0.31557553924E+03  0.80076039112E+02 0.  0.
         -6    2    1    2    0  502 -0.21337513958E+02 -0.22504386093E+03 -0.14811946157E+03  0.32044667743E+03  0.17218208192E+03 0.  0.
        -24    2    5    5    0    0  0.33886745801E+02 -0.20077133209E+03 -0.14058043907E+03  0.25947290124E+03  0.78140177230E+02 0.  0.
          5    1    3    3  501    0 -0.36471489049E+02  0.11335134882E+02  0.88894957044E+02  0.96866187001E+02  0.47000000000E+01 0. -1.
        -11    1    4    4    0    0 -0.11716643531E+02  0.20465392365E+02  0.28195436477E+01  0.23749986246E+02  0.00000000000E+00 0.  1.
         12    1    4    4    0    0  0.69525646538E+02  0.19324333369E+03  0.20732909067E+03  0.29182555299E+03  0.00000000000E+00 0. -1.
         -5    1    5    5    0  502 -0.55224259759E+02 -0.24272528841E+02 -0.75390224983E+01  0.60973776187E+02  0.47000000000E+01 0.  1.
         13    1    6    6    0    0  0.32863332395E+02 -0.27134941239E+02 -0.14999822826E+02  0.45180729708E+02  0.00000000000E+00 0. -1.
        -14    1    6    6    0    0  0.10234134068E+01 -0.17363639085E+03 -0.12558061625E+03  0.21429217153E+03  0.00000000000E+00 0.  1.
</event>
<event>
12    1  0.8331241E-002  0.3575645E+03  0.7818608E-02  0.1060088E+00
         21   -1    0    0  501  502  0.00000000000E+00  0.00000000000E+00  0.16401770442E+04  0.16401770442E+04  0.00000000000E+00 0.  1.
         21   -1    0    0  502  503 -0.00000000000E+00 -0.00000000000E+00 -0.18244575644E+03  0.18244575644E+03  0.00000000000E+00 0. -1.
         -6    2    1    2    0  503 -0.20050777749E+03  0.23200996595E+03  0.37689148336E+02  0.35954528984E+03  0.18390310059E+03 0.  0.
        -24    2    3    3    0    0 -0.13127159644E+03  0.89543017601E+02  0.79801498298E+02  0.19557571901E+03  0.81433400411E+02 0.  0.
          6    2    1    2  501    0  0.20050777749E+03 -0.23200996595E+03  0.14200421395E+04  0.14630775108E+04  0.17333243135E+03 0.  0.
         24    2    5    5    0    0  0.10934018579E+03 -0.15281280898E+03  0.59092871872E+03  0.62520229704E+03  0.79838153806E+02 0.  0.
          5    1    5    5  501    0  0.91167591702E+02 -0.79197156973E+02  0.82911342075E+03  0.83787521381E+03  0.47000000000E+01 0. -1.
        -11    1    6    6    0    0  0.11877930269E+03 -0.13865369274E+03  0.49122159074E+03  0.52405345191E+03  0.00000000000E+00 0.  1.
         12    1    6    6    0    0 -0.94391168927E+01 -0.14159116237E+02  0.99707127978E+02  0.10114884512E+03  0.00000000000E+00 0. -1.
         -5    1    3    3    0  503 -0.69236181056E+02  0.14246694835E+03 -0.42112349962E+02  0.16396957083E+03  0.47000000000E+01 0.  1.
         13    1    4    4    0    0 -0.40608465147E+02  0.44882442491E+02 -0.88100247618E+01  0.61164512765E+02  0.00000000000E+00 0. -1.
        -14    1    4    4    0    0 -0.90663131292E+02  0.44660575111E+02  0.88611523060E+02  0.13441120624E+03  0.00000000000E+00 0.  1.
</event>
<event>
12    1  0.8331241E-002  0.2105801E+03  0.7818608E-02  0.1141725E+00
         21   -1    0    0  503  502  0.00000000000E+00  0.00000000000E+00  0.99086793461E+02  0.99086793461E+02  0.00000000000E+00 0. -1.
         21   -1    0    0  501  503 -0.00000000000E+00 -0.00000000000E+00 -0.44265017673E+03  0.44265017673E+03  0.00000000000E+00 0.  1.
          6    2    1    2  501    0  0.11836428958E+03  0.40173075810E+02 -0.15373582453E+03  0.25822598759E+03  0.16559582077E+03 0.  0.
         24    2    3    3    0    0  0.28145555693E+02  0.72119411601E+02 -0.77212776341E+02  0.13559705455E+03  0.80195801252E+02 0.  0.
         -6    2    1    2    0  502 -0.11836428958E+03 -0.40173075810E+02 -0.18982755874E+03  0.28351098260E+03  0.16946974400E+03 0.  0.
        -24    2    5    5    0    0 -0.61310602059E+02 -0.77424786375E+02 -0.66752169659E+02  0.14275426128E+03  0.78545143006E+02 0.  0.
          5    1    3    3  501    0  0.90218733882E+02 -0.31946335791E+02 -0.76523048192E+02  0.12262893304E+03  0.47000000000E+01 0. -1.
        -13    1    4    4    0    0  0.17849744624E+02  0.32352400362E+02 -0.85989126038E+02  0.93591778427E+02  0.00000000000E+00 0.  1.
         14    1    4    4    0    0  0.10295811070E+02  0.39767011239E+02  0.87763496973E+01  0.42005276127E+02  0.00000000000E+00 0. -1.
         -5    1    5    5    0  502 -0.57053687516E+02  0.37251710565E+02 -0.12307538908E+03  0.14075672132E+03  0.47000000000E+01 0.  1.
         11    1    6    6    0    0 -0.18658695390E+02 -0.12641028221E+02  0.17278203063E+02  0.28398570549E+02  0.00000000000E+00 0. -1.
        -12    1    6    6    0    0 -0.42651906670E+02 -0.64783758154E+02 -0.84030372722E+02  0.11435569073E+03  0.00000000000E+00 0.  1.
</event>
<event>
12    1  0.8331241E-002  0.2069126E+03  0.7818608E-02  0.1144613E+00
         21   -1    0    0  503  502  0.00000000000E+00  0.00000000000E+00  0.95440790949E+02  0.95440790949E+02  0.00000000000E+00 0.  1.
         21   -1    0    0  501  503 -0.00000000000E+00 -0.00000000000E+00 -0.44550281089E+03  0.44550281089E+03  0.00000000000E+00 0. -1.
          6    2    1    2  501    0  0.92770321808E+02 -0.63374768686E+02 -0.15378672699E+03  0.25780455420E+03  0.17375309163E+03 0.  0.
         24    2    3    3    0    0 -0.10791263926E+02 -0.27862980475E+02 -0.11355920211E+03  0.14107224119E+03  0.78184958869E+02 0.  0.
         -6    2    1    2    0  502 -0.92770321808E+02  0.63374768686E+02 -0.19627529295E+03  0.28313904764E+03  0.17035561558E+03 0.  0.
        -24    2    5    5    0    0 -0.48247694158E+02  0.54432214014E+01 -0.28355490390E+02  0.99952043091E+02  0.82637209731E+02 0.  0.
          5    1    3    3  501    0  0.10356158573E+03 -0.35511788211E+02 -0.40227524885E+02  0.11673231301E+03  0.47000000000E+01 0. -1.
        -13    1    4    4    0    0 -0.39974838003E+02 -0.21084118476E+02 -0.35528500719E+02  0.57487408087E+02  0.00000000000E+00 0.  1.
         14    1    4    4    0    0  0.29183574077E+02 -0.67788619990E+01 -0.78030701388E+02  0.83584833104E+02  0.00000000000E+00 0. -1.
         -5    1    5    5    0  502 -0.44522627651E+02  0.57931547285E+02 -0.16791980256E+03  0.18318700455E+03  0.47000000000E+01 0.  1.
         13    1    6    6    0    0 -0.81084126035E+01  0.42857315936E+01 -0.52367440168E+02  0.53164486642E+02  0.00000000000E+00 0. -1.
        -14    1    6    6    0    0 -0.40139281554E+02  0.11574898078E+01  0.24011949778E+02  0.46787556449E+02  0.00000000000E+00 0.  1.
</event>
<event>
12    1  0.8331241E-002  0.2050517E+03  0.7818608E-02  0.1146417E+00
         21   -1    0    0  503  502  0.00000000000E+00  0.00000000000E+00  0.31624664756E+03  0.31624664756E+03  0.00000000000E+00 0.  1.
         21   -1    0    0  501  503 -0.00000000000E+00 -0.00000000000E+00 -0.32984029113E+03  0.32984029113E+03  0.00000000000E+00 0.  1.
          6    2    1    2  501    0 -0.10024658777E+03  0.30527771639E+02 -0.25812261962E+03  0.32965663995E+03  0.17625234836E+03 0.  0.
         24    2    3    3    0    0 -0.24822608052E+02  0.77622128187E+02 -0.15038732839E+03  0.18988669285E+03  0.82457570468E+02 0.  0.
         -6    2    1    2    0  502  0.10024658777E+03 -0.30527771639E+02  0.24452897604E+03  0.31643029874E+03  0.17132539402E+03 0.  0.
        -24    2    5    5    0    0  0.39665467010E+01 -0.30467480913E+02  0.18742363893E+03  0.20439030824E+03  0.75523352600E+02 0.  0.
          5    1    3    3  501    0 -0.75423979723E+02 -0.47094356549E+02 -0.10773529123E+03  0.13976994710E+03  0.47000000000E+01 0. -1.
        -11    1    4    4    0    0 -0.55030016928E+02  0.46998255201E+02 -0.85202374667E+02  0.11178811835E+03  0.00000000000E+00 0.  1.
         12    1    4    4    0    0  0.30207408876E+02  0.30623872986E+02 -0.65184953723E+02  0.78098574504E+02  0.00000000000E+00 0. -1.
         -5    1    5    5    0  502  0.96280041073E+02 -0.60290725336E-01  0.57105337115E+02  0.11203999050E+03  0.47000000000E+01 0.  1.
         11    1    6    6    0    0 -0.29758549971E+02  0.70415245026E+01  0.59932497461E+02  0.67283420064E+02  0.00000000000E+00 0. -1.
        -12    1    6    6    0    0  0.33725096672E+02 -0.37509005416E+02  0.12749114147E+03  0.13710688818E+03  0.00000000000E+00 0.  1.
</event>
<event>
12    1  0.8331241E-002  0.1971099E+03  0.7818608E-02  0.1152223E+00
         21   -1    0    0  503  502  0.00000000000E+00  0.00000000000E+00  0.18605815747E+03  0.18605815747E+03  0.00000000000E+00 0. -1.
         21   -1    0    0  501  503 -0.00000000000E+00 -0.00000000000E+00 -0.36595939854E+03  0.36595939854E+03  0.00000000000E+00 0.  1.
          6    2    1    2  501    0 -0.90805251464E+02 -0.37601147016E+02 -0.27086504979E+03  0.33493065034E+03  0.17073729935E+03 0.  0.
         24    2    3    3    0    0 -0.23809161794E+02  0.27699631677E+02 -0.67533626211E+02  0.11105920164E+03  0.80244687170E+02 0.  0.
         -6    2    1    2    0  502  0.90805251464E+02  0.37601147016E+02  0.90963808726E+02  0.21708690567E+03  0.17085921154E+03 0.  0.
        -24    2    5    5    0    0  0.69529863841E+02 -0.13327317433E+02  0.11518036662E+03  0.15663128322E+03  0.79087436889E+02 0.  0.
          5    1    3    3  501    0 -0.66996089670E+02 -0.65300778693E+02 -0.20333142358E+03  0.22387144870E+03  0.47000000000E+01 0. -1.
        -11    1    4    4    0    0 -0.35938026675E+01 -0.31773248906E+01 -0.73515327177E+02  0.73671664438E+02  0.00000000000E+00 0.  1.
         12    1    4    4    0    0 -0.20215359126E+02  0.30876956567E+02  0.59817009661E+01  0.37387537200E+02  0.00000000000E+00 0. -1.
         -5    1    5    5    0  502  0.21275387623E+02  0.50928464449E+02 -0.24216557894E+02  0.60455622451E+02  0.47000000000E+01 0.  1.
         11    1    6    6    0    0  0.54851765835E+01  0.28907016329E+02  0.32664545981E+02  0.43962203304E+02  0.00000000000E+00 0. -1.
        -12    1    6    6    0    0  0.64044687257E+02 -0.42234333761E+02  0.82515820638E+02  0.11266907992E+03  0.00000000000E+00 0.  1.
</event>
<event>
12    1  0.8331241E-002  0.1962278E+03  0.7818608E-02  0.1152973E+00
         21   -1    0    0  503  502  0.00000000000E+00  0.00000000000E+00  0.17504267524E+03  0.17504267524E+03  0.00000000000E+00 0. -1.
         21   -1    0    0  501  503 -0.00000000000E+00 -0.00000000000E+00 -0.42413175415E+03  0.42413175415E+03  0.00000000000E+00 0.  1.
          6    2    1    2  501    0  0.39819349467E+02  0.85150266586E+02 -0.33241706782E+03  0.38598698380E+03  0.17218796762E+03 0.  0.
         24    2    3    3    0    0  0.89255723567E+02  0.83838799640E+02 -0.21932743904E+03  0.26246763646E+03  0.76086833018E+02 0.  0.
         -6    2    1    2    0  502 -0.39819349467E+02 -0.85150266586E+02  0.83327988918E+02  0.21318744558E+03  0.17224745202E+03 0.  0.
        -24    2    5    5    0    0  0.39770774166E+02 -0.71213791199E+02  0.47225395559E+02  0.12456295476E+03  0.81440611361E+02 0.  0.
          5    1    3    3  501    0 -0.49436374100E+02  0.13114669459E+01 -0.11308962878E+03  0.12351934734E+03  0.47000000000E+01 0. -1.
        -11    1    4    4    0    0 -0.42485969108E+01  0.31776192195E+02 -0.25135261402E+02  0.40737677055E+02  0.00000000000E+00 0.  1.
         12    1    4    4    0    0  0.93504320477E+02  0.52062607445E+02 -0.19419217764E+03  0.22172995941E+03  0.00000000000E+00 0. -1.
         -5    1    5    5    0  502 -0.79590123633E+02 -0.13936475386E+02  0.36102593359E+02  0.88624490821E+02  0.47000000000E+01 0.  1.
         11    1    6    6    0    0  0.78607239881E+01 -0.29538026564E+02  0.62773141967E+02  0.69819433880E+02  0.00000000000E+00 0. -1.
        -12    1    6    6    0    0  0.31910050178E+02 -0.41675764635E+02 -0.15547746408E+02  0.54743520883E+02  0.00000000000E+00 0.  1.
</event>
<event>
12    1  0.8331241E-002  0.2282394E+03  0.7818608E-02  0.1127933E+00
         21   -1    0    0  501  502  0.00000000000E+00  0.00000000000E+00  0.29035817331E+03  0.29035817331E+03  0.00000000000E+00 0. -1.
         21   -1    0    0  502  503 -0.00000000000E+00 -0.00000000000E+00 -0.19767794206E+03  0.19767794206E+03  0.00000000000E+00 0. -1.
         -6    2    1    2    0  503 -0.57644424676E+02 -0.13841020105E+03 -0.28240507951E+02  0.22997992872E+03  0.17208421738E+03 0.  0.
        -24    2    3    3    0    0 -0.27823900657E+02 -0.79300846477E+02 -0.84806277068E+02  0.14277353167E+03  0.78290376256E+02 0.  0.
          6    2    1    2  501    0  0.57644424676E+02  0.13841020105E+03  0.12092073920E+03  0.25805618665E+03  0.17172916714E+03 0.  0.
         24    2    5    5    0    0  0.67862752068E+02  0.27618725858E+02  0.27455483085E+02  0.11267046077E+03  0.81072079297E+02 0.  0.
          5    1    5    5  501    0 -0.10218327391E+02  0.11079147519E+03  0.93465256113E+02  0.14538572588E+03  0.47000000000E+01 0. -1.
        -11    1    6    6    0    0  0.98594754166E+01 -0.12303598082E+02 -0.21680347359E+02  0.26807186403E+02  0.00000000000E+00 0.  1.
         12    1    6    6    0    0  0.58003276651E+02  0.39922323940E+02  0.49135830444E+02  0.85863274363E+02  0.00000000000E+00 0. -1.
         -5    1    3    3    0  503 -0.29820524020E+02 -0.59109354573E+02  0.56565769116E+02  0.87206397051E+02  0.47000000000E+01 0.  1.
         13    1    4    4    0    0 -0.29509697608E+02 -0.75218999030E+02 -0.27581103326E+02  0.85378201718E+02  0.00000000000E+00 0. -1.
        -14    1    4    4    0    0  0.16857969510E+01 -0.40818474471E+01 -0.57225173742E+02  0.57395329947E+02  0.00000000000E+00 0.  1.
</event>
<event>
12    1  0.8331241E-002  0.3340274E+03  0.7818608E-02  0.1069402E+00
         21   -1    0    0  503  502  0.00000000000E+00  0.00000000000E+00  0.27094651004E+03  0.27094651004E+03  0.00000000000E+00 0.  1.
         21   -1    0    0  501  503 -0.00000000000E+00 -0.00000000000E+00 -0.62004131438E+03  0.62004131438E+03  0.00000000000E+00 0.  1.
          6    2    1    2  501    0  0.13879951394E+03  0.25068333524E+03 -0.43301338511E+03  0.54687743362E+03  0.17165924407E+03 0.  0.
         24    2    3    3    0    0  0.27759331145E+02  0.17052629461E+03 -0.19564071096E+03  0.27279177221E+03  0.79311194538E+02 0.  0.
         -6    2    1    2    0  502 -0.13879951394E+03 -0.25068333524E+03  0.83918580771E+02  0.34411039079E+03  0.17106195724E+03 0.  0.
        -24    2    5    5    0    0 -0.17049377788E+03 -0.21096256980E+03  0.71013422785E+02  0.29147106446E+03  0.79618722991E+02 0.  0.
          5    1    3    3  501    0  0.11104018279E+03  0.80157040633E+02 -0.23737267415E+03  0.27408566141E+03  0.47000000000E+01 0. -1.
        -13    1    4    4    0    0  0.35622000698E+02  0.11890435241E+03 -0.17930910443E+03  0.21808009283E+03  0.00000000000E+00 0.  1.
         14    1    4    4    0    0 -0.78626695536E+01  0.51621942198E+02 -0.16331606536E+02  0.54711679382E+02  0.00000000000E+00 0. -1.
         -5    1    5    5    0  502  0.31694263940E+02 -0.39720765445E+02  0.12905157986E+02  0.52639326334E+02  0.47000000000E+01 0.  1.
         11    1    6    6    0    0 -0.21703376681E+01 -0.93015669143E+01 -0.12595540057E+02  0.15807502712E+02  0.00000000000E+00 0. -1.
        -12    1    6    6    0    0 -0.16832344021E+03 -0.20166100288E+03  0.83608962842E+02  0.27566356175E+03  0.00000000000E+00 0.  1.
</event>
<event>
12    1  0.8331241E-002  0.2368917E+03  0.7818608E-02  0.1122235E+00
         21   -1    0    0  503  502  0.00000000000E+00  0.00000000000E+00  0.49374684430E+03  0.49374684430E+03  0.00000000000E+00 0.  1.
         21   -1    0    0  501  503 -0.00000000000E+00 -0.00000000000E+00 -0.17303538824E+03  0.17303538824E+03  0.00000000000E+00 0.  1.
          6    2    1    2  501    0 -0.15936019116E+03 -0.18337209300E+02  0.35774600650E+03  0.42906864715E+03  0.17431516005E+03 0.  0.
         24    2    3    3    0    0 -0.14620847227E+03 -0.12484146626E+02  0.37250902944E+03  0.40792005621E+03  0.78121853280E+02 0.  0.
         -6    2    1    2    0  502  0.15936019116E+03  0.18337209300E+02 -0.37034550445E+02  0.23771358540E+03  0.17147672432E+03 0.  0.
        -24    2    5    5    0    0  0.16359906997E+03  0.46962072756E+02  0.27541275109E+01  0.18829112294E+03  0.80472789123E+02 0.  0.
          5    1    3    3  501    0 -0.13151718887E+02 -0.58530626732E+01 -0.14763022940E+02  0.21148590938E+02  0.47000000000E+01 0. -1.
        -11    1    4    4    0    0 -0.32341324407E+02  0.29260938284E+02  0.77024861795E+02  0.88515496430E+02  0.00000000000E+00 0.  1.
         12    1    4    4    0    0 -0.11386714786E+03 -0.41745084911E+02  0.29548416765E+03  0.31940455978E+03  0.00000000000E+00 0. -1.
         -5    1    5    5    0  502 -0.42388788106E+01 -0.28624863456E+02 -0.39788677955E+02  0.49422462453E+02  0.47000000000E+01 0.  1.
         11    1    6    6    0    0  0.74663625455E+00  0.20876349945E+02  0.10091623425E+02  0.23199575773E+02  0.00000000000E+00 0. -1.
        -12    1    6    6    0    0  0.16285243371E+03  0.26085722811E+02 -0.73374959143E+01  0.16509154717E+03  0.00000000000E+00 0.  1.
</event>
<event>
12    1  0.8331241E-002  0.2136300E+03  0.7818608E-02  0.1138741E+00
         21   -1    0    0  501  502  0.00000000000E+00  0.00000000000E+00  0.19061005651E+03  0.19061005651E+03  0.00000000000E+00 0.  1.
         21   -1    0    0  502  503 -0.00000000000E+00 -0.00000000000E+00 -0.25185952407E+03  0.25185952407E+03  0.00000000000E+00 0. -1.
         -6    2    1    2    0  503 -0.91752713110E+02 -0.87016333428E+02 -0.79965985849E+02  0.22802127677E+03  0.17207190684E+03 0.  0.
        -24    2    3    3    0    0 -0.54329340244E+01 -0.64608641444E+02  0.77332545715E+01  0.10285556385E+03  0.79471192689E+02 0.  0.
          6    2    1    2  501    0  0.91752713110E+02  0.87016333428E+02  0.18716518298E+02  0.21444830381E+03  0.17218410003E+03 0.  0.
         24    2    5    5    0    0  0.49775145503E+02  0.99968849608E+02 -0.38727055711E+02  0.14197942736E+03  0.78657720213E+02 0.  0.
          5    1    5    5  501    0  0.41977567606E+02 -0.12952516180E+02  0.57443574010E+02  0.72468876440E+02  0.47000000000E+01 0. -1.
        -11    1    6    6    0    0  0.83291281563E+01 -0.84300609152E+01  0.10580666262E+02  0.15886812186E+02  0.00000000000E+00 0.  1.
         12    1    6    6    0    0  0.41446017347E+02  0.10839891052E+03 -0.49307721974E+02  0.12609261518E+03  0.00000000000E+00 0. -1.
         -5    1    3    3    0  503 -0.86319779085E+02 -0.22407691984E+02 -0.87699240421E+02  0.12516571292E+03  0.47000000000E+01 0.  1.
         13    1    4    4    0    0  0.24071954669E+02 -0.28380048689E+02 -0.25853497579E+02  0.45313237605E+02  0.00000000000E+00 0. -1.
        -14    1    4    4    0    0 -0.29504888693E+02 -0.36228592755E+02  0.33586752150E+02  0.57542326246E+02  0.00000000000E+00 0.  1.
</event>
<event>
12    1  0.8331241E-002  0.1801434E+03  0.7818608E-02  0.1167674E+00
         21   -1    0    0  501  502  0.00000000000E+00  0.00000000000E+00  0.37429801631E+03  0.37429801631E+03  0.00000000000E+00 0. -1.
         21   -1    0    0  502  503 -0.00000000000E+00 -0.00000000000E+00 -0.15673986812E+03  0.15673986812E+03  0.00000000000E+00 0. -1.
         -6    2    1    2    0  503 -0.31871089495E+02  0.42151460675E+02 -0.68743450001E+02  0.19277726784E+03  0.17217694705E+03 0.  0.
        -24    2    3    3    0    0  0.47576104898E+02  0.29132700104E+02 -0.44712260188E+02  0.10862898855E+03  0.81785518089E+02 0.  0.
          6    2    1    2  501    0  0.31871089495E+02 -0.42151460675E+02  0.28630159820E+03  0.33826061659E+03  0.17221825579E+03 0.  0.
         24    2    5    5    0    0  0.31729546697E+01 -0.49177087077E+01  0.41550345747E+02  0.88991282734E+02  0.78477803682E+02 0.  0.
          5    1    5    5  501    0  0.28698134825E+02 -0.37233751967E+02  0.24475125245E+03  0.24926933386E+03  0.47000000000E+01 0. -1.
        -11    1    6    6    0    0 -0.22244422800E+02  0.28311762674E+02  0.25774703620E+02  0.44279855444E+02  0.00000000000E+00 0.  1.
         12    1    6    6    0    0  0.25417377470E+02 -0.33229471382E+02  0.15775642127E+02  0.44711427290E+02  0.00000000000E+00 0. -1.
         -5    1    3    3    0  503 -0.79447194392E+02  0.13018760570E+02 -0.24031189813E+02  0.84148279290E+02  0.47000000000E+01 0.  1.
         13    1    4    4    0    0  0.51280564859E+02  0.48962512154E+02 -0.14607988367E+02  0.72390726290E+02  0.00000000000E+00 0. -1.
        -14    1    4    4    0    0 -0.37044599616E+01 -0.19829812049E+02 -0.30104271821E+02  0.36238262257E+02  0.00000000000E+00 0.  1.
</event>
<event>
12    1  0.8331241E-002  0.2189787E+03  0.7818608E-02  0.1134660E+00
         21   -1    0    0  501  502  0.00000000000E+00  0.00000000000E+00  0.18152320228E+03  0.18152320228E+03  0.00000000000E+00 0. -1.
         21   -1    0    0  502  503 -0.00000000000E+00 -0.00000000000E+00 -0.26542592172E+03  0.26542592172E+03  0.00000000000E+00 0.  1.
         -6    2    1    2    0  503  0.86872647267E+02  0.10510664140E+03 -0.57893608283E+02  0.22650240079E+03  0.17134002677E+03 0.  0.
        -24    2    3    3    0    0  0.39887659558E+02  0.13313869638E+03 -0.23328138286E+02  0.16161598547E+03  0.79111230954E+02 0.  0.
          6    2    1    2  501    0 -0.86872647267E+02 -0.10510664140E+03 -0.26009111159E+02  0.22044672322E+03  0.17124841899E+03 0.  0.
         24    2    5    5    0    0 -0.99953953940E+02 -0.13372242047E+03 -0.28775881650E+02  0.18851353648E+03  0.82685085890E+02 0.  0.
          5    1    5    5  501    0  0.13081306673E+02  0.28615779071E+02  0.27667704914E+01  0.31933186735E+02  0.47000000000E+01 0. -1.
        -11    1    6    6    0    0 -0.15639430821E+01 -0.10200027014E+02 -0.28801836296E+02  0.30594644026E+02  0.00000000000E+00 0.  1.
         12    1    6    6    0    0 -0.98390010857E+02 -0.12352239346E+03  0.25954645953E-01  0.15791889246E+03  0.00000000000E+00 0. -1.
         -5    1    3    3    0  503  0.46984987709E+02 -0.28032054986E+02 -0.34565469997E+02  0.64886415318E+02  0.47000000000E+01 0.  1.
         11    1    4    4    0    0  0.48942485677E+02  0.10858647332E+03 -0.45316076022E+02  0.12743600684E+03  0.00000000000E+00 0. -1.
        -12    1    4    4    0    0 -0.90548261193E+01  0.24552223065E+02  0.21987937735E+02  0.34179978633E+02  0.00000000000E+00 0.  1.
</event>
<event>
12    1  0.8331241E-002  0.2509349E+03  0.7818608E-02  0.1112888E+00
         21   -1    0    0  501  502  0.00000000000E+00  0.00000000000E+00  0.33033161296E+03  0.33033161296E+03  0.00000000000E+00 0. -1.
         21   -1    0    0  502  503 -0.00000000000E+00 -0.00000000000E+00 -0.19858309597E+03  0.19858309597E+03  0.00000000000E+00 0.  1.
         -6    2    1    2    0  503 -0.17098962062E+03  0.58060698399E+02  0.12166246398E+03  0.27887285208E+03  0.17424068821E+03 0.  0.
        -24    2    3    3    0    0 -0.13682048913E+03  0.45503119555E+02  0.15965615983E+03  0.22604451444E+03  0.69394906172E+02 0.  0.
          6    2    1    2  501    0  0.17098962062E+03 -0.58060698399E+02  0.10086053013E+02  0.25004185684E+03  0.17265777321E+03 0.  0.
         24    2    5    5    0    0  0.15376364379E+03 -0.20905599057E+02 -0.46882609088E+02  0.17972291099E+03  0.77601826495E+02 0.  0.
          5    1    5    5  501    0  0.17225976835E+02 -0.37155099342E+02  0.56968662102E+02  0.70318945859E+02  0.47000000000E+01 0. -1.
        -11    1    6    6    0    0  0.14484081314E+03 -0.39479648741E+02 -0.30020983812E+02  0.15309723474E+03  0.00000000000E+00 0.  1.
         12    1    6    6    0    0  0.89228306428E+01  0.18574049685E+02 -0.16861625276E+02  0.26625676241E+02  0.00000000000E+00 0. -1.
         -5    1    3    3    0  503 -0.34169131491E+02  0.12557578844E+02 -0.37993695851E+02  0.52828337639E+02  0.47000000000E+01 0.  1.
         11    1    4    4    0    0 -0.11158296134E+02  0.29739001330E+02  0.20098699990E+02  0.37588209774E+02  0.00000000000E+00 0. -1.
        -12    1    4    4    0    0 -0.12566219300E+03  0.15764118224E+02  0.13955745984E+03  0.18845630467E+03  0.00000000000E+00 0.  1.
</event>
<event>
12    1  0.8331241E-002  0.1764384E+03  0.7818608E-02  0.1171297E+00
         21   -1    0    0  503  502  0.00000000000E+00  0.00000000000E+00  0.94152669995E+02  0.94152669995E+02  0.00000000000E+00 0.  1.
         21   -1    0    0  501  503 -0.00000000000E+00 -0.00000000000E+00 -0.34439045208E+03  0.34439045208E+03  0.00000000000E+00 0.  1.
          6    2    1    2  501    0 -0.36943224039E+02  0.15308504526E+02 -0.81271925159E+02  0.19424824622E+03  0.17183743255E+03 0.  0.
         24    2    3    3    0    0 -0.10703663524E+02  0.53903594725E+01 -0.12181350540E+03  0.14472457646E+03  0.77220777930E+02 0.  0.
         -6    2    1    2    0  502  0.36943224039E+02 -0.15308504526E+02 -0.16896585692E+03  0.24429487586E+03  0.17184694775E+03 0.  0.
        -24    2    5    5    0    0 -0.73677850709E+01  0.26325122363E+02 -0.26724084515E+02  0.89531714110E+02  0.80959587536E+02 0.  0.
          5    1    3    3  501    0 -0.26239560515E+02  0.99181450531E+01  0.40541580246E+02  0.49523669756E+02  0.47000000000E+01 0. -1.
        -13    1    4    4    0    0  0.27678364566E+01 -0.33974278559E+02 -0.73132908238E+02  0.80686645671E+02  0.00000000000E+00 0.  1.
         14    1    4    4    0    0 -0.13471499981E+02  0.39364638032E+02 -0.48680597167E+02  0.64037930788E+02  0.00000000000E+00 0. -1.
         -5    1    5    5    0  502  0.44311009110E+02 -0.41633626888E+02 -0.14224177241E+03  0.15476316175E+03  0.47000000000E+01 0.  1.
         11    1    6    6    0    0  0.30469154312E+02 -0.74181274176E+01 -0.22624536144E+02  0.38668690366E+02  0.00000000000E+00 0. -1.
        -12    1    6    6    0    0 -0.37836939383E+02  0.33743249780E+02 -0.40995483708E+01  0.50863023744E+02  0.00000000000E+00 0.  1.
</event>
<event>
12    1  0.8331241E-002  0.1998284E+03  0.7818608E-02  0.1150248E+00
         21   -1    0    0  501  502  0.00000000000E+00  0.00000000000E+00  0.81885168987E+02  0.81885168987E+02  0.00000000000E+00 0.  1.
         21   -1    0    0  502  503 -0.00000000000E+00 -0.00000000000E+00 -0.70179005174E+03  0.70179005174E+03  0.00000000000E+00 0. -1.
         -6    2    1    2    0  503  0.58074210912E+01  0.99885090725E+02 -0.52942293407E+03  0.56587986006E+03  0.17297576539E+03 0.  0.
        -24    2    3    3    0    0 -0.58921544900E+02  0.59133026782E+02 -0.37806710854E+03  0.39622949703E+03  0.84229522420E+02 0.  0.
          6    2    1    2  501    0 -0.58074210912E+01 -0.99885090725E+02 -0.90481948679E+02  0.21779536066E+03  0.17098853354E+03 0.  0.
         24    2    5    5    0    0 -0.31049198965E+02 -0.63397377464E+02 -0.12295507550E+03  0.16261298545E+03  0.79635119250E+02 0.  0.
          5    1    5    5  501    0  0.25241777873E+02 -0.36487713260E+02  0.32473126823E+02  0.55182375219E+02  0.47000000000E+01 0. -1.
        -11    1    6    6    0    0  0.18536269090E+02 -0.13775383109E+01 -0.31048435126E+01  0.18844918063E+02  0.00000000000E+00 0.  1.
         12    1    6    6    0    0 -0.49585468055E+02 -0.62019839153E+02 -0.11985023199E+03  0.14376806738E+03  0.00000000000E+00 0. -1.
         -5    1    3    3    0  503  0.64728965991E+02  0.40752063942E+02 -0.15135582552E+03  0.16965036302E+03  0.47000000000E+01 0.  1.
         13    1    4    4    0    0 -0.40653906201E+01  0.52082282902E+02 -0.26804417394E+03  0.27308747825E+03  0.00000000000E+00 0. -1.
        -14    1    4    4    0    0 -0.54856154280E+02  0.70507438805E+01 -0.11002293461E+03  0.12314201879E+03  0.00000000000E+00 0.  1.
</event>
<event>
12    1  0.8331241E-002  0.1844020E+03  0.7818608E-02  0.1163805E+00
         21   -1    0    0  503  502  0.00000000000E+00  0.00000000000E+00  0.43676957950E+03  0.43676957950E+03  0.00000000000E+00 0. -1.
         21   -1    0    0  501  503 -0.00000000000E+00 -0.00000000000E+00 -0.12943310326E+03  0.12943310326E+03  0.00000000000E+00 0. -1.
          6    2    1    2  501    0 -0.35793346651E+02 -0.53530994549E+02 -0.25443638133E+02  0.18614909691E+03  0.17279287172E+03 0.  0.
         24    2    3    3    0    0 -0.46302257012E+02 -0.50464790167E+02 -0.79064973112E+02  0.13122026686E+03  0.79226854095E+02 0.  0.
         -6    2    1    2    0  502  0.35793346651E+02  0.53530994549E+02  0.33278011437E+03  0.38005358584E+03  0.17190518476E+03 0.  0.
        -24    2    5    5    0    0  0.37790798980E+02 -0.22051048592E+02  0.24185620470E+03  0.26170713506E+03  0.89898874076E+02 0.  0.
          5    1    3    3  501    0  0.10508910361E+02 -0.30662043825E+01  0.53621334979E+02  0.54928830055E+02  0.47000000000E+01 0. -1.
        -11    1    4    4    0    0 -0.19366897449E+02  0.15951499987E+02 -0.80798926686E+00  0.25103384538E+02  0.00000000000E+00 0.  1.
         12    1    4    4    0    0 -0.26935359563E+02 -0.66416290153E+02 -0.78256983845E+02  0.10611688232E+03  0.00000000000E+00 0. -1.
         -5    1    5    5    0  502 -0.19974523286E+01  0.75582043141E+02  0.90923909676E+02  0.11834645078E+03  0.47000000000E+01 0.  1.
         13    1    6    6    0    0  0.25247425844E+02  0.22186457084E+02  0.18760110280E+03  0.19058815588E+03  0.00000000000E+00 0. -1.
        -14    1    6    6    0    0  0.12543373135E+02 -0.44237505676E+02  0.54255101895E+02  0.71118979181E+02  0.00000000000E+00 0.  1.
</event>
<event>
12    1  0.8331241E-002  0.1868685E+03  0.7818608E-02  0.1161400E+00
         21   -1    0    0  503  502  0.00000000000E+00  0.00000000000E+00  0.27323401274E+03  0.27323401274E+03  0.00000000000E+00 0. -1.
         21   -1    0    0  501  503 -0.00000000000E+00 -0.00000000000E+00 -0.29843416431E+03  0.29843416431E+03  0.00000000000E+00 0. -1.
          6    2    1    2  501    0  0.60550207264E+02  0.34548919613E+02 -0.22889559440E+03  0.29548778938E+03  0.17337786794E+03 0.  0.
         24    2    3    3    0    0  0.32894587805E+02 -0.38216792312E+02 -0.11396521119E+03  0.15659659058E+03  0.94825343118E+02 0.  0.
         -6    2    1    2    0  502 -0.60550207264E+02 -0.34548919613E+02  0.20369544283E+03  0.27618038766E+03  0.17298502147E+03 0.  0.
        -24    2    5    5    0    0 -0.28608912780E+02 -0.87692158605E+02  0.11656567918E+03  0.16913770526E+03  0.80694616950E+02 0.  0.
          5    1    3    3  501    0  0.27655619459E+02  0.72765711925E+02 -0.11493038321E+03  0.13889119880E+03  0.47000000000E+01 0. -1.
        -13    1    4    4    0    0 -0.28886409703E+02 -0.35162832332E+02 -0.50297728479E+02  0.67828540698E+02  0.00000000000E+00 0.  1.
         14    1    4    4    0    0  0.61780997507E+02 -0.30539599800E+01 -0.63667482711E+02  0.88768049879E+02  0.00000000000E+00 0. -1.
         -5    1    5    5    0  502 -0.31941294484E+02  0.53143238992E+02  0.87129763648E+02  0.10704268241E+03  0.47000000000E+01 0.  1.
         11    1    6    6    0    0 -0.32840662752E+02 -0.17292297011E+02  0.54267200379E+01  0.37509758148E+02  0.00000000000E+00 0. -1.
        -12    1    6    6    0    0  0.42317499725E+01 -0.70399861594E+02  0.11113895914E+03  0.13162794711E+03  0.00000000000E+00 0.  1.
</event>
<event>
12    1  0.8331241E-002  0.1924934E+03  0.7818608E-02  0.1156254E+00
         21   -1    0    0  503  502  0.00000000000E+00  0.00000000000E+00  0.14323164116E+04  0.14323164116E+04  0.00000000000E+00 0.  1.
         21   -1    0    0  501  503 -0.00000000000E+00 -0.00000000000E+00 -0.73902373087E+02  0.73902373087E+02  0.00000000000E+00 0. -1.
          6    2    1    2  501    0  0.81633009197E+02  0.29348251330E+02  0.71907819146E+02  0.20539137556E+03  0.17172540479E+03 0.  0.
         24    2    3    3    0    0  0.10008567013E+03  0.19897825222E+02  0.10594158055E+03  0.16526410099E+03  0.75336178368E+02 0.  0.
         -6    2    1    2    0  502 -0.81633009197E+02 -0.29348251330E+02  0.12865062193E+04  0.13008274091E+04  0.17183837705E+03 0.  0.
        -24    2    5    5    0    0  0.93268387766E+01  0.25441846725E+02  0.65123752038E+03  0.65672799234E+03  0.80293651644E+02 0.  0.
          5    1    3    3  501    0 -0.18452660938E+02  0.94504261081E+01 -0.34033761401E+02  0.40127274570E+02  0.47000000000E+01 0. -1.
        -13    1    4    4    0    0  0.73350880067E+02 -0.20653407519E+02  0.78821191279E+02  0.10963436981E+03  0.00000000000E+00 0.  1.
         14    1    4    4    0    0  0.26734790068E+02  0.40551232741E+02  0.27120389268E+02  0.55629731177E+02  0.00000000000E+00 0. -1.
         -5    1    5    5    0  502 -0.90959847974E+02 -0.54790098055E+02  0.63526869895E+03  0.64409941674E+03  0.47000000000E+01 0.  1.
         13    1    6    6    0    0 -0.24027363942E+02  0.34353847479E+02  0.49241738258E+03  0.49419872493E+03  0.00000000000E+00 0. -1.
        -14    1    6    6    0    0  0.33354202718E+02 -0.89120007540E+01  0.15882013780E+03  0.16252926742E+03  0.00000000000E+00 0.  1.
</event>
<event>
12    1  0.8331241E-002  0.2067860E+03  0.7818608E-02  0.1144252E+00
         21   -1    0    0  503  502  0.00000000000E+00  0.00000000000E+00  0.93727582371E+02  0.93727582371E+02  0.00000000000E+00 0.  1.
         21   -1    0    0  501  503 -0.00000000000E+00 -0.00000000000E+00 -0.46283343434E+03  0.46283343434E+03  0.00000000000E+00 0. -1.
          6    2    1    2  501    0  0.38536275028E+02 -0.10626628633E+03 -0.14800994871E+03  0.25383364927E+03  0.17247321092E+03 0.  0.
         24    2    3    3    0    0 -0.25234818100E+02 -0.30227520116E+02 -0.12243835704E+03  0.15124396857E+03  0.79580699540E+02 0.  0.
         -6    2    1    2    0  502 -0.38536275028E+02  0.10626628633E+03 -0.22109590326E+03  0.30272736743E+03  0.17315568848E+03 0.  0.
        -24    2    5    5    0    0  0.25223787571E+02  0.75704846866E+01 -0.63818665345E+02  0.10634909366E+03  0.80893485391E+02 0.  0.
          5    1    3    3  501    0  0.63771093128E+02 -0.76038766211E+02 -0.25571591673E+02  0.10258968070E+03  0.47000000000E+01 0. -1.
        -11    1    4    4    0    0  0.51860529579E+01  0.24988574976E+02 -0.40311971925E+02  0.47711414830E+02  0.00000000000E+00 0.  1.
         12    1    4    4    0    0 -0.30420871058E+02 -0.55216095092E+02 -0.82126385111E+02  0.10353255374E+03  0.00000000000E+00 0. -1.
         -5    1    5    5    0  502 -0.63760062599E+02  0.98695801641E+02 -0.15727723791E+03  0.19637827377E+03  0.47000000000E+01 0.  1.
         13    1    6    6    0    0  0.13723468527E+02  0.57056308717E+01 -0.82775038491E+02  0.84098720616E+02  0.00000000000E+00 0. -1.
        -14    1    6    6    0    0  0.11500319043E+02  0.18648538149E+01  0.18956373146E+02  0.22250373047E+02  0.00000000000E+00 0.  1.
</event>
<event>
12    1  0.8331241E-002  0.1931300E+03  0.7818608E-02  0.1156787E+00
         21   -1    0    0  503  502  0.00000000000E+00  0.00000000000E+00  0.91290287875E+02  0.91290287875E+02  0.00000000000E+00 0. -1.
         21   -1    0    0  501  503 -0.00000000000E+00 -0.00000000000E+00 -0.47594885454E+03  0.47594885454E+03  0.00000000000E+00 0. -1.
          6    2    1    2  501    0  0.83616710997E+02 -0.20295745411E+02 -0.30493677220E+03  0.35830194926E+03  0.16730266035E+03 0.  0.
         24    2    3    3    0    0  0.33864750883E+01  0.18366605040E+02 -0.73091700612E+02  0.10989523575E+03  0.79910986399E+02 0.  0.
         -6    2    1    2    0  502 -0.83616710997E+02  0.20295745411E+02 -0.79721794466E+02  0.20893719316E+03  0.17290319411E+03 0.  0.
        -24    2    5    5    0    0 -0.83404222260E+02 -0.25313969108E+02  0.51628741152E+01  0.11246031422E+03  0.70877398954E+02 0.  0.
          5    1    3    3  501    0  0.80230235908E+02 -0.38662350452E+02 -0.23184507159E+03  0.24840671351E+03  0.47000000000E+01 0. -1.
        -13    1    4    4    0    0  0.21822274756E+02  0.35952206695E+02 -0.12048801147E+02  0.43748673704E+02  0.00000000000E+00 0.  1.
         14    1    4    4    0    0 -0.18435799668E+02 -0.17585601655E+02 -0.61042899465E+02  0.66146562043E+02  0.00000000000E+00 0. -1.
         -5    1    5    5    0  502 -0.21248873636E+00  0.45609714519E+02 -0.84884668581E+02  0.96476878941E+02  0.47000000000E+01 0.  1.
         13    1    6    6    0    0 -0.58064115179E+02 -0.27206736253E+02 -0.28593674326E+02  0.70208590504E+02  0.00000000000E+00 0. -1.
        -14    1    6    6    0    0 -0.25340107081E+02  0.18927671454E+01  0.33756548441E+02  0.42251723716E+02  0.00000000000E+00 0.  1.
</event>
<event>
12    1  0.8331241E-002  0.3324122E+03  0.7818608E-02  0.1070427E+00
         21   -1    0    0  503  502  0.00000000000E+00  0.00000000000E+00  0.93344668028E+02  0.93344668028E+02  0.00000000000E+00 0. -1.
         21   -1    0    0  501  503 -0.00000000000E+00 -0.00000000000E+00 -0.13065440567E+04  0.13065440567E+04  0.00000000000E+00 0.  1.
          6    2    1    2  501    0  0.53988851188E+02 -0.27727450135E+03 -0.83350950009E+03  0.89734941120E+03  0.17521967323E+03 0.  0.
         24    2    3    3    0    0 -0.32911666474E+02 -0.10994937233E+03 -0.29374348096E+03  0.32558123774E+03  0.80906535563E+02 0.  0.
         -6    2    1    2    0  502 -0.53988851188E+02  0.27727450135E+03 -0.37968988860E+03  0.50253931355E+03  0.16907218873E+03 0.  0.
        -24    2    5    5    0    0 -0.27030108848E+02  0.90117478533E+02 -0.23310359278E+03  0.26324000911E+03  0.78142374618E+02 0.  0.
          5    1    3    3  501    0  0.86900517662E+02 -0.16732512902E+03 -0.53976601913E+03  0.57176817346E+03  0.47000000000E+01 0. -1.
        -13    1    4    4    0    0 -0.20087514711E+01 -0.65026107287E+02 -0.24134330634E+03  0.24995803894E+03  0.00000000000E+00 0.  1.
         14    1    4    4    0    0 -0.30902915003E+02 -0.44923265045E+02 -0.52400174618E+02  0.75623198809E+02  0.00000000000E+00 0. -1.
         -5    1    5    5    0  502 -0.26958742340E+02  0.18715702282E+03 -0.14658629582E+03  0.23929930443E+03  0.47000000000E+01 0.  1.
         13    1    6    6    0    0  0.19926806995E+01 -0.13653456577E+02 -0.36893658372E+02  0.39389461547E+02  0.00000000000E+00 0. -1.
        -14    1    6    6    0    0 -0.29022789548E+02  0.10377093511E+03 -0.19620993441E+03  0.22385054757E+03  0.00000000000E+00 0.  1.
</event>
<event>
12    1  0.8331241E-002  0.2391574E+03  0.7818608E-02  0.1120519E+00
         21   -1    0    0  503  502  0.00000000000E+00  0.00000000000E+00  0.98664552741E+03  0.98664552741E+03  0.00000000000E+00 0.  1.
         21   -1    0    0  501  503 -0.00000000000E+00 -0.00000000000E+00 -0.64240272778E+02  0.64240272778E+02  0.00000000000E+00 0. -1.
          6    2    1    2  501    0 -0.18091665502E+01 -0.16621365559E+03  0.29314143539E+03  0.37770734765E+03  0.17058923454E+03 0.  0.
         24    2    3    3    0    0 -0.35860260539E+02 -0.36249851183E+02  0.70465983605E+02  0.11759868904E+03  0.79145352497E+02 0.  0.
         -6    2    1    2    0  502  0.18091665502E+01  0.16621365559E+03  0.62926381925E+03  0.67317845254E+03  0.17194773147E+03 0.  0.
        -24    2    5    5    0    0 -0.13139749808E+02  0.11084703158E+03  0.20747612419E+03  0.24748386383E+03  0.75777327153E+02 0.  0.
          5    1    3    3  501    0  0.34051093988E+02 -0.12996380441E+03  0.22267545178E+03  0.26010865861E+03  0.47000000000E+01 0. -1.
        -11    1    4    4    0    0 -0.49789937183E+02 -0.36273293071E+02  0.79814825249E+02  0.10082259650E+03  0.00000000000E+00 0.  1.
         12    1    4    4    0    0  0.13929676644E+02  0.23441888419E-01 -0.93488416443E+01  0.16776092543E+02  0.00000000000E+00 0. -1.
         -5    1    5    5    0  502  0.14948916358E+02  0.55366624015E+02  0.42178769506E+03  0.42569458871E+03  0.47000000000E+01 0.  1.
         13    1    6    6    0    0  0.13668918796E+02  0.37667911913E+01  0.21144985054E+01  0.14335241918E+02  0.00000000000E+00 0. -1.
        -14    1    6    6    0    0 -0.26808668603E+02  0.10708024039E+03  0.20536162568E+03  0.23314862191E+03  0.00000000000E+00 0.  1.
</event>
<event>
12    1  0.8331241E-002  0.2978469E+03  0.7818608E-02  0.1086362E+00
         21   -1    0    0  501  502  0.00000000000E+00  0.00000000000E+00  0.99355579476E+03  0.99355579476E+03  0.00000000000E+00 0. -1.
         21   -1    0    0  502  503 -0.00000000000E+00 -0.00000000000E+00 -0.14427954688E+03  0.14427954688E+03  0.00000000000E+00 0. -1.
         -6    2    1    2    0  503 -0.22490777058E+03 -0.92977306159E+02  0.72967182996E+02  0.30634960353E+03  0.17116537343E+03 0.  0.
        -24    2    3    3    0    0 -0.14794318542E+03  0.12108148338E+02  0.29740415363E+02  0.16902828852E+03  0.75181624396E+02 0.  0.
          6    2    1    2  501    0  0.22490777058E+03  0.92977306159E+02  0.77630906488E+03  0.83148573812E+03  0.17171046487E+03 0.  0.
         24    2    5    5    0    0  0.35639110571E+02  0.11344209682E+01  0.25234766670E+03  0.26684835181E+03  0.79102875205E+02 0.  0.
          5    1    5    5  501    0  0.18926866001E+03  0.91842885191E+02  0.52396139819E+03  0.56463738630E+03  0.47000000000E+01 0. -1.
        -13    1    6    6    0    0  0.27492990046E+02  0.16964476356E+02  0.24574649783E+03  0.24786084635E+03  0.00000000000E+00 0.  1.
         14    1    6    6    0    0  0.81461205251E+01 -0.15830055388E+02  0.66011688661E+01  0.18987505460E+02  0.00000000000E+00 0. -1.
         -5    1    3    3    0  503 -0.76964585163E+02 -0.10508545450E+03  0.43226767633E+02  0.13732131501E+03  0.47000000000E+01 0.  1.
         11    1    4    4    0    0 -0.63916231480E+02 -0.31979145173E+02  0.14388146748E+02  0.72903834875E+02  0.00000000000E+00 0. -1.
        -12    1    4    4    0    0 -0.84026953936E+02  0.44087293511E+02  0.15352268615E+02  0.96124453645E+02  0.00000000000E+00 0.  1.
</event>
<event>
12    1  0.8331241E-002  0.3345299E+03  0.7818608E-02  0.1069809E+00
         21   -1    0    0  501  502  0.00000000000E+00  0.00000000000E+00  0.97368118351E+03  0.97368118351E+03  0.00000000000E+00 0. -1.
         21   -1    0    0  502  503 -0.00000000000E+00 -0.00000000000E+00 -0.16587199020E+03  0.16587199020E+03  0.00000000000E+00 0.  1.
         -6    2    1    2    0  503  0.14735160118E+03 -0.24166085143E+03  0.84359060197E+02  0.34500249059E+03  0.17831939320E+03 0.  0.
        -24    2    3    3    0    0 -0.65703964079E+00 -0.88168235330E+02  0.11405398068E+02  0.11958982951E+03  0.79984841037E+02 0.  0.
          6    2    1    2  501    0 -0.14735160118E+03  0.24166085143E+03  0.72345013311E+03  0.79455068312E+03  0.16678798355E+03 0.  0.
         24    2    5    5    0    0 -0.12703239941E+03  0.12196830972E+03  0.32713954345E+03  0.38003488368E+03  0.79954567422E+02 0.  0.
          5    1    5    5  501    0 -0.20319201772E+02  0.11969254171E+03  0.39631058967E+03  0.41451579944E+03  0.47000000000E+01 0. -1.
        -11    1    6    6    0    0  0.88374816785E+01  0.17495784915E+01  0.35053957234E+02  0.36193121240E+02  0.00000000000E+00 0.  1.
         12    1    6    6    0    0 -0.13586988109E+03  0.12021873123E+03  0.29208558621E+03  0.34384176244E+03  0.00000000000E+00 0. -1.
         -5    1    3    3    0  503  0.14800864082E+03 -0.15349261610E+03  0.72953662130E+02  0.22541266107E+03  0.47000000000E+01 0.  1.
         13    1    4    4    0    0  0.25157630941E+02 -0.24298188780E+02 -0.23721637580E+02  0.42261382633E+02  0.00000000000E+00 0. -1.
        -14    1    4    4    0    0 -0.25814670582E+02 -0.63870046549E+02  0.35127035648E+02  0.77328446880E+02  0.00000000000E+00 0.  1.
</event>
<event>
12    1  0.8331241E-002  0.2054759E+03  0.7818608E-02  0.1145832E+00
         21   -1    0    0  503  502  0.00000000000E+00  0.00000000000E+00  0.12570347200E+03  0.12570347200E+03  0.00000000000E+00 0.  1.
         21   -1    0    0  501  503 -0.00000000000E+00 -0.00000000000E+00 -0.33964784881E+03  0.33964784881E+03  0.00000000000E+00 0.  1.
          6    2    1    2  501    0  0.90438940076E+02 -0.60237924009E+02 -0.14362208979E+03  0.24817492794E+03  0.17075034646E+03 0.  0.
         24    2    3    3    0    0  0.10902665973E+03 -0.76407186932E+02 -0.70563661825E+02  0.17093133739E+03  0.80705767975E+02 0.  0.
         -6    2    1    2    0  502 -0.90438940076E+02  0.60237924009E+02 -0.70322287019E+02  0.21717639287E+03  0.17439194992E+03 0.  0.
        -24    2    5    5    0    0 -0.42238375701E+02 -0.82814754316E+01  0.21257185658E+02  0.92970546298E+02  0.79617782684E+02 0.  0.
          5    1    3    3  501    0 -0.18587719657E+02  0.16169262922E+02 -0.73058427961E+02  0.77243590554E+02  0.47000000000E+01 0. -1.
        -11    1    4    4    0    0  0.90698753545E+01 -0.49838236344E+02 -0.34951431227E+02  0.61544414740E+02  0.00000000000E+00 0.  1.
         12    1    4    4    0    0  0.99956784379E+02 -0.26568950587E+02 -0.35612230598E+02  0.10938692265E+03  0.00000000000E+00 0. -1.
         -5    1    5    5    0  502 -0.48200564375E+02  0.68519399441E+02 -0.91579472677E+02  0.12420584657E+03  0.47000000000E+01 0.  1.
         13    1    6    6    0    0 -0.81115730196E+01 -0.22673111005E+02 -0.24331662462E+02  0.34232986689E+02  0.00000000000E+00 0. -1.
        -14    1    6    6    0    0 -0.34126802682E+02  0.14391635573E+02  0.45588848121E+02  0.58737559608E+02  0.00000000000E+00 0.  1.
</event>
<event>
12    1  0.8331241E-002  0.1903055E+03  0.7818608E-02  0.1160176E+00
         21   -1    0    0  501  502  0.00000000000E+00  0.00000000000E+00  0.17972123997E+03  0.17972123997E+03  0.00000000000E+00 0.  1.
         21   -1    0    0  502  503 -0.00000000000E+00 -0.00000000000E+00 -0.25024133922E+03  0.25024133922E+03  0.00000000000E+00 0.  1.
         -6    2    1    2    0  503 -0.73512759697E+02  0.23329180912E+02  0.68632809597E+02  0.19420903858E+03  0.16449410808E+03 0.  0.
        -24    2    3    3    0    0 -0.60988115998E+02  0.26344727127E+02  0.11049789444E+03  0.15015525840E+03  0.76962471441E+02 0.  0.
          6    2    1    2  501    0  0.73512759697E+02 -0.23329180912E+02 -0.13915290885E+03  0.23575354062E+03  0.17397650230E+03 0.  0.
         24    2    5    5    0    0  0.75321775098E+02 -0.40781047839E+02 -0.24167025587E+02  0.11934184213E+03  0.79510794800E+02 0.  0.
          5    1    5    5  501    0 -0.18090154010E+01  0.17451866927E+02 -0.11498588326E+03  0.11641169849E+03  0.47000000000E+01 0. -1.
        -13    1    6    6    0    0  0.26094182591E+02  0.82047563463E+01 -0.39668540326E+02  0.48185241344E+02  0.00000000000E+00 0.  1.
         14    1    6    6    0    0  0.49227592507E+02 -0.48985804185E+02  0.15501514739E+02  0.71156600782E+02  0.00000000000E+00 0. -1.
         -5    1    3    3    0  503 -0.12524643699E+02 -0.30155462153E+01 -0.41865084844E+02  0.44053780176E+02  0.47000000000E+01 0.  1.
         13    1    4    4    0    0  0.13591988221E+02  0.16902270638E+02  0.46954751602E+02  0.51722119006E+02  0.00000000000E+00 0. -1.
        -14    1    4    4    0    0 -0.74580104219E+02  0.94424564893E+01  0.63543142840E+02  0.98433139399E+02  0.00000000000E+00 0.  1.
</event>
<event>
12    1  0.8331241E-002  0.3896784E+03  0.7818608E-02  0.1047429E+00
         21   -1    0    0  503  502  0.00000000000E+00  0.00000000000E+00  0.65527496877E+03  0.65527496877E+03  0.00000000000E+00 0.  1.
         21   -1    0    0  501  503 -0.00000000000E+00 -0.00000000000E+00 -0.23810130743E+03  0.23810130743E+03  0.00000000000E+00 0. -1.
          6    2    1    2  501    0 -0.33284920592E+03 -0.10696573405E+03  0.13498916840E+03  0.41239707444E+03  0.17210174106E+03 0.  0.
         24    2    3    3    0    0 -0.19429894609E+03  0.62211180235E-01  0.55301126167E+02  0.21998234103E+03  0.87074287165E+02 0.  0.
         -6    2    1    2    0  502  0.33284920592E+03  0.10696573405E+03  0.28218449294E+03  0.48097920176E+03  0.17170510280E+03 0.  0.
        -24    2    5    5    0    0  0.24796929867E+03  0.10550006057E+03  0.27877054879E+03  0.39588812192E+03  0.79970934353E+02 0.  0.
          5    1    3    3  501    0 -0.13855025982E+03 -0.10702794523E+03  0.79688042236E+02  0.19241473341E+03  0.47000000000E+01 0. -1.
        -11    1    4    4    0    0 -0.13255010800E+03  0.20143263972E+02  0.73032354081E+02  0.15267287564E+03  0.00000000000E+00 0.  1.
         12    1    4    4    0    0 -0.61748838093E+02 -0.20081052791E+02 -0.17731227914E+02  0.67309465385E+02  0.00000000000E+00 0. -1.
         -5    1    5    5    0  502  0.84879907252E+02  0.14656734771E+01  0.34139441522E+01  0.85091079841E+02  0.47000000000E+01 0.  1.
         13    1    6    6    0    0  0.17707203957E+03  0.10796398979E+03  0.18216884991E+03  0.27603662830E+03  0.00000000000E+00 0. -1.
        -14    1    6    6    0    0  0.70897259099E+02 -0.24639292173E+01  0.96601698883E+02  0.11985149362E+03  0.00000000000E+00 0.  1.
</event>
<event>
12    1  0.8331241E-002  0.1839747E+03  0.7818608E-02  0.1165121E+00
         21   -1    0    0  501  502  0.00000000000E+00  0.00000000000E+00  0.10185388179E+03  0.10185388179E+03  0.00000000000E+00 0.  1.
         21   -1    0    0  502  503 -0.00000000000E+00 -0.00000000000E+00 -0.34886557303E+03  0.34886557303E+03  0.00000000000E+00 0.  1.
         -6    2    1    2    0  503 -0.19498922525E+02  0.45100847339E+02 -0.18520165834E+03  0.26104858162E+03  0.17729188729E+03 0.  0.
        -24    2    3    3    0    0  0.16650738185E+02 -0.41016935284E+02 -0.11634686145E+03  0.14491872538E+03  0.74197093844E+02 0.  0.
          6    2    1    2  501    0  0.19498922525E+02 -0.45100847339E+02 -0.61810032904E+02  0.18967087320E+03  0.17245366208E+03 0.  0.
         24    2    5    5    0    0  0.61948944073E+02 -0.73188744028E+02 -0.26372975760E+02  0.12747112008E+03  0.79743894308E+02 0.  0.
          5    1    5    5  501    0 -0.42450021548E+02  0.28087896689E+02 -0.35437057144E+02  0.62199753125E+02  0.47000000000E+01 0. -1.
        -13    1    6    6    0    0  0.11445254872E+02 -0.34268127938E+02  0.26365148349E+02  0.44726049444E+02  0.00000000000E+00 0.  1.
         14    1    6    6    0    0  0.50503689201E+02 -0.38920616090E+02 -0.52738124109E+02  0.82745070634E+02  0.00000000000E+00 0. -1.
         -5    1    3    3    0  503 -0.36149660710E+02  0.86117782624E+02 -0.68854796895E+02  0.11612985623E+03  0.47000000000E+01 0.  1.
         11    1    4    4    0    0  0.44411535600E+02 -0.12086082917E+02 -0.56369816168E+02  0.72773718260E+02  0.00000000000E+00 0. -1.
        -12    1    4    4    0    0 -0.27760797415E+02 -0.28930852368E+02 -0.59977045281E+02  0.72145007121E+02  0.00000000000E+00 0.  1.
</event>
<event>
12    1  0.8331241E-002  0.1766841E+03  0.7818608E-02  0.1172597E+00
         21   -1    0    0  503  502  0.00000000000E+00  0.00000000000E+00  0.13589119639E+04  0.13589119639E+04  0.00000000000E+00 0.  1.
         21   -1    0    0  501  503 -0.00000000000E+00 -0.00000000000E+00 -0.35735487499E+02  0.35735487499E+02  0.00000000000E+00 0.  1.
          6    2    1    2  501    0  0.19430631800E+02 -0.15927300496E+01  0.22496598903E+03  0.28231497124E+03  0.16944604016E+03 0.  0.
         24    2    3    3    0    0 -0.34771473730E+02  0.43149260910E+02  0.15868922701E+03  0.18559675588E+03  0.78695431392E+02 0.  0.
         -6    2    1    2    0  502 -0.19430631800E+02  0.15927300496E+01  0.10982104874E+04  0.11123324802E+04  0.17560519809E+03 0.  0.
        -24    2    5    5    0    0  0.29545067322E+02  0.13949875510E+02  0.29607494679E+03  0.30859444223E+03  0.80638983297E+02 0.  0.
          5    1    3    3  501    0  0.54202105530E+02 -0.44741990960E+02  0.66276762017E+02  0.96718215359E+02  0.47000000000E+01 0. -1.
        -13    1    4    4    0    0  0.10558234490E+02  0.17042487010E+02  0.16978764698E+01  0.20119777920E+02  0.00000000000E+00 0.  1.
         14    1    4    4    0    0 -0.45329708219E+02  0.26106773900E+02  0.15699135054E+03  0.16547697796E+03  0.00000000000E+00 0. -1.
         -5    1    5    5    0  502 -0.48975699122E+02 -0.12357145461E+02  0.80213554058E+03  0.80373803792E+03  0.47000000000E+01 0.  1.
         13    1    6    6    0    0  0.96354083301E+01  0.32051822019E+02  0.45000349024E+02  0.56082009599E+02  0.00000000000E+00 0. -1.
        -14    1    6    6    0    0  0.19909658992E+02 -0.18101946508E+02  0.25107459777E+03  0.25251243263E+03  0.00000000000E+00 0.  1.
</event>
<event>
12    1  0.8331241E-002  0.2043972E+03  0.7818608E-02  0.1146243E+00
         21   -1    0    0  501  502  0.00000000000E+00  0.00000000000E+00  0.28220780664E+03  0.28220780664E+03  0.00000000000E+00 0.  1.
         21   -1    0    0  502  503 -0.00000000000E+00 -0.00000000000E+00 -0.16432656251E+03  0.16432656251E+03  0.00000000000E+00 0. -1.
         -6    2    1    2    0  503  0.91656582776E+02  0.64129276280E+02 -0.12666850930E+02  0.20400393260E+03  0.17012836965E+03 0.  0.
        -24    2    3    3    0    0  0.53415371583E+02  0.41024772909E+02 -0.74989051387E+02  0.12717714704E+03  0.77552788390E+02 0.  0.
          6    2    1    2  501    0 -0.91656582776E+02 -0.64129276280E+02  0.13054809506E+03  0.24253043655E+03  0.17106932597E+03 0.  0.
         24    2    5    5    0    0 -0.65786399068E+02  0.60962340291E+01  0.13200433339E+03  0.16752977433E+03  0.79221631393E+02 0.  0.
          5    1    5    5  501    0 -0.25870183708E+02 -0.70225510309E+02 -0.14562383360E+01  0.75000662219E+02  0.47000000000E+01 0. -1.
        -13    1    6    6    0    0  0.11670422275E+02  0.21219354310E+02  0.32382423592E+02  0.40436136204E+02  0.00000000000E+00 0.  1.
         14    1    6    6    0    0 -0.77456821343E+02 -0.15123120281E+02  0.99621909803E+02  0.12709363813E+03  0.00000000000E+00 0. -1.
         -5    1    3    3    0  503  0.38241211193E+02  0.23104503370E+02  0.62322200457E+02  0.76826785559E+02  0.47000000000E+01 0.  1.
         13    1    4    4    0    0 -0.62609641810E+01  0.41041307072E+02 -0.20222690306E+02  0.46179495037E+02  0.00000000000E+00 0. -1.
        -14    1    4    4    0    0  0.59676335764E+02 -0.16534162383E-01 -0.54766361081E+02  0.80997652001E+02  0.00000000000E+00 0.  1.
</event>
<event>
12    1  0.8331241E-002  0.1829354E+03  0.7818608E-02  0.1165443E+00
         21   -1    0    0  501  502  0.00000000000E+00  0.00000000000E+00  0.20341242701E+03  0.20341242701E+03  0.00000000000E+00 0. -1.
         21   -1    0    0  502  503 -0.00000000000E+00 -0.00000000000E+00 -0.27522134523E+03  0.27522134523E+03  0.00000000000E+00 0. -1.
         -6    2    1    2    0  503  0.16188807050E+02 -0.59376040286E+02 -0.18895076020E+03  0.26299760258E+03  0.17227233542E+03 0.  0.
        -24    2    3    3    0    0 -0.23775010119E+02 -0.19543087463E+02 -0.18827393009E+03  0.20637323581E+03  0.78712491591E+02 0.  0.
          6    2    1    2  501    0 -0.16188807050E+02  0.59376040286E+02  0.11714184197E+03  0.21563616966E+03  0.17026201834E+03 0.  0.
         24    2    5    5    0    0 -0.68767922389E+02  0.49357605946E+02  0.40967434385E+02  0.12241834535E+03  0.78375507556E+02 0.  0.
          5    1    5    5  501    0  0.52579115339E+02  0.10018434341E+02  0.76174407588E+02  0.93217824304E+02  0.47000000000E+01 0. -1.
        -13    1    6    6    0    0 -0.69099144681E+02  0.42554743384E+01  0.32696982860E+02  0.76563003766E+02  0.00000000000E+00 0.  1.
         14    1    6    6    0    0  0.33122229205E+00  0.45102131607E+02  0.82704515246E+01  0.45855341588E+02  0.00000000000E+00 0. -1.
         -5    1    3    3    0  503  0.39963817169E+02 -0.39832952824E+02 -0.67683010610E+00  0.56624366772E+02  0.47000000000E+01 0.  1.
         13    1    4    4    0    0 -0.30010600949E+02 -0.42740103156E+02 -0.16444451839E+03  0.17253797325E+03  0.00000000000E+00 0. -1.
        -14    1    4    4    0    0  0.62355908298E+01  0.23197015693E+02 -0.23829411709E+02  0.33835262559E+02  0.00000000000E+00 0.  1.
</event>
<event>
12    1  0.8331241E-002  0.2496573E+03  0.7818608E-02  0.1113694E+00
         21   -1    0    0  501  502  0.00000000000E+00  0.00000000000E+00  0.46885574832E+02  0.46885574832E+02  0.00000000000E+00 0.  1.
         21   -1    0    0  502  503 -0.00000000000E+00 -0.00000000000E+00 -0.16679529393E+04  0.16679529393E+04  0.00000000000E+00 0.  1.
         -6    2    1    2    0  503 -0.11825271855E+03 -0.13570121735E+03 -0.12015299662E+04  0.12271931555E+04  0.17300362776E+03 0.  0.
        -24    2    3    3    0    0 -0.35329598457E+02 -0.54265321951E+02 -0.23688635871E+03  0.25556183214E+03  0.70737524795E+02 0.  0.
          6    2    1    2  501    0  0.11825271855E+03  0.13570121735E+03 -0.41953739825E+03  0.48764535868E+03  0.17142882338E+03 0.  0.
         24    2    5    5    0    0  0.17383131259E+02  0.66736471997E+02 -0.95716875146E+02  0.14150574679E+03  0.78142346012E+02 0.  0.
          5    1    5    5  501    0  0.10086958729E+03  0.68964745349E+02 -0.32382052310E+03  0.34613961189E+03  0.47000000000E+01 0. -1.
        -13    1    6    6    0    0  0.23205896113E+02  0.32401398757E+02 -0.98808636458E+02  0.10654346951E+03  0.00000000000E+00 0.  1.
         14    1    6    6    0    0 -0.58227648539E+01  0.34335073240E+02  0.30917613115E+01  0.34962277285E+02  0.00000000000E+00 0. -1.
         -5    1    3    3    0  503 -0.82923120089E+02 -0.81435895395E+02 -0.96464360754E+03  0.97163132333E+03  0.47000000000E+01 0.  1.
         13    1    4    4    0    0  0.16276742059E+02 -0.37047212174E+01 -0.15854487999E+02  0.23022208432E+02  0.00000000000E+00 0. -1.
        -14    1    4    4    0    0 -0.51606340516E+02 -0.50560600734E+02 -0.22103187071E+03  0.23253962371E+03  0.00000000000E+00 0.  1.
</event>
<event>
12    1  0.8331241E-002  0.2091464E+03  0.7818608E-02  0.1142510E+00
         21   -1    0    0  501  502  0.00000000000E+00  0.00000000000E+00  0.78495589757E+03  0.78495589757E+03  0.00000000000E+00 0.  1.
         21   -1    0    0  502  503 -0.00000000000E+00 -0.00000000000E+00 -0.31335366674E+03  0.31335366674E+03  0.00000000000E+00 0.  1.
         -6    2    1    2    0  503  0.82728121021E+02 -0.83580156311E+02 -0.26234447027E+03  0.33550983839E+03  0.17295272776E+03 0.  0.
        -24    2    3    3    0    0 -0.20446882805E+02 -0.57757216056E+02 -0.10694625369E+03  0.14714157839E+03  0.80368973437E+02 0.  0.
          6    2    1    2  501    0 -0.82728121021E+02  0.83580156311E+02  0.73394670110E+03  0.76279972592E+03  0.17133615283E+03 0.  0.
         24    2    5    5    0    0 -0.18541520364E+02  0.77002254527E+02  0.63283898724E+03  0.64276619603E+03  0.79937874663E+02 0.  0.
          5    1    5    5  501    0 -0.64186600657E+02  0.65779017838E+01  0.10110771386E+03  0.12003352989E+03  0.47000000000E+01 0. -1.
        -11    1    6    6    0    0  0.20448637723E+01 -0.15383966676E+02  0.14512228611E+03  0.14594973733E+03  0.00000000000E+00 0.  1.
         12    1    6    6    0    0 -0.20586384137E+02  0.92386221204E+02  0.48771670113E+03  0.49681645870E+03  0.00000000000E+00 0. -1.
         -5    1    3    3    0  503  0.10317500383E+03 -0.25822940255E+02 -0.15539821658E+03  0.18836826000E+03  0.47000000000E+01 0.  1.
         13    1    4    4    0    0 -0.20437594677E+02 -0.32305231793E+02 -0.11440218318E+03  0.12061999334E+03  0.00000000000E+00 0. -1.
        -14    1    4    4    0    0 -0.92881285815E-02 -0.25451984263E+02  0.74559294913E+01  0.26521585054E+02  0.00000000000E+00 0.  1.
</event>
<event>
12    1  0.8331241E-002  0.1917336E+03  0.7818608E-02  0.1160179E+00
         21   -1    0    0  503  502  0.00000000000E+00  0.00000000000E+00  0.59144865984E+02  0.59144865984E+02  0.00000000000E+00 0. -1.
         21   -1    0    0  501  503 -0.00000000000E+00 -0.00000000000E+00 -0.90408443331E+03  0.90408443331E+03  0.00000000000E+00 0.  1.
          6    2    1    2  501    0 -0.25201754499E+02 -0.29236210992E+02 -0.72244076062E+03  0.74745060528E+03  0.18780806761E+03 0.  0.
         24    2    3    3    0    0 -0.31402578573E+02  0.61330396884E+01 -0.12531260562E+03  0.14922526512E+03  0.74439200059E+02 0.  0.
         -6    2    1    2    0  502  0.25201754499E+02  0.29236210992E+02 -0.12249880670E+03  0.21577869402E+03  0.17339147235E+03 0.  0.
        -24    2    5    5    0    0 -0.50520976953E+02  0.29379763147E+02 -0.90473448327E+02  0.13342782125E+03  0.78752771615E+02 0.  0.
          5    1    3    3  501    0  0.62008240742E+01 -0.35369250681E+02 -0.59712815501E+03  0.59822534016E+03  0.47000000000E+01 0. -1.
        -13    1    4    4    0    0 -0.85350715609E+01 -0.19107926891E+02 -0.10984077569E+03  0.11181661916E+03  0.00000000000E+00 0.  1.
         14    1    4    4    0    0 -0.22867507012E+02  0.25240966580E+02 -0.15471829928E+02  0.37408645955E+02  0.00000000000E+00 0. -1.
         -5    1    5    5    0  502  0.75722731452E+02 -0.14355215490E+00 -0.32025358376E+02  0.82350872763E+02  0.47000000000E+01 0.  1.
         11    1    6    6    0    0 -0.34847946863E+02 -0.20623058723E+02 -0.61259233791E+02  0.73432851479E+02  0.00000000000E+00 0. -1.
        -12    1    6    6    0    0 -0.15673030090E+02  0.50002821870E+02 -0.29214214536E+02  0.59994969774E+02  0.00000000000E+00 0.  1.
</event>
<event>
12    1  0.8331241E-002  0.2499152E+03  0.7818608E-02  0.1113781E+00
         21   -1    0    0  503  502  0.00000000000E+00  0.00000000000E+00  0.32456892231E+03  0.32456892231E+03  0.00000000000E+00 0.  1.
         21   -1    0    0  501  503 -0.00000000000E+00 -0.00000000000E+00 -0.19418015644E+03  0.19418015644E+03  0.00000000000E+00 0. -1.
          6    2    1    2  501    0  0.17192209621E+03 -0.54459971787E+02  0.28628014455E+02  0.24891049293E+03  0.16915606577E+03 0.  0.
         24    2    3    3    0    0  0.13006243142E+03  0.21553285850E+02 -0.84435243808E+01  0.15442961727E+03  0.79977705578E+02 0.  0.
         -6    2    1    2    0  502 -0.17192209621E+03  0.54459971787E+02  0.10176075142E+03  0.26983858582E+03  0.17301594197E+03 0.  0.
        -24    2    5    5    0    0 -0.45532417419E+02  0.38942333190E+02 -0.10199683581E+02  0.10021436285E+03  0.79681733324E+02 0.  0.
          5    1    3    3  501    0  0.41859664787E+02 -0.76013257637E+02  0.37071538836E+02  0.94480875654E+02  0.47000000000E+01 0. -1.
        -13    1    4    4    0    0  0.12166060077E+03 -0.91233566918E+01 -0.11136450319E+02  0.12250941981E+03  0.00000000000E+00 0.  1.
         14    1    4    4    0    0  0.84018306510E+01  0.30676642541E+02  0.26929259382E+01  0.31920197462E+02  0.00000000000E+00 0. -1.
         -5    1    5    5    0  502 -0.12638967879E+03  0.15517638597E+02  0.11196043500E+03  0.16962422297E+03  0.47000000000E+01 0.  1.
         13    1    6    6    0    0  0.19878935989E+02  0.11329428281E+02  0.11983368514E+02  0.25828843609E+02  0.00000000000E+00 0. -1.
        -14    1    6    6    0    0 -0.65411353408E+02  0.27612904909E+02 -0.22183052095E+02  0.74385519239E+02  0.00000000000E+00 0.  1.
</event>
<event>
12    1  0.8331241E-002  0.2194010E+03  0.7818608E-02  0.1134388E+00
         21   -1    0    0  503  502  0.00000000000E+00  0.00000000000E+00  0.22894951675E+03  0.22894951675E+03  0.00000000000E+00 0.  1.
         21   -1    0    0  501  503 -0.00000000000E+00 -0.00000000000E+00 -0.21348205945E+03  0.21348205945E+03  0.00000000000E+00 0. -1.
          6    2    1    2  501    0 -0.10256263110E+03 -0.89406181353E+02  0.36170521680E+02  0.22236251362E+03  0.17211688546E+03 0.  0.
         24    2    3    3    0    0 -0.11577181244E+03 -0.17949250589E+02  0.47108857004E+02  0.14872615979E+03  0.78580774016E+02 0.  0.
         -6    2    1    2    0  502  0.10256263110E+03  0.89406181353E+02 -0.20703064387E+02  0.22006906258E+03  0.17172424659E+03 0.  0.
        -24    2    5    5    0    0  0.50724646374E+02  0.43919982082E+01 -0.56520815075E+02  0.11414650001E+03  0.85103122919E+02 0.  0.
          5    1    3    3  501    0  0.13209181336E+02 -0.71456930764E+02 -0.10938335324E+02  0.73636353831E+02  0.47000000000E+01 0. -1.
        -11    1    4    4    0    0 -0.46255560224E+02 -0.18197973911E+02  0.60114661611E+02  0.78003305358E+02  0.00000000000E+00 0.  1.
         12    1    4    4    0    0 -0.69516252216E+02  0.24872332182E+00 -0.13005804607E+02  0.70722854431E+02  0.00000000000E+00 0. -1.
         -5    1    5    5    0  502  0.51837984729E+02  0.85014183145E+02  0.35817750689E+02  0.10592256257E+03  0.47000000000E+01 0.  1.
         11    1    6    6    0    0  0.71492282111E+02 -0.46845372259E+01 -0.56880132546E+02  0.91479182161E+02  0.00000000000E+00 0. -1.
        -12    1    6    6    0    0 -0.20767635737E+02  0.90765354341E+01  0.35931747034E+00  0.22667317853E+02  0.00000000000E+00 0.  1.
</event>
<event>
12    1  0.8331241E-002  0.2341735E+03  0.7818608E-02  0.1123997E+00
         21   -1    0    0  503  502  0.00000000000E+00  0.00000000000E+00  0.87146385501E+02  0.87146385501E+02  0.00000000000E+00 0. -1.
         21   -1    0    0  501  503 -0.00000000000E+00 -0.00000000000E+00 -0.94161134473E+03  0.94161134473E+03  0.00000000000E+00 0.  1.
          6    2    1    2  501    0  0.33119696836E+02 -0.15326849682E+03 -0.72448985071E+03  0.76093173188E+03  0.17188196633E+03 0.  0.
         24    2    3    3    0    0  0.82322343293E+02 -0.14505779064E+03 -0.53259540767E+03  0.56260401473E+03  0.71039976733E+02 0.  0.
         -6    2    1    2    0  502 -0.33119696836E+02  0.15326849682E+03 -0.12997510852E+03  0.26782599836E+03  0.17392265558E+03 0.  0.
        -24    2    5    5    0    0 -0.31930772095E+02  0.58322424374E+02  0.33602649713E+01  0.10406830529E+03  0.79986507574E+02 0.  0.
          5    1    3    3  501    0 -0.49202646457E+02 -0.82107061802E+01 -0.19189444305E+03  0.19832771714E+03  0.47000000000E+01 0. -1.
        -11    1    4    4    0    0  0.16608973753E+02 -0.14422082947E+02 -0.17329663720E+03  0.17468708867E+03  0.00000000000E+00 0.  1.
         12    1    4    4    0    0  0.65713369540E+02 -0.13063570770E+03 -0.35929877047E+03  0.38791692606E+03  0.00000000000E+00 0. -1.
         -5    1    5    5    0  502 -0.11889247405E+01  0.94946072451E+02 -0.13333537349E+03  0.16375769307E+03  0.47000000000E+01 0.  1.
         11    1    6    6    0    0 -0.47953371681E+02  0.19336259960E+02  0.24153287967E+02  0.57068363604E+02  0.00000000000E+00 0. -1.
        -12    1    6    6    0    0  0.16022599586E+02  0.38986164413E+02 -0.20793022996E+02  0.46999941686E+02  0.00000000000E+00 0.  1.
</event>
<event>
12    1  0.8331241E-002  0.1728668E+03  0.7818608E-02  0.1175276E+00
         21   -1    0    0  501  502  0.00000000000E+00  0.00000000000E+00  0.46338355897E+03  0.46338355897E+03  0.00000000000E+00 0. -1.
         21   -1    0    0  502  503 -0.00000000000E+00 -0.00000000000E+00 -0.64034712213E+02  0.64034712213E+02  0.00000000000E+00 0. -1.
         -6    2    1    2    0  503 -0.16726022692E+01 -0.12785241460E+02  0.21123350342E+03  0.27295148503E+03  0.17238520880E+03 0.  0.
        -24    2    3    3    0    0 -0.33494964661E+02 -0.33933975613E+02  0.40356268011E+02  0.97791411707E+02  0.75240311519E+02 0.  0.
          6    2    1    2  501    0  0.16726022692E+01  0.12785241460E+02  0.18811534334E+03  0.25446678616E+03  0.17087920546E+03 0.  0.
         24    2    5    5    0    0  0.61768373617E+01  0.56270044624E+02  0.18578488699E+03  0.21043569184E+03  0.81010400102E+02 0.  0.
          5    1    5    5  501    0 -0.45042350924E+01 -0.43484803164E+02  0.23304563497E+01  0.44031094318E+02  0.47000000000E+01 0. -1.
        -11    1    6    6    0    0  0.12758397592E+02  0.18405539778E+02  0.17862968421E+01  0.22466229324E+02  0.00000000000E+00 0.  1.
         12    1    6    6    0    0 -0.65815602300E+01  0.37864504846E+02  0.18399859015E+03  0.18796946252E+03  0.00000000000E+00 0. -1.
         -5    1    3    3    0  503  0.31822362391E+02  0.21148734153E+02  0.17087723541E+03  0.17516007332E+03  0.47000000000E+01 0.  1.
         13    1    4    4    0    0 -0.21319980449E+02  0.18907696706E+02 -0.25969562213E+01  0.28614449893E+02  0.00000000000E+00 0. -1.
        -14    1    4    4    0    0 -0.12174984212E+02 -0.52841672319E+02  0.42953224232E+02  0.69176961815E+02  0.00000000000E+00 0.  1.
</event>
<event>
12    1  0.8331241E-002  0.1834258E+03  0.7818608E-02  0.1164654E+00
         21   -1    0    0  501  502  0.00000000000E+00  0.00000000000E+00  0.19200066390E+04  0.19200066390E+04  0.00000000000E+00 0.  1.
         21   -1    0    0  502  503 -0.00000000000E+00 -0.00000000000E+00 -0.28772182646E+02  0.28772182646E+02  0.00000000000E+00 0.  1.
         -6    2    1    2    0  503 -0.56358459144E+02 -0.32071241381E+02  0.33414547901E+03  0.38092324498E+03  0.17101016632E+03 0.  0.
        -24    2    3    3    0    0 -0.42349655198E+02 -0.31249291775E+02  0.34762055877E+03  0.36090850132E+03  0.81516145083E+02 0.  0.
          6    2    1    2  501    0  0.56358459144E+02  0.32071241381E+02  0.15570889773E+04  0.15678555766E+04  0.17158142515E+03 0.  0.
         24    2    5    5    0    0  0.16127858220E+02  0.82832016294E+02  0.86480980525E+03  0.87253716066E+03  0.79396767780E+02 0.  0.
          5    1    5    5  501    0  0.40230600925E+02 -0.50760774913E+02  0.69227917205E+03  0.69531841596E+03  0.47000000000E+01 0. -1.
        -11    1    6    6    0    0 -0.31825736621E+02  0.30836230725E+02  0.38495299781E+03  0.38749524018E+03  0.00000000000E+00 0.  1.
         12    1    6    6    0    0  0.47953594841E+02  0.51995785569E+02  0.47985680744E+03  0.48504192048E+03  0.00000000000E+00 0. -1.
         -5    1    3    3    0  503 -0.14008803947E+02 -0.82194960595E+00 -0.13475079768E+02  0.20014743664E+02  0.47000000000E+01 0.  1.
         13    1    4    4    0    0 -0.55988619126E+01  0.15773072713E+02  0.13509523172E+02  0.21509167670E+02  0.00000000000E+00 0. -1.
        -14    1    4    4    0    0 -0.36750793285E+02 -0.47022364489E+02  0.33411103560E+03  0.33939933365E+03  0.00000000000E+00 0.  1.
</event>
<event>
12    1  0.8331241E-002  0.2339110E+03  0.7818608E-02  0.1124199E+00
         21   -1    0    0  501  502  0.00000000000E+00  0.00000000000E+00  0.57335244694E+03  0.57335244694E+03  0.00000000000E+00 0.  1.
         21   -1    0    0  502  503 -0.00000000000E+00 -0.00000000000E+00 -0.13060806319E+03  0.13060806319E+03  0.00000000000E+00 0.  1.
         -6    2    1    2    0  503 -0.58799399362E+01 -0.15795753852E+03  0.36422022000E+02  0.23511915969E+03  0.17020369531E+03 0.  0.
        -24    2    3    3    0    0  0.43408185631E+02 -0.79874117431E+02  0.65221892796E+02  0.13827979513E+03  0.81260453027E+02 0.  0.
          6    2    1    2  501    0  0.58799399362E+01  0.15795753852E+03  0.40632236175E+03  0.46884135044E+03  0.17242155478E+03 0.  0.
         24    2    5    5    0    0 -0.28380428659E+02  0.67580212634E+02  0.33393175661E+03  0.34799300083E+03  0.64932092859E+02 0.  0.
          5    1    5    5  501    0  0.34260368596E+02  0.90377325889E+02  0.72390605141E+02  0.12084834961E+03  0.47000000000E+01 0. -1.
        -11    1    6    6    0    0  0.17813120780E+02  0.22011079034E+02  0.15711216110E+03  0.15964343405E+03  0.00000000000E+00 0.  1.
         12    1    6    6    0    0 -0.46193549439E+02  0.45569133600E+02  0.17681959551E+03  0.18834956677E+03  0.00000000000E+00 0. -1.
         -5    1    3    3    0  503 -0.49288125567E+02 -0.78083421092E+02 -0.28799870796E+02  0.96839364564E+02  0.47000000000E+01 0.  1.
         11    1    4    4    0    0  0.19403598872E+02  0.12255948805E+02  0.13212911648E+00  0.22950498652E+02  0.00000000000E+00 0. -1.
        -12    1    4    4    0    0  0.24004586759E+02 -0.92130066236E+02  0.65089763680E+02  0.11532929648E+03  0.00000000000E+00 0.  1.
</event>
<event>
12    1  0.8331241E-002  0.3017252E+03  0.7818608E-02  0.1084843E+00
         21   -1    0    0  501  502  0.00000000000E+00  0.00000000000E+00  0.35097377322E+03  0.35097377322E+03  0.00000000000E+00 0. -1.
         21   -1    0    0  502  503 -0.00000000000E+00 -0.00000000000E+00 -0.40392402497E+03  0.40392402497E+03  0.00000000000E+00 0.  1.
         -6    2    1    2    0  503 -0.19177949707E+02 -0.23825106063E+03 -0.25461597174E+03  0.39198296778E+03  0.17801683156E+03 0.  0.
        -24    2    3    3    0    0 -0.49574448765E+02 -0.24285896702E+03 -0.25011202058E+03  0.36055757148E+03  0.77508939373E+02 0.  0.
          6    2    1    2  501    0  0.19177949707E+02  0.23825106063E+03  0.20166571999E+03  0.36291483041E+03  0.18413785560E+03 0.  0.
         24    2    5    5    0    0  0.15401581410E+02  0.14020884227E+03  0.28325226404E+02  0.16367739855E+03  0.78052829440E+02 0.  0.
          5    1    5    5  501    0  0.37763682973E+01  0.98042218361E+02  0.17334049359E+03  0.19923743187E+03  0.47000000000E+01 0. -1.
        -13    1    6    6    0    0  0.14795864638E+00  0.20465330027E+01 -0.17267780264E+02  0.17389261753E+02  0.00000000000E+00 0.  1.
         14    1    6    6    0    0  0.15253622764E+02  0.13816230927E+03  0.45593006667E+02  0.14628813679E+03  0.00000000000E+00 0. -1.
         -5    1    3    3    0  503  0.30396499058E+02  0.46079063898E+01 -0.45039511600E+01  0.31425396296E+02  0.47000000000E+01 0.  1.
         13    1    4    4    0    0 -0.66597840231E+02 -0.13527799237E+03 -0.14471944024E+03  0.20899551174E+03  0.00000000000E+00 0. -1.
        -14    1    4    4    0    0  0.17023391466E+02 -0.10758097465E+03 -0.10539258034E+03  0.15156205974E+03  0.00000000000E+00 0.  1.
</event>
<event>
12    1  0.8331241E-002  0.1960207E+03  0.7818608E-02  0.1153226E+00
         21   -1    0    0  501  502  0.00000000000E+00  0.00000000000E+00  0.12462957281E+04  0.12462957281E+04  0.00000000000E+00 0.  1.
         21   -1    0    0  502  503 -0.00000000000E+00 -0.00000000000E+00 -0.10348376110E+03  0.10348376110E+03  0.00000000000E+00 0.  1.
         -6    2    1    2    0  503  0.41170478192E+02 -0.85075805228E+02  0.58475363852E+01  0.19610791778E+03  0.17173008130E+03 0.  0.
        -24    2    3    3    0    0  0.48644533497E+01 -0.73661603175E+01  0.57145875994E+02  0.96055301625E+02  0.76701020872E+02 0.  0.
          6    2    1    2  501    0 -0.41170478192E+02  0.85075805228E+02  0.11369644307E+04  0.11536715715E+04  0.17128069744E+03 0.  0.
         24    2    5    5    0    0 -0.69181160201E+02  0.11068954823E+03  0.98967051141E+03  0.10014932196E+04  0.80639560263E+02 0.  0.
          5    1    5    5  501    0  0.28010682009E+02 -0.25613743007E+02  0.14729391925E+03  0.15217835189E+03  0.47000000000E+01 0. -1.
        -13    1    6    6    0    0 -0.69384890496E+02  0.92600968658E+02  0.95845786940E+03  0.96541736562E+03  0.00000000000E+00 0.  1.
         14    1    6    6    0    0  0.20373029540E+00  0.18088579577E+02  0.31212642008E+02  0.36075853951E+02  0.00000000000E+00 0. -1.
         -5    1    3    3    0  503  0.36306024842E+02 -0.77709644910E+02 -0.51298339609E+02  0.10005261615E+03  0.47000000000E+01 0.  1.
         13    1    4    4    0    0 -0.25893520803E+02 -0.18514977644E+02  0.54649077325E+02  0.63243975754E+02  0.00000000000E+00 0. -1.
        -14    1    4    4    0    0  0.30757974153E+02  0.11148817327E+02  0.24967986692E+01  0.32811325870E+02  0.00000000000E+00 0.  1.
</event>
<event>
12    1  0.8331241E-002  0.1970295E+03  0.7818608E-02  0.1153872E+00
         21   -1    0    0  501  502  0.00000000000E+00  0.00000000000E+00  0.59211996446E+03  0.59211996446E+03  0.00000000000E+00 0. -1.
         21   -1    0    0  502  503 -0.00000000000E+00 -0.00000000000E+00 -0.84548035820E+02  0.84548035820E+02  0.00000000000E+00 0.  1.
         -6    2    1    2    0  503 -0.33705169979E+02 -0.71585047083E+02  0.87199612631E+02  0.21546324029E+03  0.18044439039E+03 0.  0.
        -24    2    3    3    0    0  0.23511210229E+02 -0.16905716186E+02  0.10164693772E+03  0.13487565692E+03  0.83789991262E+02 0.  0.
          6    2    1    2  501    0  0.33705169979E+02  0.71585047083E+02  0.42037231601E+03  0.46120475999E+03  0.17244271258E+03 0.  0.
         24    2    5    5    0    0 -0.12556317077E+02  0.10609972079E+03  0.20722645668E+03  0.24033231889E+03  0.58326728929E+02 0.  0.
          5    1    5    5  501    0  0.46261487056E+02 -0.34514673707E+02  0.21314585933E+03  0.22087244109E+03  0.47000000000E+01 0. -1.
        -13    1    6    6    0    0 -0.23868241533E+01  0.92768235804E+02  0.20274935223E+03  0.22297744804E+03  0.00000000000E+00 0.  1.
         14    1    6    6    0    0 -0.10169492924E+02  0.13331484986E+02  0.44771044498E+01  0.17354870858E+02  0.00000000000E+00 0. -1.
         -5    1    3    3    0  503 -0.57216380207E+02 -0.54679330897E+02 -0.14447325087E+02  0.80587583371E+02  0.47000000000E+01 0.  1.
         11    1    4    4    0    0 -0.72632975745E+00 -0.40174185361E+02  0.91250229666E+02  0.99705050717E+02  0.00000000000E+00 0. -1.
        -12    1    4    4    0    0  0.24237539986E+02  0.23268469175E+02  0.10396708052E+02  0.35170606202E+02  0.00000000000E+00 0.  1.
</event>
<event>
12    1  0.8331241E-002  0.4288148E+03  0.7818608E-02  0.1034253E+00
         21   -1    0    0  501  502  0.00000000000E+00  0.00000000000E+00  0.75489486026E+03  0.75489486026E+03  0.00000000000E+00 0.  1.
         21   -1    0    0  502  503 -0.00000000000E+00 -0.00000000000E+00 -0.98956315868E+03  0.98956315868E+03  0.00000000000E+00 0. -1.
         -6    2    1    2    0  503  0.32990815257E+02  0.39091463282E+03 -0.87471238729E+03  0.97416830121E+03  0.17314581880E+03 0.  0.
        -24    2    3    3    0    0 -0.31643932290E+01  0.96975358296E+02 -0.33166156062E+03  0.35559430680E+03  0.83867077810E+02 0.  0.
          6    2    1    2  501    0 -0.32990815257E+02 -0.39091463282E+03  0.64004408887E+03  0.77028971773E+03  0.17258959845E+03 0.  0.
         24    2    5    5    0    0  0.28946812198E+02 -0.26694075807E+03  0.49616656219E+03  0.57046823741E+03  0.84601809645E+02 0.  0.
          5    1    5    5  501    0 -0.61937627455E+02 -0.12397387475E+03  0.14387752668E+03  0.19982148032E+03  0.47000000000E+01 0. -1.
        -11    1    6    6    0    0  0.57251444392E+02 -0.14379640281E+03  0.28800169430E+03  0.32695582158E+03  0.00000000000E+00 0.  1.
         12    1    6    6    0    0 -0.28304632194E+02 -0.12314435526E+03  0.20816486790E+03  0.24351241583E+03  0.00000000000E+00 0. -1.
         -5    1    3    3    0  503  0.36155208486E+02  0.29393927452E+03 -0.54305082668E+03  0.61857399441E+03  0.47000000000E+01 0.  1.
         13    1    4    4    0    0 -0.40359217060E+02  0.48146619453E+02 -0.12335018694E+03  0.13842771393E+03  0.00000000000E+00 0. -1.
        -14    1    4    4    0    0  0.37194823831E+02  0.48828738843E+02 -0.20831137367E+03  0.21716659287E+03  0.00000000000E+00 0.  1.
</event>
<event>
12    1  0.8331241E-002  0.2778927E+03  0.7818608E-02  0.1096867E+00
         21   -1    0    0  501  502  0.00000000000E+00  0.00000000000E+00  0.77515120128E+02  0.77515120128E+02  0.00000000000E+00 0.  1.
         21   -1    0    0  502  503 -0.00000000000E+00 -0.00000000000E+00 -0.11160943387E+04  0.11160943387E+04  0.00000000000E+00 0.  1.
         -6    2    1    2    0  503  0.19980609063E+03  0.87870613269E+02 -0.32313536862E+03  0.42609122527E+03  0.17173685472E+03 0.  0.
        -24    2    3    3    0    0  0.77530411370E+02  0.44855158336E+02 -0.68093168554E+02  0.13996138601E+03  0.83243979076E+02 0.  0.
          6    2    1    2  501    0 -0.19980609063E+03 -0.87870613269E+02 -0.71544384991E+03  0.76751823352E+03  0.17199016796E+03 0.  0.
         24    2    5    5    0    0 -0.59649747346E+02 -0.46394100076E+02 -0.16770520817E+03  0.20059336074E+03  0.80013465415E+02 0.  0.
          5    1    5    5  501    0 -0.14015634329E+03 -0.41476513193E+02 -0.54773864174E+03  0.56692487277E+03  0.47000000000E+01 0. -1.
        -13    1    6    6    0    0 -0.58936084030E+02 -0.52135795994E+02 -0.17464811042E+03  0.19155564648E+03  0.00000000000E+00 0.  1.
         14    1    6    6    0    0 -0.71366331546E+00  0.57416959180E+01  0.69429022558E+01  0.90377142617E+01  0.00000000000E+00 0. -1.
         -5    1    3    3    0  503  0.12227567926E+03  0.43015454933E+02 -0.25504220007E+03  0.28612983927E+03  0.47000000000E+01 0.  1.
         11    1    4    4    0    0 -0.17954511682E+02  0.10119160603E+02 -0.13199815621E+02  0.24474415897E+02  0.00000000000E+00 0. -1.
        -12    1    4    4    0    0  0.95484923053E+02  0.34735997732E+02 -0.54893352933E+02  0.11548697011E+03  0.00000000000E+00 0.  1.
</event>
<event>
12    1  0.8331241E-002  0.5239460E+03  0.7818608E-02  0.1007715E+00
         21   -1    0    0  503  502  0.00000000000E+00  0.00000000000E+00  0.24355474463E+04  0.24355474463E+04  0.00000000000E+00 0.  1.
         21   -1    0    0  501  503 -0.00000000000E+00 -0.00000000000E+00 -0.18269679349E+03  0.18269679349E+03  0.00000000000E+00 0. -1.
          6    2    1    2  501    0  0.42017068535E+03  0.26118260526E+03  0.31615418958E+03  0.61194190684E+03  0.17250990593E+03 0.  0.
         24    2    3    3    0    0  0.32191004935E+03  0.12284322422E+03  0.22736016675E+03  0.42037101807E+03  0.79388977839E+02 0.  0.
         -6    2    1    2    0  502 -0.42017068535E+03 -0.26118260526E+03  0.19366964632E+04  0.20063023330E+04  0.17232557082E+03 0.  0.
        -24    2    5    5    0    0 -0.25299059938E+03 -0.80957039717E+02  0.10780776823E+04  0.11131737103E+04  0.79661374390E+02 0.  0.
          5    1    3    3  501    0  0.98260636000E+02  0.13833938104E+03  0.88794022824E+02  0.19157088877E+03  0.47000000000E+01 0. -1.
        -11    1    4    4    0    0  0.24007124889E+03  0.92181119939E+02  0.20826086950E+03  0.33091411753E+03  0.00000000000E+00 0.  1.
         12    1    4    4    0    0  0.81838800459E+02  0.30662104280E+02  0.19099297258E+02  0.89456900545E+02  0.00000000000E+00 0. -1.
         -5    1    5    5    0  502 -0.16718008597E+03 -0.18022556554E+03  0.85861878094E+03  0.89312862265E+03  0.47000000000E+01 0.  1.
         11    1    6    6    0    0  0.21764731743E+01 -0.46588203352E+01  0.38514840273E+01  0.64246067278E+01  0.00000000000E+00 0. -1.
        -12    1    6    6    0    0 -0.25516707255E+03 -0.76298219382E+02  0.10742261983E+04  0.11067491036E+04  0.00000000000E+00 0.  1.
</event>
<event>
12    1  0.8331241E-002  0.2321221E+03  0.7818608E-02  0.1125165E+00
         21   -1    0    0  501  502  0.00000000000E+00  0.00000000000E+00  0.49449388716E+03  0.49449388716E+03  0.00000000000E+00 0. -1.
         21   -1    0    0  502  503 -0.00000000000E+00 -0.00000000000E+00 -0.14407263843E+03  0.14407263843E+03  0.00000000000E+00 0. -1.
         -6    2    1    2    0  503 -0.89434924919E+02  0.12874360250E+03  0.17512157677E+02  0.23272277773E+03  0.17111310478E+03 0.  0.
        -24    2    3    3    0    0 -0.19773671134E+02  0.11443716651E+03  0.55759021979E+02  0.15183843426E+03  0.80367769891E+02 0.  0.
          6    2    1    2  501    0  0.89434924919E+02 -0.12874360250E+03  0.33290909105E+03  0.40584374787E+03  0.17119335209E+03 0.  0.
         24    2    5    5    0    0 -0.12517435475E+02 -0.24791450315E+02  0.95652204064E+02  0.12743172558E+03  0.79487095442E+02 0.  0.
          5    1    5    5  501    0  0.10195236039E+03 -0.10395215218E+03  0.23725688699E+03  0.27841202229E+03  0.47000000000E+01 0. -1.
        -13    1    6    6    0    0 -0.32539610910E+01 -0.25296128182E+02 -0.53039370647E+01  0.26050222881E+02  0.00000000000E+00 0.  1.
         14    1    6    6    0    0 -0.92634743836E+01  0.50467786687E+00  0.10095614113E+03  0.10138150270E+03  0.00000000000E+00 0. -1.
         -5    1    3    3    0  503 -0.69661253786E+02  0.14306435992E+02 -0.38246864302E+02  0.80884343471E+02  0.47000000000E+01 0.  1.
         13    1    4    4    0    0 -0.39780409467E+02  0.34892828868E+02  0.44318558623E+02  0.69022642098E+02  0.00000000000E+00 0. -1.
        -14    1    4    4    0    0  0.20006738333E+02  0.79544337638E+02  0.11440463356E+02  0.82815792159E+02  0.00000000000E+00 0.  1.
</event>
<event>
12    1  0.8331241E-002  0.1864185E+03  0.7818608E-02  0.1162590E+00
         21   -1    0    0  503  502  0.00000000000E+00  0.00000000000E+00  0.82528027260E+03  0.82528027260E+03  0.00000000000E+00 0.  1.
         21   -1    0    0  501  503 -0.00000000000E+00 -0.00000000000E+00 -0.45392245948E+02  0.45392245948E+02  0.00000000000E+00 0. -1.
          6    2    1    2  501    0 -0.52989325899E+02 -0.34268083528E+02  0.52444560824E+03  0.55659234906E+03  0.17541287529E+03 0.  0.
         24    2    3    3    0    0 -0.10764360027E+02  0.40297935454E+02  0.36491593301E+03  0.37544366369E+03  0.77810740865E+02 0.  0.
         -6    2    1    2    0  502  0.52989325899E+02  0.34268083528E+02  0.25544241841E+03  0.31408016949E+03  0.17150321728E+03 0.  0.
        -24    2    5    5    0    0 -0.16261052188E+02  0.62507414632E+02  0.11948349323E+03  0.15883844178E+03  0.82351361439E+02 0.  0.
          5    1    3    3  501    0 -0.42224965872E+02 -0.74566018982E+02  0.15952967524E+03  0.18114868537E+03  0.47000000000E+01 0. -1.
        -11    1    4    4    0    0 -0.19956975544E+02  0.86790523087E+01  0.21981741772E+02  0.30932245201E+02  0.00000000000E+00 0.  1.
         12    1    4    4    0    0  0.91926155169E+01  0.31618883145E+02  0.34293419123E+03  0.34451141849E+03  0.00000000000E+00 0. -1.
         -5    1    5    5    0  502  0.69250378087E+02 -0.28239331104E+02  0.13595892517E+03  0.15524172770E+03  0.47000000000E+01 0.  1.
         13    1    6    6    0    0  0.17998823546E+01  0.76176198182E+02  0.66190528007E+02  0.10093185198E+03  0.00000000000E+00 0. -1.
        -14    1    6    6    0    0 -0.18060934543E+02 -0.13668783550E+02  0.53292965228E+02  0.57906589807E+02  0.00000000000E+00 0.  1.
</event>
<event>
12    1  0.8331241E-002  0.1974125E+03  0.7818608E-02  0.1152345E+00
         21   -1    0    0  503  502  0.00000000000E+00  0.00000000000E+00  0.46214143109E+03  0.46214143109E+03  0.00000000000E+00 0.  1.
         21   -1    0    0  501  503 -0.00000000000E+00 -0.00000000000E+00 -0.12683520180E+03  0.12683520180E+03  0.00000000000E+00 0.  1.
          6    2    1    2  501    0 -0.50587604584E+02  0.81017052882E+02 -0.49507041002E+01  0.19559835197E+03  0.17062044786E+03 0.  0.
         24    2    3    3    0    0 -0.89162480978E+02  0.80607150164E+02 -0.30498173923E+02  0.14909080072E+03  0.82767551455E+02 0.  0.
         -6    2    1    2    0  502  0.50587604584E+02 -0.81017052882E+02  0.34025693339E+03  0.39337828093E+03  0.17276811799E+03 0.  0.
        -24    2    5    5    0    0 -0.16096286413E+02 -0.55502301812E+02  0.96409901888E+02  0.13924994994E+03  0.82195397883E+02 0.  0.
          5    1    3    3  501    0  0.38574876394E+02  0.40990271818E+00  0.25547469823E+02  0.46507551252E+02  0.47000000000E+01 0. -1.
        -11    1    4    4    0    0 -0.42627558495E+02  0.64064113749E+02  0.18901353328E+02  0.79237494732E+02  0.00000000000E+00 0.  1.
         12    1    4    4    0    0 -0.46534922483E+02  0.16543036415E+02 -0.49399527251E+02  0.69853305985E+02  0.00000000000E+00 0. -1.
         -5    1    5    5    0  502  0.66683890997E+02 -0.25514751070E+02  0.24384703150E+03  0.25412833099E+03  0.47000000000E+01 0.  1.
         11    1    6    6    0    0 -0.21637504440E+02  0.14116646815E+02  0.89821321777E+01  0.27352148255E+02  0.00000000000E+00 0. -1.
        -12    1    6    6    0    0  0.55412180271E+01 -0.69618948627E+02  0.87427769710E+02  0.11189780168E+03  0.00000000000E+00 0.  1.
</event>
<event>
12    1  0.8331241E-002  0.3112196E+03  0.7818608E-02  0.1079770E+00
         21   -1    0    0  503  502  0.00000000000E+00  0.00000000000E+00  0.23401110575E+03  0.23401110575E+03  0.00000000000E+00 0.  1.
         21   -1    0    0  501  503 -0.00000000000E+00 -0.00000000000E+00 -0.17431569771E+04  0.17431569771E+04  0.00000000000E+00 0. -1.
          6    2    1    2  501    0 -0.66151495944E+01 -0.25920240152E+03 -0.16178574059E+04  0.16475079445E+04  0.17201801116E+03 0.  0.
         24    2    3    3    0    0  0.18603653227E+02 -0.12155822707E+03 -0.50026426005E+03  0.52117831404E+03  0.78993712783E+02 0.  0.
         -6    2    1    2    0  502  0.66151495944E+01  0.25920240152E+03  0.10871153452E+03  0.32966013839E+03  0.17212775472E+03 0.  0.
        -24    2    5    5    0    0  0.66548735536E+02  0.12056039475E+03  0.42660968666E+02  0.16474073985E+03  0.79724589268E+02 0.  0.
          5    1    3    3  501    0 -0.25218802821E+02 -0.13764417446E+03 -0.11175931459E+04  0.11263296305E+04  0.47000000000E+01 0. -1.
        -11    1    4    4    0    0 -0.25826472822E+02 -0.53980069311E+02 -0.14575198696E+03  0.15755791406E+03  0.00000000000E+00 0.  1.
         12    1    4    4    0    0  0.44430126049E+02 -0.67578157757E+02 -0.35451227309E+03  0.36362039998E+03  0.00000000000E+00 0. -1.
         -5    1    5    5    0  502 -0.59933585942E+02  0.13864200677E+03  0.66050565858E+02  0.16491939854E+03  0.47000000000E+01 0.  1.
         13    1    6    6    0    0 -0.91141726413E+01  0.48680778280E+02 -0.54440070725E+01  0.49824928800E+02  0.00000000000E+00 0. -1.
        -14    1    6    6    0    0  0.75662908177E+02  0.71879616469E+02  0.48104975739E+02  0.11491581105E+03  0.00000000000E+00 0.  1.
</event>
<event>
12    1  0.8331241E-002  0.2047657E+03  0.7818608E-02  0.1146004E+00
         21   -1    0    0  503  502  0.00000000000E+00  0.00000000000E+00  0.56613031166E+03  0.56613031166E+03  0.00000000000E+00 0. -1.
         21   -1    0    0  501  503 -0.00000000000E+00 -0.00000000000E+00 -0.42531252642E+03  0.42531252642E+03  0.00000000000E+00 0.  1.
          6    2    1    2  501    0 -0.10048947000E+03 -0.45077773954E+02 -0.38037464878E+03  0.43146912907E+03  0.17132015824E+03 0.  0.
         24    2    3    3    0    0 -0.13377315021E+03 -0.12167912986E+02 -0.30424277178E+03  0.34197602871E+03  0.79628049111E+02 0.  0.
         -6    2    1    2    0  502  0.10048947000E+03  0.45077773954E+02  0.52119243403E+03  0.55997370900E+03  0.17262346945E+03 0.  0.
        -24    2    5    5    0    0  0.81612284107E+02 -0.86820517619E+01  0.18340696950E+03  0.21738419216E+03  0.82956781510E+02 0.  0.
          5    1    3    3  501    0  0.33283680210E+02 -0.32909860969E+02 -0.76131877002E+02  0.89493100366E+02  0.47000000000E+01 0. -1.
        -13    1    4    4    0    0 -0.10423681616E+03  0.32048675588E+01 -0.14102051588E+03  0.17539204919E+03  0.00000000000E+00 0.  1.
         14    1    4    4    0    0 -0.29536334048E+02 -0.15372780544E+02 -0.16322225590E+03  0.16658397952E+03  0.00000000000E+00 0. -1.
         -5    1    5    5    0  502  0.18877185890E+02  0.53759825716E+02  0.33778546452E+03  0.34258951684E+03  0.47000000000E+01 0.  1.
         11    1    6    6    0    0  0.35282571504E+02 -0.10471405330E+02  0.16233749446E+03  0.16645711847E+03  0.00000000000E+00 0. -1.
        -12    1    6    6    0    0  0.46329712603E+02  0.17893535683E+01  0.21069475043E+02  0.50927073690E+02  0.00000000000E+00 0.  1.
</event>
<event>
12    1  0.8331241E-002  0.2162790E+03  0.7818608E-02  0.1136695E+00
         21   -1    0    0  503  502  0.00000000000E+00  0.00000000000E+00  0.32978789644E+04  0.32978789644E+04  0.00000000000E+00 0.  1.
         21   -1    0    0  501  503 -0.00000000000E+00 -0.00000000000E+00 -0.33644968096E+02  0.33644968096E+02  0.00000000000E+00 0. -1.
          6    2    1    2  501    0 -0.50261233359E+02 -0.12153068616E+03  0.36521258293E+03  0.42444884781E+03  0.17169943045E+03 0.  0.
         24    2    3    3    0    0 -0.58863542013E+02 -0.54320276027E+01  0.18778895521E+03  0.21218926167E+03  0.79152811496E+02 0.  0.
         -6    2    1    2    0  502  0.50261233359E+02  0.12153068616E+03  0.28990214133E+04  0.29070750846E+04  0.17165224605E+03 0.  0.
        -24    2    5    5    0    0 -0.49697839985E+01  0.13558169265E+03  0.22659187074E+04  0.22713951162E+04  0.80256408465E+02 0.  0.
          5    1    3    3  501    0  0.86023086537E+01 -0.11609865855E+03  0.17742362772E+03  0.21225958614E+03  0.47000000000E+01 0. -1.
        -13    1    4    4    0    0  0.10733083237E+02  0.20571293014E+02  0.31331911244E+02  0.38988021677E+02  0.00000000000E+00 0.  1.
         14    1    4    4    0    0 -0.69596625250E+02 -0.26003320617E+02  0.15645704396E+03  0.17320123999E+03  0.00000000000E+00 0. -1.
         -5    1    5    5    0  502  0.55231017357E+02 -0.14051006497E+02  0.63310270590E+03  0.63567996844E+03  0.47000000000E+01 0.  1.
         11    1    6    6    0    0 -0.10963231897E+02  0.88105580606E+02  0.84109159516E+03  0.84576465830E+03  0.00000000000E+00 0. -1.
        -12    1    6    6    0    0  0.59934478986E+01  0.47476112048E+02  0.14248271123E+04  0.14256304579E+04  0.00000000000E+00 0.  1.
</event>
<event>
12    1  0.8331241E-002  0.2934487E+03  0.7818608E-02  0.1088618E+00
         21   -1    0    0  501  502  0.00000000000E+00  0.00000000000E+00  0.10339231492E+03  0.10339231492E+03  0.00000000000E+00 0.  1.
         21   -1    0    0  502  503 -0.00000000000E+00 -0.00000000000E+00 -0.28625102983E+04  0.28625102983E+04  0.00000000000E+00 0. -1.
         -6    2    1    2    0  503 -0.17019928349E+03 -0.16483916465E+03 -0.26289530984E+04  0.26452800499E+04  0.17312539510E+03 0.  0.
        -24    2    3    3    0    0 -0.43572315697E+02 -0.13480341662E+03 -0.14415255692E+04  0.14507329549E+04  0.80991554060E+02 0.  0.
          6    2    1    2  501    0  0.17019928349E+03  0.16483916465E+03 -0.13016488489E+03  0.32062256325E+03  0.17238382901E+03 0.  0.
         24    2    5    5    0    0  0.62585521992E+02  0.30217045757E+02 -0.10011246725E+03  0.14561092260E+03  0.79686995576E+02 0.  0.
          5    1    5    5  501    0  0.10761376149E+03  0.13462211889E+03 -0.30052417640E+02  0.17501164065E+03  0.47000000000E+01 0. -1.
        -13    1    6    6    0    0  0.59341866236E+02  0.38292826776E+02 -0.33030416878E+02  0.77966698724E+02  0.00000000000E+00 0.  1.
         14    1    6    6    0    0  0.32436557567E+01 -0.80757810187E+01 -0.67082050367E+02  0.67644223872E+02  0.00000000000E+00 0. -1.
         -5    1    3    3    0  503 -0.12662696779E+03 -0.30035748027E+02 -0.11874275292E+04  0.11945470951E+04  0.47000000000E+01 0.  1.
         11    1    4    4    0    0 -0.51375681754E+02 -0.13819012456E+03 -0.14192728309E+04  0.14269097168E+04  0.00000000000E+00 0. -1.
        -12    1    4    4    0    0  0.78033660579E+01  0.33867079399E+01 -0.22252738289E+02  0.23823238106E+02  0.00000000000E+00 0.  1.
</event>
<event>
12    1  0.8331241E-002  0.1979726E+03  0.7818608E-02  0.1151613E+00
         21   -1    0    0  503  502  0.00000000000E+00  0.00000000000E+00  0.15102859489E+03  0.15102859489E+03  0.00000000000E+00 0. -1.
         21   -1    0    0  501  503 -0.00000000000E+00 -0.00000000000E+00 -0.31693845670E+03  0.31693845670E+03  0.00000000000E+00 0.  1.
          6    2    1    2  501    0 -0.40534435574E+02 -0.86960787020E+02 -0.18323717558E+03  0.26923759646E+03  0.17235951348E+03 0.  0.
         24    2    3    3    0    0 -0.16834645955E+02 -0.11892532229E+03 -0.96379604449E+02  0.17358332731E+03  0.80096852513E+02 0.  0.
         -6    2    1    2    0  502  0.40534435574E+02  0.86960787020E+02  0.17327313774E+02  0.19872945512E+03  0.17317026761E+03 0.  0.
        -24    2    5    5    0    0  0.79187450967E+02  0.54771073715E+02  0.54431152342E+02  0.13604757514E+03  0.79219123008E+02 0.  0.
          5    1    3    3  501    0 -0.23699789619E+02  0.31964535266E+02 -0.86857571134E+02  0.95654269147E+02  0.47000000000E+01 0. -1.
        -13    1    4    4    0    0 -0.19295864009E+02 -0.95862085187E+02 -0.28504518396E+02  0.10185468724E+03  0.00000000000E+00 0.  1.
         14    1    4    4    0    0  0.24612180543E+01 -0.23063237098E+02 -0.67875086053E+02  0.71728640071E+02  0.00000000000E+00 0. -1.
         -5    1    5    5    0  502 -0.38653015393E+02  0.32189713304E+02 -0.37103838568E+02  0.62681879982E+02  0.47000000000E+01 0.  1.
         13    1    6    6    0    0  0.19236036237E+01  0.35424005639E+02 -0.61136999194E+01  0.35999135450E+02  0.00000000000E+00 0. -1.
        -14    1    6    6    0    0  0.77263847344E+02  0.19347068076E+02  0.60544852261E+02  0.10004843969E+03  0.00000000000E+00 0.  1.
</event>
<event>
12    1  0.8331241E-002  0.1913708E+03  0.7818608E-02  0.1157531E+00
         21   -1    0    0  501  502  0.00000000000E+00  0.00000000000E+00  0.21191155773E+03  0.21191155773E+03  0.00000000000E+00 0.  1.
         21   -1    0    0  502  503 -0.00000000000E+00 -0.00000000000E+00 -0.44286321675E+03  0.44286321675E+03  0.00000000000E+00 0. -1.
         -6    2    1    2    0  503  0.73863311173E+02 -0.39323630585E+02 -0.37153747136E+03  0.41731501149E+03  0.17061532619E+03 0.  0.
        -24    2    3    3    0    0  0.84485468493E+02  0.19079470604E+02 -0.30973298030E+03  0.33149171879E+03  0.80314506522E+02 0.  0.
          6    2    1    2  501    0 -0.73863311173E+02  0.39323630585E+02  0.14058581234E+03  0.23745976299E+03  0.17210645469E+03 0.  0.
         24    2    5    5    0    0 -0.11016567715E+03  0.54964409483E+02  0.78107364056E+02  0.16337776625E+03  0.73715476359E+02 0.  0.
          5    1    5    5  501    0  0.36302365977E+02 -0.15640778898E+02  0.62478448280E+02  0.74081996731E+02  0.47000000000E+01 0. -1.
        -11    1    6    6    0    0 -0.10586306291E+02 -0.14707581418E+02 -0.13562825983E+01  0.18172020651E+02  0.00000000000E+00 0.  1.
         12    1    6    6    0    0 -0.99579370860E+02  0.69671990901E+02  0.79463646655E+02  0.14520574560E+03  0.00000000000E+00 0. -1.
         -5    1    3    3    0  503 -0.10622157320E+02 -0.58403101189E+02 -0.61804491069E+02  0.85823292706E+02  0.47000000000E+01 0.  1.
         13    1    4    4    0    0  0.91754697791E+01 -0.13544515758E+01 -0.17900688317E+03  0.17924700278E+03  0.00000000000E+00 0. -1.
        -14    1    4    4    0    0  0.75309998714E+02  0.20433922179E+02 -0.13072609713E+03  0.15224471601E+03  0.00000000000E+00 0.  1.
</event>
<event>
12    1  0.8331241E-002  0.1793194E+03  0.7818608E-02  0.1168534E+00
         21   -1    0    0  503  502  0.00000000000E+00  0.00000000000E+00  0.85008152283E+02  0.85008152283E+02  0.00000000000E+00 0.  1.
         21   -1    0    0  501  503 -0.00000000000E+00 -0.00000000000E+00 -0.39898066421E+03  0.39898066421E+03  0.00000000000E+00 0.  1.
          6    2    1    2  501    0 -0.47051668142E+02  0.15914823813E+02 -0.21281956754E+03  0.27810686358E+03  0.17200034346E+03 0.  0.
         24    2    3    3    0    0 -0.29929669298E+02  0.48493230815E+02 -0.33149161502E+02  0.94645531815E+02  0.67908256089E+02 0.  0.
         -6    2    1    2    0  502  0.47051668142E+02 -0.15914823813E+02 -0.10115294439E+03  0.20588195291E+03  0.17230298687E+03 0.  0.
        -24    2    5    5    0    0 -0.13003539919E+01 -0.40317590335E+02 -0.11825952872E+03  0.14888951231E+03  0.80966485236E+02 0.  0.
          5    1    3    3  501    0 -0.17121998844E+02 -0.32578407002E+02 -0.17967040604E+03  0.18346133177E+03  0.47000000000E+01 0. -1.
        -13    1    4    4    0    0 -0.19371897132E+02  0.22075301812E+02  0.19183436509E+02  0.35079817344E+02  0.00000000000E+00 0.  1.
         14    1    4    4    0    0 -0.10557772165E+02  0.26417929003E+02 -0.52332598011E+02  0.59565714471E+02  0.00000000000E+00 0. -1.
         -5    1    5    5    0  502  0.48352022134E+02  0.24402766522E+02  0.17106584335E+02  0.56992440604E+02  0.47000000000E+01 0.  1.
         13    1    6    6    0    0 -0.20771434027E+02 -0.59541278435E+02 -0.84394499148E+02  0.10535201847E+03  0.00000000000E+00 0. -1.
        -14    1    6    6    0    0  0.19471080035E+02  0.19223688100E+02 -0.33865029574E+02  0.43537493840E+02  0.00000000000E+00 0.  1.
</event>
<event>
12    1  0.8331241E-002  0.1863841E+03  0.7818608E-02  0.1162466E+00
         21   -1    0    0  501  502  0.00000000000E+00  0.00000000000E+00  0.44160449126E+02  0.44160449126E+02  0.00000000000E+00 0.  1.
         21   -1    0    0  502  503 -0.00000000000E+00 -0.00000000000E+00 -0.91256460692E+03  0.91256460692E+03  0.00000000000E+00 0. -1.
         -6    2    1    2    0  503 -0.58529217653E+01 -0.69728722455E+02 -0.61760313352E+03  0.64425074560E+03  0.16949643432E+03 0.  0.
        -24    2    3    3    0    0  0.49162678256E+02 -0.63393279428E+02 -0.51549188868E+03  0.52799391610E+03  0.81301976169E+02 0.  0.
          6    2    1    2  501    0  0.58529217653E+01  0.69728722455E+02 -0.25080102428E+03  0.31247431045E+03  0.17275036753E+03 0.  0.
         24    2    5    5    0    0  0.31002770104E+02  0.10956292845E+03 -0.18379049376E+03  0.23042688490E+03  0.79701923719E+02 0.  0.
          5    1    5    5  501    0 -0.25149848339E+02 -0.39834205993E+02 -0.67010530516E+02  0.82047425546E+02  0.47000000000E+01 0. -1.
        -13    1    6    6    0    0 -0.33686098950E+01  0.13370898296E+02  0.58869599730E+01  0.14992823336E+02  0.00000000000E+00 0.  1.
         14    1    6    6    0    0  0.34371379999E+02  0.96192030153E+02 -0.18967745373E+03  0.21543406156E+03  0.00000000000E+00 0. -1.
         -5    1    3    3    0  503 -0.55015600021E+02 -0.63354430274E+01 -0.10211124484E+03  0.11625682950E+03  0.47000000000E+01 0.  1.
         13    1    4    4    0    0 -0.13627457942E+02 -0.28774106401E+02 -0.28064709612E+03  0.28244725060E+03  0.00000000000E+00 0. -1.
        -14    1    4    4    0    0  0.62790136198E+02 -0.34619173027E+02 -0.23484479256E+03  0.24554666550E+03  0.00000000000E+00 0.  1.
</event>
<event>
12    1  0.8331241E-002  0.3463217E+03  0.7818608E-02  0.1064221E+00
         21   -1    0    0  501  502  0.00000000000E+00  0.00000000000E+00  0.16153335070E+04  0.16153335070E+04  0.00000000000E+00 0.  1.
         21   -1    0    0  502  503 -0.00000000000E+00 -0.00000000000E+00 -0.15536562261E+03  0.15536562261E+03  0.00000000000E+00 0.  1.
         -6    2    1    2    0  503  0.83451619198E+02 -0.28808647894E+03  0.89152083497E+02  0.35681274320E+03  0.17149124650E+03 0.  0.
        -24    2    3    3    0    0  0.26235535852E+02 -0.52736816483E+02 -0.34146796608E+01  0.97479290957E+02  0.77595598934E+02 0.  0.
          6    2    1    2  501    0 -0.83451619198E+02  0.28808647894E+03  0.13708158009E+04  0.14138863864E+04  0.17314953527E+03 0.  0.
         24    2    5    5    0    0 -0.93716699462E+02  0.14342513498E+03  0.95623983166E+03  0.97465114126E+03  0.78718755045E+02 0.  0.
          5    1    5    5  501    0  0.10265080264E+02  0.14466134396E+03  0.41457596924E+03  0.43923524514E+03  0.47000000000E+01 0. -1.
        -11    1    6    6    0    0 -0.96892592364E+02  0.14385156089E+03  0.80929329595E+03  0.82766967136E+03  0.00000000000E+00 0.  1.
         12    1    6    6    0    0  0.31758929016E+01 -0.42642590336E+00  0.14694653571E+03  0.14698146990E+03  0.00000000000E+00 0. -1.
         -5    1    3    3    0  503  0.57216083346E+02 -0.23534966246E+03  0.92566763158E+02  0.25933345225E+03  0.47000000000E+01 0.  1.
         13    1    4    4    0    0  0.78636839647E+01 -0.52634484664E+02 -0.33024647462E+02  0.62632689878E+02  0.00000000000E+00 0. -1.
        -14    1    4    4    0    0  0.18371851888E+02 -0.10233181903E+00  0.29609967801E+02  0.34846601079E+02  0.00000000000E+00 0.  1.
</event>
<event>
12    1  0.8331241E-002  0.2065579E+03  0.7818608E-02  0.1144869E+00
         21   -1    0    0  503  502  0.00000000000E+00  0.00000000000E+00  0.54392060153E+03  0.54392060153E+03  0.00000000000E+00 0. -1.
         21   -1    0    0  501  503 -0.00000000000E+00 -0.00000000000E+00 -0.88706557652E+02  0.88706557652E+02  0.00000000000E+00 0. -1.
          6    2    1    2  501    0  0.10497908380E+03 -0.31381866637E+02  0.11349500467E+03  0.23333019890E+03  0.17191985354E+03 0.  0.
         24    2    3    3    0    0  0.68844572429E+02 -0.60429983000E+02  0.13508236020E+03  0.18197262988E+03  0.80470093775E+02 0.  0.
         -6    2    1    2    0  502 -0.10497908380E+03  0.31381866637E+02  0.34171903921E+03  0.39929696029E+03  0.17510205924E+03 0.  0.
        -24    2    5    5    0    0 -0.12781718822E+03  0.61454409013E+02  0.30161236749E+03  0.34401068772E+03  0.85202435712E+02 0.  0.
          5    1    3    3  501    0  0.36134511373E+02  0.29048116363E+02 -0.21587355523E+02  0.51357569013E+02  0.47000000000E+01 0. -1.
        -13    1    4    4    0    0  0.38640888526E+02  0.11750339679E+02  0.67113575591E+02  0.78328926823E+02  0.00000000000E+00 0.  1.
         14    1    4    4    0    0  0.30203683903E+02 -0.72180322679E+02  0.67968784605E+02  0.10364370306E+03  0.00000000000E+00 0. -1.
         -5    1    5    5    0  502  0.22838104416E+02 -0.30072542376E+02  0.40106671717E+02  0.55286272569E+02  0.47000000000E+01 0.  1.
         11    1    6    6    0    0 -0.90822375034E+02 -0.25908577097E+01  0.18103558849E+03  0.20255690719E+03  0.00000000000E+00 0. -1.
        -12    1    6    6    0    0 -0.36994813185E+02  0.64045266723E+02  0.12057677900E+03  0.14145378053E+03  0.00000000000E+00 0.  1.
</event>
<event>
12    1  0.8331241E-002  0.1764446E+03  0.7818608E-02  0.1171797E+00
         21   -1    0    0  503  502  0.00000000000E+00  0.00000000000E+00  0.39125538797E+03  0.39125538797E+03  0.00000000000E+00 0. -1.
         21   -1    0    0  501  503 -0.00000000000E+00 -0.00000000000E+00 -0.16690141746E+03  0.16690141746E+03  0.00000000000E+00 0. -1.
          6    2    1    2  501    0 -0.15116725805E+02  0.18583618604E+02 -0.91053644647E+02  0.19675028835E+03  0.17276007491E+03 0.  0.
         24    2    3    3    0    0 -0.60952184312E+02 -0.39160069646E+01 -0.10373653374E+03  0.14392919329E+03  0.78891319979E+02 0.  0.
         -6    2    1    2    0  502  0.15116725805E+02 -0.18583618604E+02  0.31540761516E+03  0.36140651707E+03  0.17481087095E+03 0.  0.
        -24    2    5    5    0    0 -0.44306924459E+02  0.16532955681E+02  0.26213243823E+03  0.27408711214E+03  0.64605632055E+02 0.  0.
          5    1    3    3  501    0  0.45835458508E+02  0.22499625568E+02  0.12682889088E+02  0.52821095056E+02  0.47000000000E+01 0. -1.
        -11    1    4    4    0    0 -0.52581989609E+02  0.11942078649E+02 -0.18775334768E+02  0.57096340245E+02  0.00000000000E+00 0.  1.
         12    1    4    4    0    0 -0.83701947029E+01 -0.15858085614E+02 -0.84961198968E+02  0.86832853050E+02  0.00000000000E+00 0. -1.
         -5    1    5    5    0  502  0.59423650264E+02 -0.35116574285E+02  0.53275176934E+02  0.87319404931E+02  0.47000000000E+01 0.  1.
         13    1    6    6    0    0  0.18831792976E+01  0.14333704797E+02  0.95959558300E+01  0.17351767223E+02  0.00000000000E+00 0. -1.
        -14    1    6    6    0    0 -0.46190103757E+02  0.21992508845E+01  0.25253648240E+03  0.25673534492E+03  0.00000000000E+00 0.  1.
</event>
<event>
12    1  0.8331241E-002  0.1727446E+03  0.7818608E-02  0.1175280E+00
         21   -1    0    0  501  502  0.00000000000E+00  0.00000000000E+00  0.17319852295E+03  0.17319852295E+03  0.00000000000E+00 0.  1.
         21   -1    0    0  502  503 -0.00000000000E+00 -0.00000000000E+00 -0.12958155012E+04  0.12958155012E+04  0.00000000000E+00 0.  1.
         -6    2    1    2    0  503  0.51682987770E+01 -0.11924885526E+02 -0.12453346745E+04  0.12571170802E+04  0.17121912150E+03 0.  0.
        -24    2    3    3    0    0 -0.43633027604E+02  0.86275362585E+01 -0.10714130547E+04  0.10752523190E+04  0.79141268786E+02 0.  0.
          6    2    1    2  501    0 -0.51682987770E+01  0.11924885526E+02  0.12271769624E+03  0.21189694399E+03  0.17225494970E+03 0.  0.
         24    2    5    5    0    0 -0.68028985141E+02  0.17356138065E+02  0.56633433699E+02  0.12040823348E+03  0.79759755080E+02 0.  0.
          5    1    5    5  501    0  0.62860686364E+02 -0.54312525394E+01  0.66084262536E+02  0.91488710501E+02  0.47000000000E+01 0. -1.
        -13    1    6    6    0    0 -0.32244396228E+02  0.45407237663E+02  0.12571185717E+02  0.57092495397E+02  0.00000000000E+00 0.  1.
         14    1    6    6    0    0 -0.35784588914E+02 -0.28051099598E+02  0.44062247983E+02  0.63315738088E+02  0.00000000000E+00 0. -1.
         -5    1    3    3    0  503  0.48801326381E+02 -0.20552421784E+02 -0.17392161987E+03  0.18186476117E+03  0.47000000000E+01 0.  1.
         11    1    4    4    0    0 -0.46872380142E+01  0.37173891296E+02 -0.30022301300E+03  0.30255202186E+03  0.00000000000E+00 0. -1.
        -12    1    4    4    0    0 -0.38945789590E+02 -0.28546355038E+02 -0.77119004166E+03  0.77270029719E+03  0.00000000000E+00 0.  1.
</event>
<event>
12    1  0.8331241E-002  0.2096659E+03  0.7818608E-02  0.1141941E+00
         21   -1    0    0  501  502  0.00000000000E+00  0.00000000000E+00  0.22251784390E+03  0.22251784390E+03  0.00000000000E+00 0.  1.
         21   -1    0    0  502  503 -0.00000000000E+00 -0.00000000000E+00 -0.22485792367E+03  0.22485792367E+03  0.00000000000E+00 0. -1.
         -6    2    1    2    0  503 -0.57527297641E+01  0.12006617179E+03 -0.79857495581E+02  0.22383892260E+03  0.17110717157E+03 0.  0.
        -24    2    3    3    0    0  0.57968581534E+02  0.46146365297E+02 -0.61317840643E+02  0.12438867317E+03  0.78884858863E+02 0.  0.
          6    2    1    2  501    0  0.57527297641E+01 -0.12006617179E+03  0.77517415805E+02  0.22353684497E+03  0.17178705365E+03 0.  0.
         24    2    5    5    0    0  0.21350307212E+00  0.15328106887E+01  0.64274270721E+02  0.10100331298E+03  0.77897960588E+02 0.  0.
          5    1    5    5  501    0  0.55392266919E+01 -0.12159898248E+03  0.13243145084E+02  0.12253353200E+03  0.47000000000E+01 0. -1.
        -11    1    6    6    0    0  0.18871364079E+02  0.32678389677E+02  0.48414877514E+02  0.61384085061E+02  0.00000000000E+00 0.  1.
         12    1    6    6    0    0 -0.18657861007E+02 -0.31145578988E+02  0.15859393207E+02  0.39619227918E+02  0.00000000000E+00 0. -1.
         -5    1    3    3    0  503 -0.63721311298E+02  0.73919806491E+02 -0.18539654938E+02  0.99450249423E+02  0.47000000000E+01 0.  1.
         11    1    4    4    0    0  0.28526117277E+01  0.51183305617E+02 -0.40221838471E+02  0.65158763474E+02  0.00000000000E+00 0. -1.
        -12    1    4    4    0    0  0.55115969806E+02 -0.50369403195E+01 -0.21096002172E+02  0.59229909700E+02  0.00000000000E+00 0.  1.
</event>
<event>
12    1  0.8331241E-002  0.2438545E+03  0.7818608E-02  0.1117444E+00
         21   -1    0    0  503  502  0.00000000000E+00  0.00000000000E+00  0.83425467534E+02  0.83425467534E+02  0.00000000000E+00 0. -1.
         21   -1    0    0  501  503 -0.00000000000E+00 -0.00000000000E+00 -0.85257286154E+03  0.85257286154E+03  0.00000000000E+00 0. -1.
          6    2    1    2  501    0  0.51125509092E+02  0.16574423777E+03 -0.57715486501E+03  0.62655625112E+03  0.17140603131E+03 0.  0.
         24    2    3    3    0    0 -0.36767965661E+02  0.88678774977E+02 -0.25373435348E+03  0.28262709309E+03  0.79253663523E+02 0.  0.
         -6    2    1    2    0  502 -0.51125509092E+02 -0.16574423777E+03 -0.19199252899E+03  0.30944207796E+03  0.16973007509E+03 0.  0.
        -24    2    5    5    0    0 -0.45347456156E+02 -0.11580920176E+03 -0.20921782278E+03  0.25609702699E+03  0.79658187744E+02 0.  0.
          5    1    3    3  501    0  0.87893474753E+02  0.77065462791E+02 -0.32342051154E+03  0.34392915803E+03  0.47000000000E+01 0. -1.
        -13    1    4    4    0    0 -0.50700693657E+00 -0.10963736201E+02 -0.46642893789E+01  0.11925441833E+02  0.00000000000E+00 0.  1.
         14    1    4    4    0    0 -0.36260958725E+02  0.99642511177E+02 -0.24907006410E+03  0.27070165125E+03  0.00000000000E+00 0. -1.
         -5    1    5    5    0  502 -0.57780529356E+01 -0.49935036003E+02  0.17225293786E+02  0.53345050964E+02  0.47000000000E+01 0.  1.
         13    1    6    6    0    0 -0.40998232499E+02 -0.11171357194E+03 -0.12841936575E+03  0.17507801325E+03  0.00000000000E+00 0. -1.
        -14    1    6    6    0    0 -0.43492236565E+01 -0.40956298215E+01 -0.80798457026E+02  0.81019013743E+02  0.00000000000E+00 0.  1.
</event>
<event>
12    1  0.8331241E-002  0.2197741E+03  0.7818608E-02  0.1134325E+00
         21   -1    0    0  501  502  0.00000000000E+00  0.00000000000E+00  0.80672710065E+02  0.80672710065E+02  0.00000000000E+00 0. -1.
         21   -1    0    0  502  503 -0.00000000000E+00 -0.00000000000E+00 -0.79506878127E+03  0.79506878127E+03  0.00000000000E+00 0.  1.
         -6    2    1    2    0  503  0.13122263681E+03 -0.29465737793E+02 -0.57609151108E+03  0.61607088106E+03  0.17197177456E+03 0.  0.
        -24    2    3    3    0    0  0.47756522222E+02 -0.71265035089E+02 -0.26288320604E+03  0.28921417564E+03  0.84722303617E+02 0.  0.
          6    2    1    2  501    0 -0.13122263681E+03  0.29465737793E+02 -0.13830456013E+03  0.25967061027E+03  0.17381905641E+03 0.  0.
         24    2    5    5    0    0 -0.51084538933E+02  0.44411158280E+02 -0.14392430745E+03  0.17782226340E+03  0.79527165092E+02 0.  0.
          5    1    5    5  501    0 -0.80138097876E+02 -0.14945420487E+02  0.56197473286E+01  0.81848346867E+02  0.47000000000E+01 0. -1.
        -13    1    6    6    0    0 -0.60988829083E+02  0.23701152906E+01 -0.78711391330E+02  0.99602900784E+02  0.00000000000E+00 0.  1.
         14    1    6    6    0    0  0.99042901506E+01  0.42041042989E+02 -0.65212916125E+02  0.78219362619E+02  0.00000000000E+00 0. -1.
         -5    1    3    3    0  503  0.83466114587E+02  0.41799297297E+02 -0.31320830503E+03  0.32685670543E+03  0.47000000000E+01 0.  1.
         13    1    4    4    0    0 -0.20733981708E+02 -0.25227429903E+01 -0.73601087343E+02  0.76507400215E+02  0.00000000000E+00 0. -1.
        -14    1    4    4    0    0  0.68490503930E+02 -0.68742292099E+02 -0.18928211870E+03  0.21270677542E+03  0.00000000000E+00 0.  1.
</event>
<event>
12    1  0.8331241E-002  0.1809552E+03  0.7818608E-02  0.1167875E+00
         21   -1    0    0  501  502  0.00000000000E+00  0.00000000000E+00  0.44975907014E+03  0.44975907014E+03  0.00000000000E+00 0. -1.
         21   -1    0    0  502  503 -0.00000000000E+00 -0.00000000000E+00 -0.84144704340E+02  0.84144704340E+02  0.00000000000E+00 0. -1.
         -6    2    1    2    0  503  0.30314731583E+02  0.48374440713E+02  0.79756800851E+02  0.19775216251E+03  0.17171400941E+03 0.  0.
        -24    2    3    3    0    0 -0.17055074238E+01  0.53691985683E+02 -0.16981353168E+02  0.95605540275E+02  0.77241924456E+02 0.  0.
          6    2    1    2  501    0 -0.30314731583E+02 -0.48374440713E+02  0.28585756495E+03  0.33615161197E+03  0.16740456782E+03 0.  0.
         24    2    5    5    0    0 -0.19148155485E+02 -0.71405098482E+02  0.29039749882E+03  0.30973562025E+03  0.78358836022E+02 0.  0.
          5    1    5    5  501    0 -0.11166576099E+02  0.23030657769E+02 -0.45399338717E+01  0.26415991721E+02  0.47000000000E+01 0. -1.
        -11    1    6    6    0    0  0.26939239929E+02 -0.24362709264E+02  0.15463279834E+03  0.15884132514E+03  0.00000000000E+00 0.  1.
         12    1    6    6    0    0 -0.46087395413E+02 -0.47042389218E+02  0.13576470048E+03  0.15089429510E+03  0.00000000000E+00 0. -1.
         -5    1    3    3    0  503  0.32020239007E+02 -0.53175449702E+01  0.96738154019E+02  0.10214662223E+03  0.47000000000E+01 0.  1.
         13    1    4    4    0    0  0.11534655484E+02  0.67931556502E+02  0.13012990933E+01  0.68916166647E+02  0.00000000000E+00 0. -1.
        -14    1    4    4    0    0 -0.13240162908E+02 -0.14239570819E+02 -0.18282652262E+02  0.26689373628E+02  0.00000000000E+00 0.  1.
</event>
<event>
12    1  0.8331241E-002  0.2089460E+03  0.7818608E-02  0.1144018E+00
         21   -1    0    0  503  502  0.00000000000E+00  0.00000000000E+00  0.81407456850E+02  0.81407456850E+02  0.00000000000E+00 0.  1.
         21   -1    0    0  501  503 -0.00000000000E+00 -0.00000000000E+00 -0.87559477997E+03  0.87559477997E+03  0.00000000000E+00 0.  1.
          6    2    1    2  501    0  0.10287981435E+03  0.39978739069E+01 -0.69912434229E+03  0.72744742386E+03  0.17264028879E+03 0.  0.
         24    2    3    3    0    0  0.95619648239E+02 -0.40926922089E+02 -0.63724762994E+03  0.65049441978E+03  0.78995684792E+02 0.  0.
         -6    2    1    2    0  502 -0.10287981435E+03 -0.39978739069E+01 -0.95062980838E+02  0.22955481296E+03  0.18181914814E+03 0.  0.
        -24    2    5    5    0    0 -0.12286612375E+03 -0.59892567011E+01 -0.15469707027E+02  0.14733196088E+03  0.79595472857E+02 0.  0.
          5    1    3    3  501    0  0.72601661114E+01  0.44924795996E+02 -0.61876712342E+02  0.76953004084E+02  0.47000000000E+01 0. -1.
        -13    1    4    4    0    0  0.55777755001E+02 -0.63729995913E+02 -0.40931224077E+03  0.41798227328E+03  0.00000000000E+00 0.  1.
         14    1    4    4    0    0  0.39841893237E+02  0.22803073824E+02 -0.22793538917E+03  0.23251214650E+03  0.00000000000E+00 0. -1.
         -5    1    5    5    0  502  0.19986309398E+02  0.19913827942E+01 -0.79593273811E+02  0.82222852084E+02  0.47000000000E+01 0.  1.
         13    1    6    6    0    0 -0.10607707762E+02  0.25445409780E+02 -0.13600817985E+02  0.30740439046E+02  0.00000000000E+00 0. -1.
        -14    1    6    6    0    0 -0.11225841599E+03 -0.31434666481E+02 -0.18688890421E+01  0.11659152183E+03  0.00000000000E+00 0.  1.
</event>
<event>
12    1  0.8331241E-002  0.2835786E+03  0.7818608E-02  0.1093913E+00
         21   -1    0    0  501  502  0.00000000000E+00  0.00000000000E+00  0.10162957387E+03  0.10162957387E+03  0.00000000000E+00 0.  1.
         21   -1    0    0  502  503 -0.00000000000E+00 -0.00000000000E+00 -0.11162339201E+04  0.11162339201E+04  0.00000000000E+00 0.  1.
         -6    2    1    2    0  503  0.20456771260E+02 -0.22246374850E+03 -0.83678880707E+03  0.88314694493E+03  0.17269748063E+03 0.  0.
        -24    2    3    3    0    0 -0.51983956788E+02 -0.17223395198E+03 -0.57817990574E+03  0.60988636346E+03  0.72818314690E+02 0.  0.
          6    2    1    2  501    0 -0.20456771260E+02  0.22246374850E+03 -0.17781553919E+03  0.33471654906E+03  0.17466597650E+03 0.  0.
         24    2    5    5    0    0 -0.34518099992E+00  0.22079695652E+03 -0.97966284383E+02  0.25222262352E+03  0.72577157419E+02 0.  0.
          5    1    5    5  501    0 -0.20111590260E+02  0.16667919809E+01 -0.79849254803E+02  0.82493925540E+02  0.47000000000E+01 0. -1.
        -13    1    6    6    0    0 -0.23813013824E+02  0.74137189978E+02 -0.61659074462E+02  0.99323834142E+02  0.00000000000E+00 0.  1.
         14    1    6    6    0    0  0.23467832824E+02  0.14665976654E+03 -0.36307209921E+02  0.15289878937E+03  0.00000000000E+00 0. -1.
         -5    1    3    3    0  503  0.72440728047E+02 -0.50229796519E+02 -0.25860890132E+03  0.27326058146E+03  0.47000000000E+01 0.  1.
         13    1    4    4    0    0 -0.83499930694E+01 -0.70605314803E+02 -0.12904736865E+03  0.14733654067E+03  0.00000000000E+00 0. -1.
        -14    1    4    4    0    0 -0.43633963719E+02 -0.10162863718E+03 -0.44913253710E+03  0.46254982279E+03  0.00000000000E+00 0.  1.
</event>
<event>
12    1  0.8331241E-002  0.3195864E+03  0.7818608E-02  0.1075860E+00
         21   -1    0    0  503  502  0.00000000000E+00  0.00000000000E+00  0.39596179379E+03  0.39596179379E+03  0.00000000000E+00 0.  1.
         21   -1    0    0  501  503 -0.00000000000E+00 -0.00000000000E+00 -0.35613382638E+03  0.35613382638E+03  0.00000000000E+00 0. -1.
          6    2    1    2  501    0  0.17613045528E+03  0.20366389440E+03 -0.17768856806E+03  0.36550936286E+03  0.17182243149E+03 0.  0.
         24    2    3    3    0    0  0.14056030453E+03  0.93718543961E+02 -0.49019932722E+02  0.19250380391E+03  0.78194603567E+02 0.  0.
         -6    2    1    2    0  502 -0.17613045528E+03 -0.20366389440E+03  0.21751653547E+03  0.38658625731E+03  0.17214694880E+03 0.  0.
        -24    2    5    5    0    0 -0.10451769921E+03 -0.20502335494E+03  0.13842447337E+03  0.27977858319E+03  0.78461425321E+02 0.  0.
          5    1    3    3  501    0  0.35570150753E+02  0.10994535044E+03 -0.12866863534E+03  0.17300555895E+03  0.47000000000E+01 0. -1.
        -13    1    4    4    0    0  0.30713727017E+02  0.35161664538E+02  0.19287363414E+02  0.50514137306E+02  0.00000000000E+00 0.  1.
         14    1    4    4    0    0  0.10984657751E+03  0.58556879424E+02 -0.68307296136E+02  0.14198966661E+03  0.00000000000E+00 0. -1.
         -5    1    5    5    0  502 -0.71612756067E+02  0.13594605429E+01  0.79092062101E+02  0.10680767412E+03  0.47000000000E+01 0.  1.
         11    1    6    6    0    0 -0.32612236287E+02 -0.13680129584E+03  0.57959392239E+02  0.15210997222E+03  0.00000000000E+00 0. -1.
        -12    1    6    6    0    0 -0.71905462925E+02 -0.68222059106E+02  0.80465081127E+02  0.12766861097E+03  0.00000000000E+00 0.  1.
</event>
<event>
12    1  0.8331241E-002  0.1896791E+03  0.7818608E-02  0.1159093E+00
         21   -1    0    0  501  502  0.00000000000E+00  0.00000000000E+00  0.42169423157E+03  0.42169423157E+03  0.00000000000E+00 0. -1.
         21   -1    0    0  502  503 -0.00000000000E+00 -0.00000000000E+00 -0.10340596529E+03  0.10340596529E+03  0.00000000000E+00 0. -1.
         -6    2    1    2    0  503 -0.76862320016E+02 -0.23677030954E+02  0.47821793752E+02  0.19561467126E+03  0.17178404356E+03 0.  0.
        -24    2    3    3    0    0 -0.33639498580E+02 -0.65324156716E+02 -0.13965989123E+02  0.10934465625E+03  0.79764300811E+02 0.  0.
          6    2    1    2  501    0  0.76862320016E+02  0.23677030954E+02  0.27046647253E+03  0.32948552559E+03  0.17011813771E+03 0.  0.
         24    2    5    5    0    0  0.97798737884E+02  0.64485432939E+02  0.19543724884E+03  0.24142228881E+03  0.79787462084E+02 0.  0.
          5    1    5    5  501    0 -0.20936417867E+02 -0.40808401985E+02  0.75029223690E+02  0.88063236786E+02  0.47000000000E+01 0. -1.
        -11    1    6    6    0    0  0.88271101404E+02  0.47157560638E+02  0.91438981000E+02  0.13556072482E+03  0.00000000000E+00 0.  1.
         12    1    6    6    0    0  0.95276364798E+01  0.17327872301E+02  0.10399826784E+03  0.10586156398E+03  0.00000000000E+00 0. -1.
         -5    1    3    3    0  503 -0.43222821437E+02  0.41647125762E+02  0.61787782876E+02  0.86270015010E+02  0.47000000000E+01 0.  1.
         13    1    4    4    0    0  0.14660199582E+02 -0.41103323430E+02 -0.30031358470E+02  0.52974400802E+02  0.00000000000E+00 0. -1.
        -14    1    4    4    0    0 -0.48299698162E+02 -0.24220833286E+02  0.16065369346E+02  0.56370255453E+02  0.00000000000E+00 0.  1.
</event>
<event>
12    1  0.8331241E-002  0.1972184E+03  0.7818608E-02  0.1154478E+00
         21   -1    0    0  503  502  0.00000000000E+00  0.00000000000E+00  0.12190979941E+03  0.12190979941E+03  0.00000000000E+00 0. -1.
         21   -1    0    0  501  503 -0.00000000000E+00 -0.00000000000E+00 -0.35998220188E+03  0.35998220188E+03  0.00000000000E+00 0. -1.
          6    2    1    2  501    0 -0.70901363459E+02  0.14242158371E+02 -0.21853172996E+03  0.29436576633E+03  0.18348091173E+03 0.  0.
         24    2    3    3    0    0  0.79871964620E+01  0.64429614615E+02 -0.12684404287E+03  0.16332795646E+03  0.79822550718E+02 0.  0.
         -6    2    1    2    0  502  0.70901363459E+02 -0.14242158371E+02 -0.19540672513E+02  0.18752623496E+03  0.17191395668E+03 0.  0.
        -24    2    5    5    0    0  0.11145729740E+03  0.15052689233E+02 -0.13913111256E+01  0.13409907714E+03  0.73015848607E+02 0.  0.
          5    1    3    3  501    0 -0.78888559921E+02 -0.50187456244E+02 -0.91687687096E+02  0.13103780987E+03  0.47000000000E+01 0. -1.
        -11    1    4    4    0    0  0.20027875370E+02  0.23367177492E+02 -0.14235955125E+01  0.30808560498E+02  0.00000000000E+00 0.  1.
         12    1    4    4    0    0 -0.12040678908E+02  0.41062437123E+02 -0.12542044736E+03  0.13251939596E+03  0.00000000000E+00 0. -1.
         -5    1    5    5    0  502 -0.40555933940E+02 -0.29294847603E+02 -0.18149361387E+02  0.53427157818E+02  0.47000000000E+01 0.  1.
         11    1    6    6    0    0 -0.69511734968E+01 -0.34333877395E+00  0.12074827022E+02  0.13936934459E+02  0.00000000000E+00 0. -1.
        -12    1    6    6    0    0  0.11840847090E+03  0.15396028006E+02 -0.13466138148E+02  0.12016214269E+03  0.00000000000E+00 0.  1.
</event>
<event>
12    1  0.8331241E-002  0.2123278E+03  0.7818608E-02  0.1140249E+00
         21   -1    0    0  501  502  0.00000000000E+00  0.00000000000E+00  0.30461932818E+03  0.30461932818E+03  0.00000000000E+00 0. -1.
         21   -1    0    0  502  503 -0.00000000000E+00 -0.00000000000E+00 -0.14629633119E+03  0.14629633119E+03  0.00000000000E+00 0.  1.
         -6    2    1    2    0  503  0.56270567027E+02  0.10809158648E+03  0.73376835254E+02  0.22464916675E+03  0.17387616395E+03 0.  0.
        -24    2    3    3    0    0  0.36957974264E+02 -0.12754293892E+02  0.17743811127E+02  0.90135872186E+02  0.79253193924E+02 0.  0.
          6    2    1    2  501    0 -0.56270567027E+02 -0.10809158648E+03  0.84946161739E+02  0.22626649262E+03  0.17067661676E+03 0.  0.
         24    2    5    5    0    0 -0.67518092643E+02 -0.50102349531E+02  0.11241060406E+03  0.16095459458E+03  0.78748329188E+02 0.  0.
          5    1    5    5  501    0  0.11247525616E+02 -0.57989236947E+02 -0.27464442316E+02  0.65311898042E+02  0.47000000000E+01 0. -1.
        -13    1    6    6    0    0 -0.20625406353E+02  0.98754886971E+01 -0.26138278723E+01  0.23016619222E+02  0.00000000000E+00 0.  1.
         14    1    6    6    0    0 -0.46892686290E+02 -0.59977838228E+02  0.11502443193E+03  0.13793797536E+03  0.00000000000E+00 0. -1.
         -5    1    3    3    0  503  0.19312592763E+02  0.12084588037E+03  0.55633024127E+02  0.13451329457E+03  0.47000000000E+01 0.  1.
         13    1    4    4    0    0  0.11572709795E+02  0.38881713864E+01  0.46649299669E+02  0.48220355124E+02  0.00000000000E+00 0. -1.
        -14    1    4    4    0    0  0.25385264469E+02 -0.16642465278E+02 -0.28905488542E+02  0.41915517062E+02  0.00000000000E+00 0.  1.
</event>
<event>
12    1  0.8331241E-002  0.2027834E+03  0.7818608E-02  0.1148737E+00
         21   -1    0    0  501  502  0.00000000000E+00  0.00000000000E+00  0.34370376454E+03  0.34370376454E+03  0.00000000000E+00 0. -1.
         21   -1    0    0  502  503 -0.00000000000E+00 -0.00000000000E+00 -0.13923772933E+03  0.13923772933E+03  0.00000000000E+00 0. -1.
         -6    2    1    2    0  503  0.48524275290E+02  0.83766997882E+02  0.48498667452E+01  0.20284141319E+03  0.17818418132E+03 0.  0.
        -24    2    3    3    0    0 -0.37900460776E+02  0.57228715060E+02 -0.20808673265E+02  0.10874589717E+03  0.81737986972E+02 0.  0.
          6    2    1    2  501    0 -0.48524275290E+02 -0.83766997882E+02  0.19961616846E+03  0.28010008069E+03  0.17099100930E+03 0.  0.
         24    2    5    5    0    0 -0.46747768181E+02  0.18335441467E+01  0.15841875056E+03  0.18496898159E+03  0.83236457807E+02 0.  0.
          5    1    5    5  501    0 -0.17765071089E+01 -0.85600542029E+02  0.41197417907E+02  0.95131099097E+02  0.47000000000E+01 0. -1.
        -11    1    6    6    0    0 -0.17400598012E+02  0.29652584919E+02  0.17928067890E+02  0.38774633742E+02  0.00000000000E+00 0.  1.
         12    1    6    6    0    0 -0.29347170169E+02 -0.27819040773E+02  0.14049068267E+03  0.14619434785E+03  0.00000000000E+00 0. -1.
         -5    1    3    3    0  503  0.86424736066E+02  0.26538282823E+02  0.25658540011E+02  0.94095516018E+02  0.47000000000E+01 0.  1.
         13    1    4    4    0    0  0.13119958775E+02 -0.60556899100E+01 -0.23301224362E+02  0.27418091752E+02  0.00000000000E+00 0. -1.
        -14    1    4    4    0    0 -0.51020419551E+02  0.63284404970E+02  0.24925510963E+01  0.81327805421E+02  0.00000000000E+00 0.  1.
</event>
<event>
12    1  0.8331241E-002  0.1920430E+03  0.7818608E-02  0.1156689E+00
         21   -1    0    0  503  502  0.00000000000E+00  0.00000000000E+00  0.73910037442E+03  0.73910037442E+03  0.00000000000E+00 0. -1.
         21   -1    0    0  501  503 -0.00000000000E+00 -0.00000000000E+00 -0.59603125455E+02  0.59603125455E+02  0.00000000000E+00 0. -1.
          6    2    1    2  501    0 -0.83605319507E+02  0.14841986074E+02  0.17786427131E+03  0.26156649092E+03  0.17196277551E+03 0.  0.
         24    2    3    3    0    0 -0.44201417710E+02 -0.52756699178E+02  0.62141436715E+02  0.12179484082E+03  0.78964488581E+02 0.  0.
         -6    2    1    2    0  502  0.83605319507E+02 -0.14841986074E+02  0.50163297765E+03  0.53713700896E+03  0.17225094520E+03 0.  0.
        -24    2    5    5    0    0  0.83303245977E+02 -0.48919722328E+02  0.48084432951E+03  0.49694196886E+03  0.80046743690E+02 0.  0.
          5    1    3    3  501    0 -0.39403901797E+02  0.67598685252E+02  0.11572283460E+03  0.13977165010E+03  0.47000000000E+01 0. -1.
        -13    1    4    4    0    0 -0.25971496354E+02 -0.66408437382E+02  0.67727980528E+02  0.98344692408E+02  0.00000000000E+00 0.  1.
         14    1    4    4    0    0 -0.18229921356E+02  0.13651738204E+02 -0.55865438125E+01  0.23450148409E+02  0.00000000000E+00 0. -1.
         -5    1    5    5    0  502  0.30207352997E+00  0.34077736254E+02  0.20788648146E+02  0.40195040096E+02  0.47000000000E+01 0.  1.
         13    1    6    6    0    0  0.90107524561E+02 -0.37421616364E+02  0.29706693782E+03  0.31267956265E+03  0.00000000000E+00 0. -1.
        -14    1    6    6    0    0 -0.68042785835E+01 -0.11498105963E+02  0.18377739169E+03  0.18426240621E+03  0.00000000000E+00 0.  1.
</event>
<event>
12    1  0.8331241E-002  0.2213987E+03  0.7818608E-02  0.1133197E+00
         21   -1    0    0  503  502  0.00000000000E+00  0.00000000000E+00  0.79553137493E+03  0.79553137493E+03  0.00000000000E+00 0.  1.
         21   -1    0    0  501  503 -0.00000000000E+00 -0.00000000000E+00 -0.83693933159E+02  0.83693933159E+02  0.00000000000E+00 0. -1.
          6    2    1    2  501    0 -0.10351879094E+03 -0.96360029361E+02  0.12856988281E+03  0.25602265754E+03  0.17034080859E+03 0.  0.
         24    2    3    3    0    0 -0.13574491870E+03 -0.90610379123E+02  0.85007295930E+02  0.20132923230E+03  0.81671878034E+02 0.  0.
         -6    2    1    2    0  502  0.10351879094E+03  0.96360029361E+02  0.58326755897E+03  0.62320265056E+03  0.16786632474E+03 0.  0.
        -24    2    5    5    0    0  0.61858727610E+02  0.13249596092E+03  0.36978690691E+03  0.40266366256E+03  0.63356031903E+02 0.  0.
          5    1    3    3  501    0  0.32226127761E+02 -0.57496502374E+01  0.43562586879E+02  0.54693425235E+02  0.47000000000E+01 0. -1.
        -13    1    4    4    0    0 -0.14049591227E+02 -0.45152001060E+02  0.45309017124E+02  0.65490466834E+02  0.00000000000E+00 0.  1.
         14    1    4    4    0    0 -0.12169532747E+03 -0.45458378063E+02  0.39698278805E+02  0.13583876547E+03  0.00000000000E+00 0. -1.
         -5    1    5    5    0  502  0.41660063327E+02 -0.36135931559E+02  0.21348065206E+03  0.22053898800E+03  0.47000000000E+01 0.  1.
         13    1    6    6    0    0  0.29905977667E+02  0.39462990214E+02  0.60882107868E+02  0.78475003378E+02  0.00000000000E+00 0. -1.
        -14    1    6    6    0    0  0.31952749943E+02  0.93032970705E+02  0.30890479904E+03  0.32418865918E+03  0.00000000000E+00 0.  1.
</event>
<event>
12    1  0.8331241E-002  0.2030077E+03  0.7818608E-02  0.1147531E+00
         21   -1    0    0  501  502  0.00000000000E+00  0.00000000000E+00  0.32280230326E+03  0.32280230326E+03  0.00000000000E+00 0. -1.
         21   -1    0    0  502  503 -0.00000000000E+00 -0.00000000000E+00 -0.14849859241E+03  0.14849859241E+03  0.00000000000E+00 0. -1.
         -6    2    1    2    0  503  0.88589447673E+02 -0.56254597572E+02 -0.27645444121E+01  0.20302648298E+03  0.17377986102E+03 0.  0.
        -24    2    3    3    0    0  0.10623700035E+03  0.12122842498E+02 -0.17753789573E+01  0.13224527873E+03  0.77797160768E+02 0.  0.
          6    2    1    2  501    0 -0.88589447673E+02  0.56254597572E+02  0.17706825526E+03  0.26827441269E+03  0.17206197575E+03 0.  0.
         24    2    5    5    0    0 -0.11964715234E+03  0.74948579719E+02  0.12339787231E+03  0.20333870608E+03  0.78656619784E+02 0.  0.
          5    1    5    5  501    0  0.31057704665E+02 -0.18693982147E+02  0.53670382951E+02  0.64935706615E+02  0.47000000000E+01 0. -1.
        -13    1    6    6    0    0 -0.65370918147E+02  0.67823938801E+02  0.11385473288E+03  0.14777125503E+03  0.00000000000E+00 0.  1.
         14    1    6    6    0    0 -0.54276234191E+02  0.71246409185E+01  0.95431394267E+01  0.55567451050E+02  0.00000000000E+00 0. -1.
         -5    1    3    3    0  503 -0.17647552673E+02 -0.68377440071E+02 -0.98916545474E+00  0.70781204244E+02  0.47000000000E+01 0.  1.
         11    1    4    4    0    0  0.82843379468E+02  0.25285168523E+02  0.29062143221E+02  0.91361772298E+02  0.00000000000E+00 0. -1.
        -12    1    4    4    0    0  0.23393620878E+02 -0.13162326025E+02 -0.30837522179E+02  0.40883506433E+02  0.00000000000E+00 0.  1.
</event>
<event>
12    1  0.8331241E-002  0.2532579E+03  0.7818608E-02  0.1111471E+00
         21   -1    0    0  503  502  0.00000000000E+00  0.00000000000E+00  0.12075081231E+04  0.12075081231E+04  0.00000000000E+00 0.  1.
         21   -1    0    0  501  503 -0.00000000000E+00 -0.00000000000E+00 -0.81978102190E+02  0.81978102190E+02  0.00000000000E+00 0.  1.
          6    2    1    2  501    0  0.15546311538E+03  0.99568673723E+02  0.17740607458E+03  0.30812054616E+03  0.17141369442E+03 0.  0.
         24    2    3    3    0    0  0.58464632030E+02  0.23811217022E+02  0.12348033258E+02  0.10217359905E+03  0.79384401255E+02 0.  0.
         -6    2    1    2    0  502 -0.15546311538E+03 -0.99568673723E+02  0.94812394633E+03  0.98136567913E+03  0.17336919432E+03 0.  0.
        -24    2    5    5    0    0 -0.17435838585E+03 -0.96248302496E+02  0.69133571141E+03  0.72381889949E+03  0.79398683457E+02 0.  0.
          5    1    3    3  501    0  0.96998483354E+02  0.75757456701E+02  0.16505804132E+03  0.20594694711E+03  0.47000000000E+01 0. -1.
        -13    1    4    4    0    0  0.25626220811E+02  0.50660405270E+02 -0.35277009141E+01  0.56882550302E+02  0.00000000000E+00 0.  1.
         14    1    4    4    0    0  0.32838411220E+02 -0.26849188248E+02  0.15875734172E+02  0.45291048746E+02  0.00000000000E+00 0. -1.
         -5    1    5    5    0  502  0.18895270468E+02 -0.33203712262E+01  0.25678823492E+03  0.25754677964E+03  0.47000000000E+01 0.  1.
         11    1    6    6    0    0 -0.77655888845E+01 -0.32540382981E+02  0.73532765141E+02  0.80785199415E+02  0.00000000000E+00 0. -1.
        -12    1    6    6    0    0 -0.16659279697E+03 -0.63707919515E+02  0.61780294627E+03  0.64303370007E+03  0.00000000000E+00 0.  1.
</event>
<event>
12    1  0.8331241E-002  0.1783054E+03  0.7818608E-02  0.1169596E+00
         21   -1    0    0  503  502  0.00000000000E+00  0.00000000000E+00  0.12162559331E+03  0.12162559331E+03  0.00000000000E+00 0. -1.
         21   -1    0    0  501  503 -0.00000000000E+00 -0.00000000000E+00 -0.26982081928E+03  0.26982081928E+03  0.00000000000E+00 0. -1.
          6    2    1    2  501    0  0.15342245489E+02 -0.42618135269E+02 -0.11026364169E+03  0.20915095540E+03  0.17185564150E+03 0.  0.
         24    2    3    3    0    0 -0.27712356472E+02  0.11617100214E+02 -0.94968197983E+01  0.86794092443E+02  0.80870842571E+02 0.  0.
         -6    2    1    2    0  502 -0.15342245489E+02  0.42618135269E+02 -0.37931584282E+02  0.18229545720E+03  0.17245619351E+03 0.  0.
        -24    2    5    5    0    0 -0.51688455399E+02 -0.28929237689E+02 -0.14340136908E+02  0.98517656193E+02  0.77404727507E+02 0.  0.
          5    1    3    3  501    0  0.43054601961E+02 -0.54235235483E+02 -0.10076682189E+03  0.12235686295E+03  0.47000000000E+01 0. -1.
        -11    1    4    4    0    0 -0.42943705492E+00 -0.25792362469E+02  0.19345517457E+02  0.32244060284E+02  0.00000000000E+00 0.  1.
         12    1    4    4    0    0 -0.27282919417E+02  0.37409462683E+02 -0.28842337256E+02  0.54550032159E+02  0.00000000000E+00 0. -1.
         -5    1    5    5    0  502  0.36346209910E+02  0.71547372959E+02 -0.23591447374E+02  0.83777801005E+02  0.47000000000E+01 0.  1.
         11    1    6    6    0    0  0.38351838107E+01  0.21874947360E+02 -0.34183189547E+01  0.22470132650E+02  0.00000000000E+00 0. -1.
        -12    1    6    6    0    0 -0.55523639209E+02 -0.50804185049E+02 -0.10921817953E+02  0.76047523542E+02  0.00000000000E+00 0.  1.
</event>
<event>
12    1  0.8331241E-002  0.1934160E+03  0.7818608E-02  0.1156136E+00
         21   -1    0    0  501  502  0.00000000000E+00  0.00000000000E+00  0.70071096036E+02  0.70071096036E+02  0.00000000000E+00 0.  1.
         21   -1    0    0  502  503 -0.00000000000E+00 -0.00000000000E+00 -0.52536878276E+03  0.52536878276E+03  0.00000000000E+00 0.  1.
         -6    2    1    2    0  503 -0.16151068255E+02  0.80900890424E+02 -0.23377894131E+03  0.30136455807E+03  0.17135399727E+03 0.  0.
        -24    2    3    3    0    0 -0.60116350877E+02  0.12542189551E+02 -0.17216456701E+03  0.19926519871E+03  0.79339139901E+02 0.  0.
          6    2    1    2  501    0  0.16151068255E+02 -0.80900890424E+02 -0.22151874542E+03  0.29407532073E+03  0.17493978568E+03 0.  0.
         24    2    5    5    0    0 -0.22969962790E+01  0.26736727785E+02 -0.91464127676E+02  0.12418570500E+03  0.79600715258E+02 0.  0.
          5    1    5    5  501    0  0.18448064534E+02 -0.10763761821E+03 -0.13005461774E+03  0.16988961573E+03  0.47000000000E+01 0. -1.
        -11    1    6    6    0    0 -0.51457852054E+00 -0.72777993511E+01  0.12671117069E+02  0.14621503419E+02  0.00000000000E+00 0.  1.
         12    1    6    6    0    0 -0.17824177585E+01  0.34014527136E+02 -0.10413524475E+03  0.10956420158E+03  0.00000000000E+00 0. -1.
         -5    1    3    3    0  503  0.43965282623E+02  0.68358700873E+02 -0.61614374300E+02  0.10209935936E+03  0.47000000000E+01 0.  1.
         11    1    4    4    0    0  0.90077288577E+01  0.54856191157E+01  0.28812625953E+01  0.10933108908E+02  0.00000000000E+00 0. -1.
        -12    1    4    4    0    0 -0.69124079735E+02  0.70565704354E+01 -0.17504582961E+03  0.18833208980E+03  0.00000000000E+00 0.  1.
</event>
<event>
12    1  0.8331241E-002  0.2053009E+03  0.7818608E-02  0.1146628E+00
         21   -1    0    0  503  502  0.00000000000E+00  0.00000000000E+00  0.58319430528E+02  0.58319430528E+02  0.00000000000E+00 0.  1.
         21   -1    0    0  501  503 -0.00000000000E+00 -0.00000000000E+00 -0.78793634820E+03  0.78793634820E+03  0.00000000000E+00 0.  1.
          6    2    1    2  501    0  0.11053012549E+03  0.27816408510E+02 -0.21933536030E+03  0.29622330969E+03  0.16324701437E+03 0.  0.
         24    2    3    3    0    0  0.31811036497E+02 -0.37483721018E+02 -0.13034895505E+03  0.16057128350E+03  0.79845573575E+02 0.  0.
         -6    2    1    2    0  502 -0.11053012549E+03 -0.27816408510E+02 -0.51028155737E+03  0.55003246904E+03  0.17075651665E+03 0.  0.
        -24    2    5    5    0    0 -0.73214487699E+02 -0.81631210459E+02 -0.29004316500E+03  0.32021617456E+03  0.79933379492E+02 0.  0.
          5    1    3    3  501    0  0.78719088995E+02  0.65300129528E+02 -0.88986405251E+02  0.13565202619E+03  0.47000000000E+01 0. -1.
        -11    1    4    4    0    0  0.28532320972E+02 -0.44582620320E+02 -0.31875698823E+02  0.61788053458E+02  0.00000000000E+00 0.  1.
         12    1    4    4    0    0  0.32787155255E+01  0.70988993017E+01 -0.98473256225E+02  0.98783230046E+02  0.00000000000E+00 0. -1.
         -5    1    5    5    0  502 -0.37315637794E+02  0.53814801949E+02 -0.22023839237E+03  0.22981629447E+03  0.47000000000E+01 0.  1.
         13    1    6    6    0    0 -0.20011551778E+02 -0.53193657003E+02 -0.61047064853E+02  0.83407262735E+02  0.00000000000E+00 0. -1.
        -14    1    6    6    0    0 -0.53202935921E+02 -0.28437553457E+02 -0.22899610015E+03  0.23680891183E+03  0.00000000000E+00 0.  1.
</event>
<event>
12    1  0.8331241E-002  0.2984684E+03  0.7818608E-02  0.1086558E+00
         21   -1    0    0  501  502  0.00000000000E+00  0.00000000000E+00  0.12651625500E+04  0.12651625500E+04  0.00000000000E+00 0.  1.
         21   -1    0    0  502  503 -0.00000000000E+00 -0.00000000000E+00 -0.69740523466E+02  0.69740523466E+02  0.00000000000E+00 0. -1.
         -6    2    1    2    0  503 -0.69996479856E+02 -0.22937260726E+03  0.64033292608E+03  0.70465922367E+03  0.17031460634E+03 0.  0.
        -24    2    3    3    0    0 -0.10151806271E+03 -0.14229561853E+03  0.34026520593E+03  0.39059117559E+03  0.78911950759E+02 0.  0.
          6    2    1    2  501    0  0.69996479856E+02  0.22937260726E+03  0.55508910050E+03  0.63024384984E+03  0.17768539786E+03 0.  0.
         24    2    5    5    0    0  0.42605871273E+02  0.24859421012E+03  0.49621229089E+03  0.56235950580E+03  0.80045203259E+02 0.  0.
          5    1    5    5  501    0  0.27390608583E+02 -0.19221602865E+02  0.58876809611E+02  0.67884344036E+02  0.47000000000E+01 0. -1.
        -13    1    6    6    0    0  0.89234037196E+01  0.19559877582E+03  0.31842388308E+03  0.37380780831E+03  0.00000000000E+00 0.  1.
         14    1    6    6    0    0  0.33682467554E+02  0.52995434305E+02  0.17778840781E+03  0.18855169750E+03  0.00000000000E+00 0. -1.
         -5    1    3    3    0  503  0.31521582850E+02 -0.87076988731E+02  0.30006772015E+03  0.31406804808E+03  0.47000000000E+01 0.  1.
         13    1    4    4    0    0 -0.27627743704E+02 -0.10413090807E+03  0.17323346235E+03  0.20400090861E+03  0.00000000000E+00 0. -1.
        -14    1    4    4    0    0 -0.73890319001E+02 -0.38164710463E+02  0.16703174358E+03  0.18659026697E+03  0.00000000000E+00 0.  1.
</event>
<event>
12    1  0.8331241E-002  0.1891629E+03  0.7818608E-02  0.1159667E+00
         21   -1    0    0  503  502  0.00000000000E+00  0.00000000000E+00  0.21709960642E+03  0.21709960642E+03  0.00000000000E+00 0.  1.
         21   -1    0    0  501  503 -0.00000000000E+00 -0.00000000000E+00 -0.28065014865E+03  0.28065014865E+03  0.00000000000E+00 0.  1.
          6    2    1    2  501    0  0.64540987327E+02  0.35253420871E+02 -0.19293098797E+03  0.27019429715E+03  0.17428209708E+03 0.  0.
         24    2    3    3    0    0  0.10923411747E+03  0.33150146163E+02 -0.12668852897E+03  0.19011900120E+03  0.84048953800E+02 0.  0.
         -6    2    1    2    0  502 -0.64540987327E+02 -0.35253420871E+02  0.12938044575E+03  0.22755545792E+03  0.17214483425E+03 0.  0.
        -24    2    5    5    0    0 -0.31719260494E+02  0.22193978575E+02  0.83059315066E+01  0.89502578722E+02  0.80268542584E+02 0.  0.
          5    1    3    3  501    0 -0.44693130143E+02  0.21032747085E+01 -0.66242459006E+02  0.80075295951E+02  0.47000000000E+01 0. -1.
        -13    1    4    4    0    0  0.72716802557E+02  0.49170453449E+02 -0.12152002029E+03  0.14990857947E+03  0.00000000000E+00 0.  1.
         14    1    4    4    0    0  0.36517314913E+02 -0.16020307286E+02 -0.51685086796E+01  0.40210421734E+02  0.00000000000E+00 0. -1.
         -5    1    5    5    0  502 -0.32821726832E+02 -0.57447399446E+02  0.12107451424E+03  0.13805287919E+03  0.47000000000E+01 0.  1.
         11    1    6    6    0    0  0.17808123338E+02  0.19520665325E+02 -0.19315802379E+02  0.32730503405E+02  0.00000000000E+00 0. -1.
        -12    1    6    6    0    0 -0.49527383833E+02  0.26733132496E+01  0.27621733886E+02  0.56772075318E+02  0.00000000000E+00 0.  1.
</event>
<event>
12    1  0.8331241E-002  0.2313370E+03  0.7818608E-02  0.1125780E+00
         21   -1    0    0  501  502  0.00000000000E+00  0.00000000000E+00  0.51555618026E+03  0.51555618026E+03  0.00000000000E+00 0. -1.
         21   -1    0    0  502  503 -0.00000000000E+00 -0.00000000000E+00 -0.22873935308E+03  0.22873935308E+03  0.00000000000E+00 0. -1.
         -6    2    1    2    0  503 -0.64847043014E+02 -0.14206479664E+03 -0.13190996399E+03  0.26591397858E+03  0.17006604592E+03 0.  0.
        -24    2    3    3    0    0 -0.89934723383E+02 -0.98798487022E+02 -0.44340385921E+02  0.16495910620E+03  0.86000240627E+02 0.  0.
          6    2    1    2  501    0  0.64847043014E+02  0.14206479664E+03  0.41872679117E+03  0.47838155475E+03  0.17067290604E+03 0.  0.
         24    2    5    5    0    0  0.47536289582E+02  0.64488727545E+02  0.10255250352E+03  0.15233557816E+03  0.79187231223E+02 0.  0.
          5    1    5    5  501    0  0.17310753432E+02  0.77576069091E+02  0.31617428765E+03  0.32604597659E+03  0.47000000000E+01 0. -1.
        -13    1    6    6    0    0  0.23796711687E+02 -0.14815439668E+02  0.38719720368E+02  0.47801647305E+02  0.00000000000E+00 0.  1.
         14    1    6    6    0    0  0.23739577895E+02  0.79304167212E+02  0.63832783148E+02  0.10453393086E+03  0.00000000000E+00 0. -1.
         -5    1    3    3    0  503  0.25087680369E+02 -0.43266309614E+02 -0.87569578070E+02  0.10095487238E+03  0.47000000000E+01 0.  1.
         11    1    4    4    0    0 -0.66689849187E+02 -0.19617389448E+02  0.34433604930E+01  0.69600536527E+02  0.00000000000E+00 0. -1.
        -12    1    4    4    0    0 -0.23244874196E+02 -0.79181097573E+02 -0.47783746414E+02  0.95358569676E+02  0.00000000000E+00 0.  1.
</event>
<event>
12    1  0.8331241E-002  0.1957343E+03  0.7818608E-02  0.1153670E+00
         21   -1    0    0  501  502  0.00000000000E+00  0.00000000000E+00  0.38061479331E+03  0.38061479331E+03  0.00000000000E+00 0. -1.
         21   -1    0    0  502  503 -0.00000000000E+00 -0.00000000000E+00 -0.17276175830E+03  0.17276175830E+03  0.00000000000E+00 0. -1.
         -6    2    1    2    0  503  0.86416544512E+02 -0.27148850975E+02 -0.75843481573E+02  0.20870915436E+03  0.17205347465E+03 0.  0.
        -24    2    3    3    0    0  0.10588078243E+03 -0.10991486260E+02 -0.10549723193E+03  0.16944909956E+03  0.79068189183E+02 0.  0.
          6    2    1    2  501    0 -0.86416544512E+02  0.27148850975E+02  0.28369651658E+03  0.34466739725E+03  0.17351375144E+03 0.  0.
         24    2    5    5    0    0  0.16865128258E+02  0.25093208036E+02  0.17150073458E+03  0.19208524530E+03  0.81056386909E+02 0.  0.
          5    1    5    5  501    0 -0.10328167277E+03  0.20556429389E+01  0.11219578199E+03  0.15258215195E+03  0.47000000000E+01 0. -1.
        -13    1    6    6    0    0  0.18559868042E+02  0.17048112326E+02  0.53901416434E+01  0.25771310843E+02  0.00000000000E+00 0.  1.
         14    1    6    6    0    0 -0.16947397834E+01  0.80450957093E+01  0.16611059294E+03  0.16631393446E+03  0.00000000000E+00 0. -1.
         -5    1    3    3    0  503 -0.19464237914E+02 -0.16157364715E+02  0.29653750357E+02  0.39260054793E+02  0.47000000000E+01 0.  1.
         13    1    4    4    0    0  0.89639475244E+02 -0.38667937140E+02 -0.93538788142E+02  0.13520336450E+03  0.00000000000E+00 0. -1.
        -14    1    4    4    0    0  0.16241307182E+02  0.27676450880E+02 -0.11958443788E+02  0.34245735065E+02  0.00000000000E+00 0.  1.
</event>
<event>
12    1  0.8331241E-002  0.1845224E+03  0.7818608E-02  0.1166940E+00
         21   -1    0    0  503  502  0.00000000000E+00  0.00000000000E+00  0.15526416718E+04  0.15526416718E+04  0.00000000000E+00 0. -1.
         21   -1    0    0  501  503 -0.00000000000E+00 -0.00000000000E+00 -0.34973174688E+03  0.34973174688E+03  0.00000000000E+00 0. -1.
          6    2    1    2  501    0  0.50330774424E+02  0.51028373569E+02 -0.32307415237E+03  0.36527357412E+03  0.15463115552E+03 0.  0.
         24    2    3    3    0    0  0.54534775692E+02 -0.15975161953E+02 -0.23287604207E+03  0.25273497408E+03  0.80090377637E+02 0.  0.
         -6    2    1    2    0  502 -0.50330774424E+02 -0.51028373569E+02  0.15259840773E+04  0.15370998446E+04  0.17003366217E+03 0.  0.
        -24    2    5    5    0    0  0.30651395269E+02 -0.25400888271E+01  0.90984043654E+03  0.91375058324E+03  0.78641899282E+02 0.  0.
          5    1    3    3  501    0 -0.42040012677E+01  0.67003535522E+02 -0.90198110293E+02  0.11253860004E+03  0.47000000000E+01 0. -1.
        -13    1    4    4    0    0  0.49374987053E+02 -0.46238207299E+01 -0.53585892840E+02  0.73011759163E+02  0.00000000000E+00 0.  1.
         14    1    4    4    0    0  0.51597886387E+01 -0.11351341224E+02 -0.17929014923E+03  0.17972321491E+03  0.00000000000E+00 0. -1.
         -5    1    5    5    0  502 -0.80982169693E+02 -0.48488284742E+02  0.61614364079E+03  0.62334926137E+03  0.47000000000E+01 0.  1.
         13    1    6    6    0    0  0.53867390679E+01 -0.39354591610E+02  0.40970149998E+03  0.41162254546E+03  0.00000000000E+00 0. -1.
        -14    1    6    6    0    0  0.25264656201E+02  0.36814502783E+02  0.50013893656E+03  0.50212803778E+03  0.00000000000E+00 0.  1.
</event>
<event>
12    1  0.8331241E-002  0.1772434E+03  0.7818608E-02  0.1170749E+00
         21   -1    0    0  503  502  0.00000000000E+00  0.00000000000E+00  0.29667386401E+02  0.29667386401E+02  0.00000000000E+00 0.  1.
         21   -1    0    0  501  503 -0.00000000000E+00 -0.00000000000E+00 -0.43030607608E+04  0.43030607608E+04  0.00000000000E+00 0.  1.
          6    2    1    2  501    0 -0.25510951700E+02 -0.27260498779E+02 -0.40179658882E+04  0.40218287422E+04  0.17222836485E+03 0.  0.
         24    2    3    3    0    0 -0.59467135224E+02  0.30886338076E+02 -0.27394757506E+04  0.27415579901E+04  0.83201673381E+02 0.  0.
         -6    2    1    2    0  502  0.25510951700E+02  0.27260498779E+02 -0.25542748627E+03  0.31089940504E+03  0.17326654571E+03 0.  0.
        -24    2    5    5    0    0  0.48979394295E+02 -0.25253337903E+02 -0.22675195707E+03  0.24645681962E+03  0.79295660408E+02 0.  0.
          5    1    3    3  501    0  0.33956183525E+02 -0.58146836855E+02 -0.12784901375E+04  0.12802707521E+04  0.47000000000E+01 0. -1.
        -11    1    4    4    0    0 -0.10619345747E+02  0.52376354757E+02 -0.13990278688E+04  0.14000482245E+04  0.00000000000E+00 0.  1.
         12    1    4    4    0    0 -0.48847789477E+02 -0.21490016681E+02 -0.13404478818E+04  0.13415097656E+04  0.00000000000E+00 0. -1.
         -5    1    5    5    0  502 -0.23468442596E+02  0.52513836682E+02 -0.28675529198E+02  0.64442585421E+02  0.47000000000E+01 0.  1.
         11    1    6    6    0    0 -0.13705817859E+02  0.15623264173E+02 -0.36282262593E+02  0.41813136757E+02  0.00000000000E+00 0. -1.
        -12    1    6    6    0    0  0.62685212154E+02 -0.40876602076E+02 -0.19046969448E+03  0.20464368286E+03  0.00000000000E+00 0.  1.
</event>
<event>
12    1  0.8331241E-002  0.1988681E+03  0.7818608E-02  0.1150725E+00
         21   -1    0    0  503  502  0.00000000000E+00  0.00000000000E+00  0.44180250229E+03  0.44180250229E+03  0.00000000000E+00 0.  1.
         21   -1    0    0  501  503 -0.00000000000E+00 -0.00000000000E+00 -0.54918694564E+03  0.54918694564E+03  0.00000000000E+00 0. -1.
          6    2    1    2  501    0  0.68015306376E+02  0.71033274276E+02 -0.50703509316E+03  0.54459370555E+03  0.17270179637E+03 0.  0.
         24    2    3    3    0    0 -0.14017007585E+02  0.47311698000E+02 -0.16846066933E+03  0.19538496541E+03  0.85798684888E+02 0.  0.
         -6    2    1    2    0  502 -0.68015306376E+02 -0.71033274276E+02  0.39965064982E+03  0.44639574239E+03  0.17284880378E+03 0.  0.
        -24    2    5    5    0    0 -0.56881858804E+02 -0.81080372091E+02  0.15058174095E+03  0.19683150378E+03  0.79108833719E+02 0.  0.
          5    1    3    3  501    0  0.82032313961E+02  0.23721576275E+02 -0.33857442383E+03  0.34920874013E+03  0.47000000000E+01 0. -1.
        -13    1    4    4    0    0 -0.78278106268E+01  0.54704227776E+02 -0.17514298845E+03  0.18365427727E+03  0.00000000000E+00 0.  1.
         14    1    4    4    0    0 -0.61891969579E+01 -0.73925297754E+01  0.66823191208E+01  0.11730688142E+02  0.00000000000E+00 0. -1.
         -5    1    5    5    0  502 -0.11133447572E+02  0.10047097815E+02  0.24906890886E+03  0.24956423861E+03  0.47000000000E+01 0.  1.
         13    1    6    6    0    0 -0.36247994172E+02 -0.13404759623E+02  0.10741917221E+02  0.40112260565E+02  0.00000000000E+00 0. -1.
        -14    1    6    6    0    0 -0.20633864632E+02 -0.67675612467E+02  0.13983982373E+03  0.15671924321E+03  0.00000000000E+00 0.  1.
</event>
<event>
12    1  0.8331241E-002  0.2073235E+03  0.7818608E-02  0.1143814E+00
         21   -1    0    0  501  502  0.00000000000E+00  0.00000000000E+00  0.84978821762E+02  0.84978821762E+02  0.00000000000E+00 0.  1.
         21   -1    0    0  502  503 -0.00000000000E+00 -0.00000000000E+00 -0.51119442765E+03  0.51119442765E+03  0.00000000000E+00 0.  1.
         -6    2    1    2    0  503 -0.11605636823E+03 -0.24294219957E+02 -0.17918550761E+03  0.27402640761E+03  0.17006979801E+03 0.  0.
        -24    2    3    3    0    0 -0.66359925851E+02 -0.70344236429E+02 -0.66014347159E+02  0.14204102220E+03  0.80410239390E+02 0.  0.
          6    2    1    2  501    0  0.11605636823E+03  0.24294219957E+02 -0.24703009827E+03  0.32214684181E+03  0.16939725058E+03 0.  0.
         24    2    5    5    0    0  0.58245295907E+02  0.78600407160E+02 -0.13800024490E+03  0.18723620110E+03  0.80266985156E+02 0.  0.
          5    1    5    5  501    0  0.57811072322E+02 -0.54306187202E+02 -0.10902985337E+03  0.13491064071E+03  0.47000000000E+01 0. -1.
        -11    1    6    6    0    0  0.63507432988E+02  0.44821375343E+02 -0.13102213805E+03  0.15234484038E+03  0.00000000000E+00 0.  1.
         12    1    6    6    0    0 -0.52621370802E+01  0.33779031817E+02 -0.69781068556E+01  0.34891360713E+02  0.00000000000E+00 0. -1.
         -5    1    3    3    0  503 -0.49696442378E+02  0.46050016471E+02 -0.11317116046E+03  0.13198538541E+03  0.47000000000E+01 0.  1.
         13    1    4    4    0    0  0.11814711426E+02 -0.48947061353E+01  0.88495235824E+01  0.15551836608E+02  0.00000000000E+00 0. -1.
        -14    1    4    4    0    0 -0.78174637277E+02 -0.65449530293E+02 -0.74863870742E+02  0.12648918559E+03  0.00000000000E+00 0.  1.
</event>
<event>
12    1  0.8331241E-002  0.1830902E+03  0.7818608E-02  0.1168419E+00
         21   -1    0    0  501  502  0.00000000000E+00  0.00000000000E+00  0.33756271155E+03  0.33756271155E+03  0.00000000000E+00 0. -1.
         21   -1    0    0  502  503 -0.00000000000E+00 -0.00000000000E+00 -0.18556264744E+03  0.18556264744E+03  0.00000000000E+00 0. -1.
         -6    2    1    2    0  503 -0.13598802354E+02  0.63305378338E+02 -0.11156891555E+03  0.20220380192E+03  0.15571209408E+03 0.  0.
        -24    2    3    3    0    0 -0.57252286401E+02  0.26312260936E+02 -0.38676914043E+02  0.10941667303E+03  0.80659440137E+02 0.  0.
          6    2    1    2  501    0  0.13598802354E+02 -0.63305378338E+02  0.26356897966E+03  0.32092155707E+03  0.17125869439E+03 0.  0.
         24    2    5    5    0    0  0.23388306480E+02 -0.50634027439E+02  0.55347540297E+02  0.11203245890E+03  0.79856771887E+02 0.  0.
          5    1    5    5  501    0 -0.97895041259E+01 -0.12671350900E+02  0.20822143936E+03  0.20888909817E+03  0.47000000000E+01 0. -1.
        -13    1    6    6    0    0  0.10797234192E+02 -0.19018018934E+02  0.71205414088E+02  0.74488095061E+02  0.00000000000E+00 0.  1.
         14    1    6    6    0    0  0.12591072288E+02 -0.31616008505E+02 -0.15857873791E+02  0.37544363842E+02  0.00000000000E+00 0. -1.
         -5    1    3    3    0  503  0.43653484047E+02  0.36993117402E+02 -0.72892001508E+02  0.92787128895E+02  0.47000000000E+01 0.  1.
         13    1    4    4    0    0 -0.13424485591E+02  0.13685936562E+02 -0.57095317908E+02  0.60227875606E+02  0.00000000000E+00 0. -1.
        -14    1    4    4    0    0 -0.43827800810E+02  0.12626324374E+02  0.18418403865E+02  0.49188797424E+02  0.00000000000E+00 0.  1.
</event>
<event>
12    1  0.8331241E-002  0.2310574E+03  0.7818608E-02  0.1126030E+00
         21   -1    0    0  503  502  0.00000000000E+00  0.00000000000E+00  0.14858952984E+04  0.14858952984E+04  0.00000000000E+00 0. -1.
         21   -1    0    0  501  503 -0.00000000000E+00 -0.00000000000E+00 -0.36841756805E+02  0.36841756805E+02  0.00000000000E+00 0. -1.
          6    2    1    2  501    0  0.12700238088E+03  0.89533741888E+02  0.85292890261E+03  0.88367145372E+03  0.17100184070E+03 0.  0.
         24    2    3    3    0    0  0.34233645141E+02  0.10294326251E+03  0.42869675574E+03  0.44918226166E+03  0.78832341429E+02 0.  0.
         -6    2    1    2    0  502 -0.12700238088E+03 -0.89533741888E+02  0.59612463895E+03  0.63906560145E+03  0.16998341716E+03 0.  0.
        -24    2    5    5    0    0 -0.11755550428E+03 -0.86044741342E+02  0.29941250231E+03  0.34214541245E+03  0.78693345500E+02 0.  0.
          5    1    3    3  501    0  0.92768735741E+02 -0.13409520623E+02  0.42423214687E+03  0.43448919205E+03  0.47000000000E+01 0. -1.
        -13    1    4    4    0    0 -0.24650653532E+02  0.45989848742E+02  0.16826829681E+03  0.17617304169E+03  0.00000000000E+00 0.  1.
         14    1    4    4    0    0  0.58884298673E+02  0.56953413769E+02  0.26042845893E+03  0.27300921997E+03  0.00000000000E+00 0. -1.
         -5    1    5    5    0  502 -0.94468765977E+01 -0.34890005466E+01  0.29671213664E+03  0.29692018900E+03  0.47000000000E+01 0.  1.
         13    1    6    6    0    0 -0.44490595950E+02 -0.76839878338E+02  0.19618033212E+03  0.21533811261E+03  0.00000000000E+00 0. -1.
        -14    1    6    6    0    0 -0.73064908335E+02 -0.92048630037E+01  0.10323217019E+03  0.12680729985E+03  0.00000000000E+00 0.  1.
</event>
<event>
12    1  0.8331241E-002  0.2666689E+03  0.7818608E-02  0.1103266E+00
         21   -1    0    0  501  502  0.00000000000E+00  0.00000000000E+00  0.14590817018E+04  0.14590817018E+04  0.00000000000E+00 0.  1.
         21   -1    0    0  502  503 -0.00000000000E+00 -0.00000000000E+00 -0.87980371131E+02  0.87980371131E+02  0.00000000000E+00 0. -1.
         -6    2    1    2    0  503 -0.16594633860E+03 -0.11731619003E+03  0.16808655832E+03  0.31484584931E+03  0.17196959616E+03 0.  0.
        -24    2    3    3    0    0 -0.15523187911E+03 -0.14645347489E+03  0.11947476880E+03  0.25697550206E+03  0.78845619249E+02 0.  0.
          6    2    1    2  501    0  0.16594633860E+03  0.11731619003E+03  0.12030147723E+04  0.12322162236E+04  0.17265863291E+03 0.  0.
         24    2    5    5    0    0  0.64408914439E+02  0.75714304284E+02  0.32548024322E+03  0.34783536380E+03  0.71908882968E+02 0.  0.
          5    1    5    5  501    0  0.10153742416E+03  0.41601885742E+02  0.87753452909E+03  0.88438085978E+03  0.47000000000E+01 0. -1.
        -11    1    6    6    0    0  0.19353334095E+02  0.40382614834E+02  0.24504188690E+03  0.24910004708E+03  0.00000000000E+00 0.  1.
         12    1    6    6    0    0  0.45055580345E+02  0.35331689450E+02  0.80438356329E+02  0.98735316723E+02  0.00000000000E+00 0. -1.
         -5    1    3    3    0  503 -0.10714459489E+02  0.29137284868E+02  0.48611789513E+02  0.57870347254E+02  0.47000000000E+01 0.  1.
         11    1    4    4    0    0 -0.67498177422E+02 -0.21110262764E+02  0.16710469038E+02  0.72669711192E+02  0.00000000000E+00 0. -1.
        -12    1    4    4    0    0 -0.87733701691E+02 -0.12534321213E+03  0.10276429977E+03  0.18430579086E+03  0.00000000000E+00 0.  1.
</event>
<event>
12    1  0.8331241E-002  0.2107182E+03  0.7818608E-02  0.1141099E+00
         21   -1    0    0  503  502  0.00000000000E+00  0.00000000000E+00  0.10438410540E+03  0.10438410540E+03  0.00000000000E+00 0.  1.
         21   -1    0    0  501  503 -0.00000000000E+00 -0.00000000000E+00 -0.62572181157E+03  0.62572181157E+03  0.00000000000E+00 0. -1.
          6    2    1    2  501    0 -0.10858643288E+03  0.53061527409E+02 -0.46754843348E+03  0.51263079573E+03  0.17199493010E+03 0.  0.
         24    2    3    3    0    0 -0.72916641907E+01  0.65206141173E+01 -0.30875537807E+03  0.31855861529E+03  0.77807590320E+02 0.  0.
         -6    2    1    2    0  502  0.10858643288E+03 -0.53061527409E+02 -0.53789272688E+02  0.21747512124E+03  0.17261403015E+03 0.  0.
        -24    2    5    5    0    0  0.19650617943E+02 -0.73999690581E+02 -0.12974260462E+02  0.11729557703E+03  0.87908019910E+02 0.  0.
          5    1    3    3  501    0 -0.10129476869E+03  0.46540913291E+02 -0.15879305541E+03  0.19407218044E+03  0.47000000000E+01 0. -1.
        -13    1    4    4    0    0  0.29796616950E+02  0.23185568822E+02 -0.15048520573E+03  0.15514898042E+03  0.00000000000E+00 0.  1.
         14    1    4    4    0    0 -0.37088281141E+02 -0.16664954704E+02 -0.15827017235E+03  0.16340963487E+03  0.00000000000E+00 0. -1.
         -5    1    5    5    0  502  0.88935814937E+02  0.20938163172E+02 -0.40815012226E+02  0.10017954421E+03  0.47000000000E+01 0.  1.
         11    1    6    6    0    0  0.31650833815E+02 -0.50852274091E+02 -0.45780999859E+02  0.75389846860E+02  0.00000000000E+00 0. -1.
        -12    1    6    6    0    0 -0.12000215872E+02 -0.23147416490E+02  0.32806739398E+02  0.41905730170E+02  0.00000000000E+00 0.  1.
</event>
<event>
12    1  0.8331241E-002  0.2890437E+03  0.7818608E-02  0.1090865E+00
         21   -1    0    0  503  502  0.00000000000E+00  0.00000000000E+00  0.16813050218E+04  0.16813050218E+04  0.00000000000E+00 0. -1.
         21   -1    0    0  501  503 -0.00000000000E+00 -0.00000000000E+00 -0.82280129167E+02  0.82280129167E+02  0.00000000000E+00 0. -1.
          6    2    1    2  501    0  0.17364996484E+03  0.15393711406E+03  0.24428853776E+03  0.37835705802E+03  0.17212271290E+03 0.  0.
         24    2    3    3    0    0  0.24005582343E+02  0.50580849430E+02  0.13290246212E+03  0.16503826724E+03  0.80248831168E+02 0.  0.
         -6    2    1    2    0  502 -0.17364996484E+03 -0.15393711406E+03  0.13547363549E+04  0.13852280930E+04  0.17232333826E+03 0.  0.
        -24    2    5    5    0    0 -0.64332721013E+02 -0.84242742962E+02  0.39099204275E+03  0.41279158895E+03  0.79287954191E+02 0.  0.
          5    1    3    3  501    0  0.14964438250E+03  0.10335626463E+03  0.11138607565E+03  0.21331879078E+03  0.47000000000E+01 0. -1.
        -11    1    4    4    0    0  0.22114312119E+02 -0.18186721566E+02  0.46292597969E+02  0.54431647675E+02  0.00000000000E+00 0.  1.
         12    1    4    4    0    0  0.18912702236E+01  0.68767570996E+02  0.86609864146E+02  0.11060661956E+03  0.00000000000E+00 0. -1.
         -5    1    5    5    0  502 -0.10931724383E+03 -0.69694371097E+02  0.96374431217E+03  0.97243650404E+03  0.47000000000E+01 0.  1.
         11    1    6    6    0    0 -0.41120451299E+02 -0.47739149791E+01  0.20601165832E+03  0.21012968649E+03  0.00000000000E+00 0. -1.
        -12    1    6    6    0    0 -0.23212269714E+02 -0.79468827983E+02  0.18498038442E+03  0.20266190246E+03  0.00000000000E+00 0.  1.
</event>
<event>
12    1  0.8331241E-002  0.2034056E+03  0.7818608E-02  0.1147035E+00
         21   -1    0    0  501  502  0.00000000000E+00  0.00000000000E+00  0.17298990071E+04  0.17298990071E+04  0.00000000000E+00 0.  1.
         21   -1    0    0  502  503 -0.00000000000E+00 -0.00000000000E+00 -0.25482798452E+02  0.25482798452E+02  0.00000000000E+00 0.  1.
         -6    2    1    2    0  503 -0.74857730251E+02  0.78540005063E+02  0.63057578392E+03  0.66257050059E+03  0.17205126219E+03 0.  0.
        -24    2    3    3    0    0 -0.62606641408E+02 -0.19584875037E+02  0.33367887775E+03  0.34960333911E+03  0.81103282210E+02 0.  0.
          6    2    1    2  501    0  0.74857730251E+02 -0.78540005063E+02  0.10738404248E+04  0.10928113050E+04  0.17126318427E+03 0.  0.
         24    2    5    5    0    0  0.65909775589E+02 -0.10645315741E+03  0.10185657318E+04  0.10300690413E+04  0.88824020859E+02 0.  0.
          5    1    5    5  501    0  0.89479546628E+01  0.27913152345E+02  0.55274692971E+02  0.62742263663E+02  0.47000000000E+01 0. -1.
        -13    1    6    6    0    0  0.68967655862E+02 -0.48352576632E+02  0.39993023022E+03  0.40870368027E+03  0.00000000000E+00 0.  1.
         14    1    6    6    0    0 -0.30578802734E+01 -0.58100580776E+02  0.61863550158E+03  0.62136536107E+03  0.00000000000E+00 0. -1.
         -5    1    3    3    0  503 -0.12251088844E+02  0.98124880100E+02  0.29689690617E+03  0.31296716148E+03  0.47000000000E+01 0.  1.
         11    1    4    4    0    0 -0.38582612199E+02 -0.45053799880E+01  0.31064497910E+03  0.31306424173E+03  0.00000000000E+00 0. -1.
        -12    1    4    4    0    0 -0.24024029209E+02 -0.15079495049E+02  0.23033898651E+02  0.36539097381E+02  0.00000000000E+00 0.  1.
</event>
<event>
12    1  0.8331241E-002  0.1793283E+03  0.7818608E-02  0.1168831E+00
         21   -1    0    0  503  502  0.00000000000E+00  0.00000000000E+00  0.16900759539E+03  0.16900759539E+03  0.00000000000E+00 0.  1.
         21   -1    0    0  501  503 -0.00000000000E+00 -0.00000000000E+00 -0.24829522698E+03  0.24829522698E+03  0.00000000000E+00 0.  1.
          6    2    1    2  501    0 -0.29426238643E+02  0.33011713405E+02 -0.14177865734E+03  0.22739818733E+03  0.17220067125E+03 0.  0.
         24    2    3    3    0    0 -0.90858352721E+01 -0.48213408698E+01 -0.16604513496E+01  0.80768471187E+02  0.80093639627E+02 0.  0.
         -6    2    1    2    0  502  0.29426238643E+02 -0.33011713405E+02  0.62491025751E+02  0.18990463505E+03  0.17379000365E+03 0.  0.
        -24    2    5    5    0    0  0.41116641772E+02  0.27189690309E+02  0.84487448269E+02  0.12458383332E+03  0.77156627196E+02 0.  0.
          5    1    3    3  501    0 -0.20340403371E+02  0.37833054275E+02 -0.14011820599E+03  0.14662971614E+03  0.47000000000E+01 0. -1.
        -11    1    4    4    0    0  0.18962676856E+02  0.21773985707E+02 -0.22729307103E+02  0.36746577644E+02  0.00000000000E+00 0.  1.
         12    1    4    4    0    0 -0.28048512128E+02 -0.26595326577E+02  0.21068855754E+02  0.44021893543E+02  0.00000000000E+00 0. -1.
         -5    1    5    5    0  502 -0.11690403129E+02 -0.60201403714E+02 -0.21996422519E+02  0.65320801726E+02  0.47000000000E+01 0.  1.
         11    1    6    6    0    0  0.32683445282E+02  0.13965476260E+02 -0.30309603487E+01  0.35671120578E+02  0.00000000000E+00 0. -1.
        -12    1    6    6    0    0  0.84331964896E+01  0.13224214049E+02  0.87518408618E+02  0.88912712743E+02  0.00000000000E+00 0.  1.
</event>
<event>
12    1  0.8331241E-002  0.2102317E+03  0.7818608E-02  0.1141428E+00
         21   -1    0    0  501  502  0.00000000000E+00  0.00000000000E+00  0.86377025857E+02  0.86377025857E+02  0.00000000000E+00 0.  1.
         21   -1    0    0  502  503 -0.00000000000E+00 -0.00000000000E+00 -0.52988670799E+03  0.52988670799E+03  0.00000000000E+00 0. -1.
         -6    2    1    2    0  503  0.74442921617E+01 -0.11882524110E+03 -0.27961751522E+03  0.34969668333E+03  0.17299410426E+03 0.  0.
        -24    2    3    3    0    0 -0.38569874227E+02 -0.11828342908E+03 -0.26418453235E+03  0.30093333614E+03  0.72724142311E+02 0.  0.
          6    2    1    2  501    0 -0.74442921617E+01  0.11882524110E+03 -0.16389216692E+03  0.26656705052E+03  0.17327000501E+03 0.  0.
         24    2    5    5    0    0 -0.44858121087E+02  0.17353445833E+02 -0.10733233655E+03  0.14443014274E+03  0.83823878181E+02 0.  0.
          5    1    5    5  501    0  0.37413828926E+02  0.10147179527E+03 -0.56559830367E+02  0.12213690778E+03  0.47000000000E+01 0. -1.
        -13    1    6    6    0    0  0.23328576092E+02  0.16274444895E+02 -0.32133673767E+02  0.42914484837E+02  0.00000000000E+00 0.  1.
         14    1    6    6    0    0 -0.68186697179E+02  0.10790009387E+01 -0.75198662788E+02  0.10151565791E+03  0.00000000000E+00 0. -1.
         -5    1    3    3    0  503  0.46014166389E+02 -0.54181202032E+00 -0.15432982863E+02  0.48763347186E+02  0.47000000000E+01 0.  1.
         13    1    4    4    0    0 -0.60251817311E+02 -0.85242511024E+02 -0.19858964348E+03  0.22435332329E+03  0.00000000000E+00 0. -1.
        -14    1    4    4    0    0  0.21681943084E+02 -0.33040918059E+02 -0.65594888872E+02  0.76580012851E+02  0.00000000000E+00 0.  1.
</event>
<event>
12    1  0.8331241E-002  0.1928244E+03  0.7818608E-02  0.1156188E+00
         21   -1    0    0  501  502  0.00000000000E+00  0.00000000000E+00  0.79242569131E+02  0.79242569131E+02  0.00000000000E+00 0.  1.
         21   -1    0    0  502  503 -0.00000000000E+00 -0.00000000000E+00 -0.48875260790E+03  0.48875260790E+03  0.00000000000E+00 0.  1.
         -6    2    1    2    0  503  0.32358577199E+02 -0.82762916903E+02 -0.26481589670E+03  0.32691913744E+03  0.16985842737E+03 0.  0.
        -24    2    3    3    0    0  0.68788198818E+02 -0.84339079926E+02 -0.12605095894E+03  0.18336636118E+03  0.76742957094E+02 0.  0.
          6    2    1    2  501    0 -0.32358577199E+02  0.82762916903E+02 -0.14469414208E+03  0.24107603959E+03  0.17112709950E+03 0.  0.
         24    2    5    5    0    0 -0.42320677917E+02  0.66056694220E+02 -0.17188944450E+03  0.20731191957E+03  0.85309578802E+02 0.  0.
          5    1    5    5  501    0  0.99621007184E+01  0.16706222682E+02  0.27195302423E+02  0.33764120023E+02  0.47000000000E+01 0. -1.
        -13    1    6    6    0    0 -0.20831544673E+02  0.50914141509E+02 -0.29315395470E+02  0.62334544761E+02  0.00000000000E+00 0.  1.
         14    1    6    6    0    0 -0.21489133244E+02  0.15142552712E+02 -0.14257404903E+03  0.14497737481E+03  0.00000000000E+00 0. -1.
         -5    1    3    3    0  503 -0.36429621619E+02  0.15761630237E+01 -0.13876493776E+03  0.14355277626E+03  0.47000000000E+01 0.  1.
         11    1    4    4    0    0 -0.32686842082E+01  0.66937646396E+01  0.44650768094E+01  0.86849117679E+01  0.00000000000E+00 0. -1.
        -12    1    4    4    0    0  0.72056883026E+02 -0.91032844566E+02 -0.13051603575E+03  0.17468144941E+03  0.00000000000E+00 0.  1.
</event>
<event>
12    1  0.8331241E-002  0.1828981E+03  0.7818608E-02  0.1165063E+00
         21   -1    0    0  501  502  0.00000000000E+00  0.00000000000E+00  0.17745499172E+02  0.17745499172E+02  0.00000000000E+00 0.  1.
         21   -1    0    0  502  503 -0.00000000000E+00 -0.00000000000E+00 -0.22844205487E+04  0.22844205487E+04  0.00000000000E+00 0.  1.
         -6    2    1    2    0  503  0.55890696979E+02  0.22839975993E+02 -0.65152241588E+03  0.67670760217E+03  0.17264497076E+03 0.  0.
        -24    2    3    3    0    0  0.10043376802E+03  0.41728570209E+02 -0.46727936319E+03  0.48615982173E+03  0.78569419385E+02 0.  0.
          6    2    1    2  501    0 -0.55890696979E+02 -0.22839975993E+02 -0.16151526336E+04  0.16254584457E+04  0.17248679433E+03 0.  0.
         24    2    5    5    0    0 -0.87605767632E+02  0.24757962202E+02 -0.91816689115E+03  0.92611402078E+03  0.79806091657E+02 0.  0.
          5    1    5    5  501    0  0.31715070654E+02 -0.47597938194E+02 -0.69698574250E+03  0.69934442493E+03  0.47000000000E+01 0. -1.
        -11    1    6    6    0    0 -0.39571601665E+02  0.15014585000E+02 -0.74341995844E+03  0.74462378691E+03  0.00000000000E+00 0.  1.
         12    1    6    6    0    0 -0.48034165967E+02  0.97433772016E+01 -0.17474693271E+03  0.18149023387E+03  0.00000000000E+00 0. -1.
         -5    1    3    3    0  503 -0.44543071040E+02 -0.18888594216E+02 -0.18424305268E+03  0.19054778044E+03  0.47000000000E+01 0.  1.
         11    1    4    4    0    0  0.48983564682E+02  0.24104004116E+02 -0.37572612696E+03  0.37967158849E+03  0.00000000000E+00 0. -1.
        -12    1    4    4    0    0  0.51450203337E+02  0.17624566093E+02 -0.91553236234E+02  0.10648823324E+03  0.00000000000E+00 0.  1.
</event>
<event>
12    1  0.8331241E-002  0.1886902E+03  0.7818608E-02  0.1159964E+00
         21   -1    0    0  501  502  0.00000000000E+00  0.00000000000E+00  0.29641576166E+03  0.29641576166E+03  0.00000000000E+00 0.  1.
         21   -1    0    0  502  503 -0.00000000000E+00 -0.00000000000E+00 -0.13327709360E+03  0.13327709360E+03  0.00000000000E+00 0.  1.
         -6    2    1    2    0  503 -0.95255488980E+01 -0.73656818234E+02  0.11564166786E+02  0.18766223395E+03  0.17195150812E+03 0.  0.
        -24    2    3    3    0    0 -0.54140666557E+02  0.49975332258E+01  0.29546431653E+01  0.96704938344E+02  0.79918258679E+02 0.  0.
          6    2    1    2  501    0  0.95255488980E+01  0.73656818234E+02  0.15157450128E+03  0.24203062131E+03  0.17345872494E+03 0.  0.
         24    2    5    5    0    0 -0.33994961082E+02  0.73218271572E+02  0.38039662653E+02  0.12034875456E+03  0.80747966656E+02 0.  0.
          5    1    5    5  501    0  0.43520509980E+02  0.43854666156E+00  0.11353483863E+03  0.12168186674E+03  0.47000000000E+01 0. -1.
        -11    1    6    6    0    0  0.20507981908E+02  0.34286903573E+02 -0.56941552330E+01  0.40355823401E+02  0.00000000000E+00 0.  1.
         12    1    6    6    0    0 -0.54502942990E+02  0.38931367999E+02  0.43733817886E+02  0.79992931161E+02  0.00000000000E+00 0. -1.
         -5    1    3    3    0  503  0.44615117659E+02 -0.78654351460E+02  0.86095236209E+01  0.90957295607E+02  0.47000000000E+01 0.  1.
         13    1    4    4    0    0 -0.59617600853E+01  0.27847755014E+02 -0.23737457213E+02  0.37074343117E+02  0.00000000000E+00 0. -1.
        -14    1    4    4    0    0 -0.48178906471E+02 -0.22850221788E+02  0.26692100378E+02  0.59630595227E+02  0.00000000000E+00 0.  1.
</event>
<event>
12    1  0.8331241E-002  0.1876961E+03  0.7818608E-02  0.1160591E+00
         21   -1    0    0  501  502  0.00000000000E+00  0.00000000000E+00  0.19232700371E+03  0.19232700371E+03  0.00000000000E+00 0.  1.
         21   -1    0    0  502  503 -0.00000000000E+00 -0.00000000000E+00 -0.24158309848E+03  0.24158309848E+03  0.00000000000E+00 0.  1.
         -6    2    1    2    0  503  0.39281479656E+02 -0.65520125603E+02 -0.13143345991E+03  0.22901265986E+03  0.17127791010E+03 0.  0.
        -24    2    3    3    0    0  0.87765061943E+02 -0.24199433182E+02 -0.61703203094E+02  0.13444809943E+03  0.77334904824E+02 0.  0.
          6    2    1    2  501    0 -0.39281479656E+02  0.65520125603E+02  0.82177365139E+02  0.20489744233E+03  0.17144655444E+03 0.  0.
         24    2    5    5    0    0  0.71152327719E+01 -0.23918095638E+02  0.52581150023E+02  0.99779050540E+02  0.81045541226E+02 0.  0.
          5    1    5    5  501    0 -0.46396712428E+02  0.89438221241E+02  0.29596215116E+02  0.10511839179E+03  0.47000000000E+01 0. -1.
        -11    1    6    6    0    0  0.41944677506E+01 -0.88035424741E+01  0.73311914354E+02  0.73957641296E+02  0.00000000000E+00 0.  1.
         12    1    6    6    0    0  0.29207650213E+01 -0.15114553164E+02 -0.20730764330E+02  0.25821409244E+02  0.00000000000E+00 0. -1.
         -5    1    3    3    0  503 -0.48483582287E+02 -0.41320692422E+02 -0.69730256814E+02  0.94564560428E+02  0.47000000000E+01 0.  1.
         11    1    4    4    0    0 -0.86420303003E+01  0.18888569328E+01  0.85792295712E+01  0.12322972379E+02  0.00000000000E+00 0. -1.
        -12    1    4    4    0    0  0.96407092244E+02 -0.26088290114E+02 -0.70282432665E+02  0.12212512705E+03  0.00000000000E+00 0.  1.
</event>
<event>
12    1  0.8331241E-002  0.1780988E+03  0.7818608E-02  0.1169781E+00
         21   -1    0    0  501  502  0.00000000000E+00  0.00000000000E+00  0.89037423405E+02  0.89037423405E+02  0.00000000000E+00 0. -1.
         21   -1    0    0  502  503 -0.00000000000E+00 -0.00000000000E+00 -0.46806327958E+03  0.46806327958E+03  0.00000000000E+00 0. -1.
         -6    2    1    2    0  503  0.11137290746E+02 -0.41893206648E+02 -0.32648696557E+03  0.37190444294E+03  0.17274286087E+03 0.  0.
        -24    2    3    3    0    0  0.59628052685E+02  0.70058095581E+01 -0.24774118809E+03  0.26718837325E+03  0.80058381762E+02 0.  0.
          6    2    1    2  501    0 -0.11137290746E+02  0.41893206648E+02 -0.52538890607E+02  0.18519626005E+03  0.17221567786E+03 0.  0.
         24    2    5    5    0    0  0.36882667108E+02  0.26850751204E+02  0.24589657154E+02  0.92984033650E+02  0.77201588725E+02 0.  0.
          5    1    5    5  501    0 -0.48019957854E+02  0.15042455444E+02 -0.77128547761E+02  0.92212226401E+02  0.47000000000E+01 0. -1.
        -11    1    6    6    0    0  0.25024661705E+02  0.41116556069E+02 -0.14033233111E+02  0.50137176905E+02  0.00000000000E+00 0.  1.
         12    1    6    6    0    0  0.11858005403E+02 -0.14265804865E+02  0.38622890264E+02  0.42846856745E+02  0.00000000000E+00 0. -1.
         -5    1    3    3    0  503 -0.48490761940E+02 -0.48899016206E+02 -0.78745777484E+02  0.10471606969E+03  0.47000000000E+01 0.  1.
         11    1    4    4    0    0  0.34976782533E+02 -0.14325538712E+02 -0.22321702269E+03  0.22639442483E+03  0.00000000000E+00 0. -1.
        -12    1    4    4    0    0  0.24651270152E+02  0.21331348270E+02 -0.24524165395E+02  0.40793948417E+02  0.00000000000E+00 0.  1.
</event>
<event>
12    1  0.8331241E-002  0.2070668E+03  0.7818608E-02  0.1143933E+00
         21   -1    0    0  503  502  0.00000000000E+00  0.00000000000E+00  0.11289903197E+04  0.11289903197E+04  0.00000000000E+00 0. -1.
         21   -1    0    0  501  503 -0.00000000000E+00 -0.00000000000E+00 -0.35231378604E+03  0.35231378604E+03  0.00000000000E+00 0. -1.
          6    2    1    2  501    0 -0.11199817610E+03  0.26201956997E+02 -0.31129176110E+03  0.37380616931E+03  0.17204173241E+03 0.  0.
         24    2    3    3    0    0 -0.10155236618E+03 -0.42990479187E+02 -0.20676898084E+03  0.24793397316E+03  0.80973941701E+02 0.  0.
         -6    2    1    2    0  502  0.11199817610E+03 -0.26201956997E+02  0.10879682948E+04  0.11074979364E+04  0.17218169118E+03 0.  0.
        -24    2    5    5    0    0  0.94641958993E+02 -0.43893520519E+02  0.10659512398E+04  0.10740155470E+04  0.79834879994E+02 0.  0.
          5    1    3    3  501    0 -0.10445809913E+02  0.69192436184E+02 -0.10452278026E+03  0.12587219615E+03  0.47000000000E+01 0. -1.
        -13    1    4    4    0    0 -0.21705267817E+02  0.51309717887E+01 -0.13434655115E+01  0.22343912416E+02  0.00000000000E+00 0.  1.
         14    1    4    4    0    0 -0.79847098366E+02 -0.48121450976E+02 -0.20542551532E+03  0.22559006075E+03  0.00000000000E+00 0. -1.
         -5    1    5    5    0  502  0.17356217102E+02  0.17691563522E+02  0.22017055003E+02  0.33482389445E+02  0.47000000000E+01 0.  1.
         13    1    6    6    0    0  0.56599605372E+02 -0.36939622139E+02  0.31986120409E+03  0.32692390689E+03  0.00000000000E+00 0. -1.
        -14    1    6    6    0    0  0.38042353622E+02 -0.69538983801E+01  0.74609003569E+03  0.74709164012E+03  0.00000000000E+00 0.  1.
</event>
<event>
12    1  0.8331241E-002  0.2189511E+03  0.7818608E-02  0.1134938E+00
         21   -1    0    0  503  502  0.00000000000E+00  0.00000000000E+00  0.94868462123E+03  0.94868462123E+03  0.00000000000E+00 0. -1.
         21   -1    0    0  501  503 -0.00000000000E+00 -0.00000000000E+00 -0.13870778579E+03  0.13870778579E+03  0.00000000000E+00 0. -1.
          6    2    1    2  501    0 -0.54153403045E+02  0.12184780657E+03 -0.29796039305E+02  0.21954561720E+03  0.17185166582E+03 0.  0.
         24    2    3    3    0    0 -0.67007471631E+02  0.73313718343E+02 -0.79520287016E+02  0.14872630055E+03  0.77013855100E+02 0.  0.
         -6    2    1    2    0  502  0.54153403045E+02 -0.12184780657E+03  0.83977287475E+03  0.86784678982E+03  0.17366660707E+03 0.  0.
        -24    2    5    5    0    0 -0.26506410918E+02 -0.57439343078E+02  0.26533851122E+03  0.28419331064E+03  0.79746124190E+02 0.  0.
          5    1    3    3  501    0  0.12854068586E+02  0.48534088232E+02  0.49724247711E+02  0.70819316646E+02  0.47000000000E+01 0. -1.
        -13    1    4    4    0    0 -0.83785435793E+02  0.61397961262E+02 -0.73624650922E+02  0.12731966903E+03  0.00000000000E+00 0.  1.
         14    1    4    4    0    0  0.16777964162E+02  0.11915757080E+02 -0.58956360938E+01  0.21406631523E+02  0.00000000000E+00 0. -1.
         -5    1    5    5    0  502  0.80659813963E+02 -0.64408463497E+02  0.57443436353E+03  0.58365347918E+03  0.47000000000E+01 0.  1.
         11    1    6    6    0    0 -0.26317952181E+02  0.11303913735E+02  0.12066706213E+03  0.12401996999E+03  0.00000000000E+00 0. -1.
        -12    1    6    6    0    0 -0.18845873629E+00 -0.68743256813E+02  0.14467144909E+03  0.16017334066E+03  0.00000000000E+00 0.  1.
</event>
<event>
12    1  0.8331241E-002  0.1751119E+03  0.7818608E-02  0.1173489E+00
         21   -1    0    0  503  502  0.00000000000E+00  0.00000000000E+00  0.25323308100E+02  0.25323308100E+02  0.00000000000E+00 0. -1.
         21   -1    0    0  501  503 -0.00000000000E+00 -0.00000000000E+00 -0.15275869374E+04  0.15275869374E+04  0.00000000000E+00 0. -1.
          6    2    1    2  501    0  0.27361884540E+02  0.14269433558E+02 -0.11118134459E+04  0.11249902665E+04  0.16888360451E+03 0.  0.
         24    2    3    3    0    0 -0.44521627335E+02 -0.13029295236E+02 -0.64885854854E+03  0.65566970779E+03  0.82057369394E+02 0.  0.
         -6    2    1    2    0  502 -0.27361884540E+02 -0.14269433558E+02 -0.39045018336E+03  0.42791997891E+03  0.17237132363E+03 0.  0.
        -24    2    5    5    0    0 -0.17044527404E+02 -0.22186548021E+02 -0.80778531731E+02  0.11793973700E+03  0.81251778728E+02 0.  0.
          5    1    3    3  501    0  0.71883511875E+02  0.27298728794E+02 -0.46295489736E+03  0.46932055875E+03  0.47000000000E+01 0. -1.
        -13    1    4    4    0    0 -0.13547922224E+02  0.28581989780E+01 -0.13433402392E+02  0.19291754659E+02  0.00000000000E+00 0.  1.
         14    1    4    4    0    0 -0.30973705110E+02 -0.15887494214E+02 -0.63542514615E+03  0.63637795314E+03  0.00000000000E+00 0. -1.
         -5    1    5    5    0  502 -0.10317357136E+02  0.79171144637E+01 -0.30967165163E+03  0.30998024192E+03  0.47000000000E+01 0.  1.
         13    1    6    6    0    0 -0.32076621740E+02 -0.24407003547E+02 -0.91067590608E+02  0.99588742052E+02  0.00000000000E+00 0. -1.
        -14    1    6    6    0    0  0.15032094336E+02  0.22204555254E+01  0.10289058876E+02  0.18350994944E+02  0.00000000000E+00 0.  1.
</event>
<event>
12    1  0.8331241E-002  0.2859814E+03  0.7818608E-02  0.1092647E+00
         21   -1    0    0  501  502  0.00000000000E+00  0.00000000000E+00  0.13693038188E+04  0.13693038188E+04  0.00000000000E+00 0. -1.
         21   -1    0    0  502  503 -0.00000000000E+00 -0.00000000000E+00 -0.61396149423E+02  0.61396149423E+02  0.00000000000E+00 0. -1.
         -6    2    1    2    0  503  0.58028659003E+02 -0.22064515221E+03  0.52492446237E+03  0.59712448280E+03  0.17017740245E+03 0.  0.
        -24    2    3    3    0    0  0.13335255629E+02 -0.48981539184E+02  0.11454944948E+03  0.15002758329E+03  0.82520780105E+02 0.  0.
          6    2    1    2  501    0 -0.58028659003E+02  0.22064515221E+03  0.78298320700E+03  0.83357548541E+03  0.17243485431E+03 0.  0.
         24    2    5    5    0    0 -0.22348162033E+02  0.12187670784E+03  0.24756741061E+03  0.28793781398E+03  0.79152951066E+02 0.  0.
          5    1    5    5  501    0 -0.35680496971E+02  0.98768444374E+02  0.53541579638E+03  0.54563767143E+03  0.47000000000E+01 0. -1.
        -13    1    6    6    0    0 -0.21924241857E+01 -0.62938133485E+01  0.57041599215E+02  0.57429633912E+02  0.00000000000E+00 0.  1.
         14    1    6    6    0    0 -0.20155737847E+02  0.12817052119E+03  0.19052581140E+03  0.23050818007E+03  0.00000000000E+00 0. -1.
         -5    1    3    3    0  503  0.44693403374E+02 -0.17166361303E+03  0.41037501289E+03  0.44709689951E+03  0.47000000000E+01 0.  1.
         11    1    4    4    0    0  0.33065703753E+02 -0.57113487235E+02  0.52250411995E+02  0.84174798737E+02  0.00000000000E+00 0. -1.
        -12    1    4    4    0    0 -0.19730448123E+02  0.81319480515E+01  0.62299037482E+02  0.65852784553E+02  0.00000000000E+00 0.  1.
</event>
<event>
12    1  0.8331241E-002  0.1912274E+03  0.7818608E-02  0.1158036E+00
         21   -1    0    0  501  502  0.00000000000E+00  0.00000000000E+00  0.13027836978E+03  0.13027836978E+03  0.00000000000E+00 0.  1.
         21   -1    0    0  502  503 -0.00000000000E+00 -0.00000000000E+00 -0.48075773044E+03  0.48075773044E+03  0.00000000000E+00 0.  1.
         -6    2    1    2    0  503 -0.75626926013E+02 -0.19303625309E+02 -0.37527368185E+03  0.42118672259E+03  0.17457335738E+03 0.  0.
        -24    2    3    3    0    0 -0.10879033169E+02  0.49914390323E+02 -0.16656139546E+03  0.19191323566E+03  0.80487215389E+02 0.  0.
          6    2    1    2  501    0  0.75626926013E+02  0.19303625309E+02  0.24794321193E+02  0.18984937762E+03  0.17127745308E+03 0.  0.
         24    2    5    5    0    0  0.82669243642E+02  0.41071153333E+02  0.68135675439E+02  0.14061542083E+03  0.81296880795E+02 0.  0.
          5    1    5    5  501    0 -0.70423176286E+01 -0.21767528023E+02 -0.43341354246E+02  0.49233956796E+02  0.47000000000E+01 0. -1.
        -13    1    6    6    0    0  0.62357621374E+02 -0.14281860986E+02  0.33072179852E+02  0.72015370421E+02  0.00000000000E+00 0.  1.
         14    1    6    6    0    0  0.20311622268E+02  0.55353014318E+02  0.35063495587E+02  0.68600050409E+02  0.00000000000E+00 0. -1.
         -5    1    3    3    0  503 -0.64747892845E+02 -0.69218015632E+02 -0.20871228640E+03  0.22927348693E+03  0.47000000000E+01 0.  1.
         13    1    4    4    0    0 -0.22875583603E+01  0.34596253200E+02 -0.12503477129E+02  0.36857436143E+02  0.00000000000E+00 0. -1.
        -14    1    4    4    0    0 -0.85914748083E+01  0.15318137122E+02 -0.15405791833E+03  0.15505579952E+03  0.00000000000E+00 0.  1.
</event>
<event>
12    1  0.8331241E-002  0.4089540E+03  0.7818608E-02  0.1040872E+00
         21   -1    0    0  501  502  0.00000000000E+00  0.00000000000E+00  0.16557454878E+04  0.16557454878E+04  0.00000000000E+00 0. -1.
         21   -1    0    0  502  503 -0.00000000000E+00 -0.00000000000E+00 -0.10725699690E+03  0.10725699690E+03  0.00000000000E+00 0. -1.
         -6    2    1    2    0  503 -0.28686633722E+03 -0.23291837037E+03  0.99274593449E+03  0.10730074282E+04  0.17104732607E+03 0.  0.
        -24    2    3    3    0    0 -0.11508514082E+03 -0.10555202938E+03  0.60955352031E+03  0.63415724811E+03  0.78829567124E+02 0.  0.
          6    2    1    2  501    0  0.28686633722E+03  0.23291837037E+03  0.55574255643E+03  0.68999505657E+03  0.17521451533E+03 0.  0.
         24    2    5    5    0    0  0.19587209693E+03  0.11594810259E+03  0.44083320298E+03  0.50240975646E+03  0.79194757917E+02 0.  0.
          5    1    5    5  501    0  0.90994240286E+02  0.11697026778E+03  0.11490935345E+03  0.18758530012E+03  0.47000000000E+01 0. -1.
        -11    1    6    6    0    0  0.46903191986E+02 -0.58186166846E+01  0.67324431537E+02  0.82257794770E+02  0.00000000000E+00 0.  1.
         12    1    6    6    0    0  0.14896890494E+03  0.12176671927E+03  0.37350877145E+03  0.42015196169E+03  0.00000000000E+00 0. -1.
         -5    1    3    3    0  503 -0.17178119640E+03 -0.12736634098E+03  0.38319241417E+03  0.43885018005E+03  0.47000000000E+01 0.  1.
         13    1    4    4    0    0 -0.83595457302E+02 -0.98564424266E+02  0.35937165807E+03  0.38190461484E+03  0.00000000000E+00 0. -1.
        -14    1    4    4    0    0 -0.31489683516E+02 -0.69876051187E+01  0.25018186224E+03  0.25225263326E+03  0.00000000000E+00 0.  1.
</event>
<event>
12    1  0.8331241E-002  0.4114138E+03  0.7818608E-02  0.1039987E+00
         21   -1    0    0  503  502  0.00000000000E+00  0.00000000000E+00  0.21647604557E+03  0.21647604557E+03  0.00000000000E+00 0. -1.
         21   -1    0    0  501  503 -0.00000000000E+00 -0.00000000000E+00 -0.10717800361E+04  0.10717800361E+04  0.00000000000E+00 0.  1.
          6    2    1    2  501    0  0.93261177912E+01 -0.37207933431E+03 -0.76340459004E+03  0.86670321286E+03  0.17279433903E+03 0.  0.
         24    2    3    3    0    0  0.46931746129E+02 -0.35625497499E+03 -0.64372637245E+03  0.74017432527E+03  0.65986310730E+02 0.  0.
         -6    2    1    2    0  502 -0.93261177912E+01  0.37207933431E+03 -0.91899400534E+02  0.42155286885E+03  0.17530349091E+03 0.  0.
        -24    2    5    5    0    0  0.60978753162E+02  0.29099074090E+03 -0.64826817392E+02  0.31076862079E+03  0.63091994637E+02 0.  0.
          5    1    3    3  501    0 -0.37605628338E+02 -0.15824359325E+02 -0.11967821758E+03  0.12652888759E+03  0.47000000000E+01 0. -1.
        -13    1    4    4    0    0  0.21541064981E+02 -0.10649480823E+03 -0.25801870774E+03  0.27996216745E+03  0.00000000000E+00 0.  1.
         14    1    4    4    0    0  0.25390681148E+02 -0.24976016676E+03 -0.38570766471E+03  0.46021215782E+03  0.00000000000E+00 0. -1.
         -5    1    5    5    0  502 -0.70304870953E+02  0.81088593413E+02 -0.27072583142E+02  0.11078424807E+03  0.47000000000E+01 0.  1.
         11    1    6    6    0    0 -0.11012610053E+00  0.14627907153E+03 -0.21713271827E+02  0.14788186186E+03  0.00000000000E+00 0. -1.
        -12    1    6    6    0    0  0.61088879262E+02  0.14471166937E+03 -0.43113545565E+02  0.16288675892E+03  0.00000000000E+00 0.  1.
</event>
<event>
12    1  0.8331241E-002  0.2509677E+03  0.7818608E-02  0.1112808E+00
         21   -1    0    0  503  502  0.00000000000E+00  0.00000000000E+00  0.23678149654E+02  0.23678149654E+02  0.00000000000E+00 0.  1.
         21   -1    0    0  501  503 -0.00000000000E+00 -0.00000000000E+00 -0.26536173923E+04  0.26536173923E+04  0.00000000000E+00 0.  1.
          6    2    1    2  501    0 -0.35158533058E+02  0.17882295942E+03 -0.13456070019E+04  0.13688108024E+04  0.17254285256E+03 0.  0.
         24    2    3    3    0    0  0.93238501808E+01  0.51881427451E+02 -0.31386158304E+03  0.32832364040E+03  0.80676532177E+02 0.  0.
         -6    2    1    2    0  502  0.35158533058E+02 -0.17882295942E+03 -0.12843322408E+04  0.13084847396E+04  0.17149121183E+03 0.  0.
        -24    2    5    5    0    0  0.29157905628E+02 -0.15118773348E+02 -0.46419738798E+03  0.47213652570E+03  0.79717771730E+02 0.  0.
          5    1    3    3  501    0 -0.44482383239E+02  0.12694153197E+03 -0.10317454189E+04  0.10404871620E+04  0.47000000000E+01 0. -1.
        -11    1    4    4    0    0  0.15254282996E+01  0.71501466904E+02 -0.27442523425E+03  0.28359124791E+03  0.00000000000E+00 0.  1.
         12    1    4    4    0    0  0.77984218812E+01 -0.19620039454E+02 -0.39436348789E+02  0.44732392489E+02  0.00000000000E+00 0. -1.
         -5    1    5    5    0  502  0.60006274305E+01 -0.16370418608E+03 -0.82013485279E+03  0.83634821386E+03  0.47000000000E+01 0.  1.
         11    1    6    6    0    0 -0.20294886993E+02  0.57550916074E+01 -0.47213100548E+02  0.51711511106E+02  0.00000000000E+00 0. -1.
        -12    1    6    6    0    0  0.49452792621E+02 -0.20873864956E+02 -0.41698428743E+03  0.42042501460E+03  0.00000000000E+00 0.  1.
</event>
<event>
12    1  0.8331241E-002  0.1731737E+03  0.7818608E-02  0.1175036E+00
         21   -1    0    0  503  502  0.00000000000E+00  0.00000000000E+00  0.57862430972E+03  0.57862430972E+03  0.00000000000E+00 0.  1.
         21   -1    0    0  501  503 -0.00000000000E+00 -0.00000000000E+00 -0.11296045229E+03  0.11296045229E+03  0.00000000000E+00 0.  1.
          6    2    1    2  501    0 -0.63859105251E+01  0.15747882712E+02  0.48777263810E+03  0.51700550944E+03  0.17053965712E+03 0.  0.
         24    2    3    3    0    0 -0.36452033326E+02  0.19909438651E+02  0.12181469829E+03  0.14976091248E+03  0.76579198912E+02 0.  0.
         -6    2    1    2    0  502  0.63859105251E+01 -0.15747882712E+02 -0.22108780676E+02  0.17457925256E+03  0.17233787042E+03 0.  0.
        -24    2    5    5    0    0 -0.40887517943E+02 -0.57004934553E+02 -0.30584687457E+02  0.11109025854E+03  0.80524969728E+02 0.  0.
          5    1    3    3  501    0  0.30066122801E+02 -0.41615559395E+01  0.36595793981E+03  0.36724459697E+03  0.47000000000E+01 0. -1.
        -13    1    4    4    0    0 -0.19589632399E+01 -0.14017641793E+02  0.91670205644E+02  0.92756446791E+02  0.00000000000E+00 0.  1.
         14    1    4    4    0    0 -0.34493070086E+02  0.33927080445E+02  0.30144492644E+02  0.57004465686E+02  0.00000000000E+00 0. -1.
         -5    1    5    5    0  502  0.47273428468E+02  0.41257051841E+02  0.84759067812E+01  0.63488994019E+02  0.47000000000E+01 0.  1.
         13    1    6    6    0    0 -0.25789743976E+02 -0.74353678558E+02 -0.84177568947E+01  0.79148209333E+02  0.00000000000E+00 0. -1.
        -14    1    6    6    0    0 -0.15097773967E+02  0.17348744005E+02 -0.22166930562E+02  0.31942049212E+02  0.00000000000E+00 0.  1.
</event>
<event>
12    1  0.8331241E-002  0.1911029E+03  0.7818608E-02  0.1158407E+00
         21   -1    0    0  501  502  0.00000000000E+00  0.00000000000E+00  0.10173685343E+04  0.10173685343E+04  0.00000000000E+00 0. -1.
         21   -1    0    0  502  503 -0.00000000000E+00 -0.00000000000E+00 -0.40207305379E+02  0.40207305379E+02  0.00000000000E+00 0.  1.
         -6    2    1    2    0  503 -0.37702018774E+02 -0.75504320685E+02  0.30523701501E+03  0.36012490022E+03  0.17145834410E+03 0.  0.
        -24    2    3    3    0    0  0.40328071939E+02 -0.53722385685E+02  0.21346174109E+03  0.23761800795E+03  0.79899653841E+02 0.  0.
          6    2    1    2  501    0  0.37702018774E+02  0.75504320685E+02  0.67192421389E+03  0.69745093944E+03  0.16683320730E+03 0.  0.
         24    2    5    5    0    0 -0.29404395505E+02  0.29257265508E+02  0.21008303278E+03  0.22845048367E+03  0.79587290225E+02 0.  0.
          5    1    5    5  501    0  0.67106414279E+02  0.46247055177E+02  0.46184118111E+03  0.46900045578E+03  0.47000000000E+01 0. -1.
        -11    1    6    6    0    0 -0.48525593731E+02  0.38509388980E+02  0.18740077013E+03  0.19737465626E+03  0.00000000000E+00 0.  1.
         12    1    6    6    0    0  0.19121198225E+02 -0.92521234724E+01  0.22682262648E+02  0.31075827409E+02  0.00000000000E+00 0. -1.
         -5    1    3    3    0  503 -0.78030090713E+02 -0.21781935000E+02  0.91775273927E+02  0.12250689227E+03  0.47000000000E+01 0.  1.
         11    1    4    4    0    0 -0.17024804554E+02 -0.13576574839E+02  0.11355868528E+03  0.11562760206E+03  0.00000000000E+00 0. -1.
        -12    1    4    4    0    0  0.57352876493E+02 -0.40145810846E+02  0.99903055804E+02  0.12199040589E+03  0.00000000000E+00 0.  1.
</event>
<event>
12    1  0.8331241E-002  0.2764360E+03  0.7818608E-02  0.1097698E+00
         21   -1    0    0  501  502  0.00000000000E+00  0.00000000000E+00  0.73074460963E+03  0.73074460963E+03  0.00000000000E+00 0.  1.
         21   -1    0    0  502  503 -0.00000000000E+00 -0.00000000000E+00 -0.27291071423E+03  0.27291071423E+03  0.00000000000E+00 0.  1.
         -6    2    1    2    0  503  0.20932586869E+03 -0.54179276462E+02 -0.16540708768E+03  0.32185902037E+03  0.17170035248E+03 0.  0.
        -24    2    3    3    0    0  0.32481084489E+02 -0.33876066896E+02 -0.69894334899E+02  0.11979201673E+03  0.85219132031E+02 0.  0.
          6    2    1    2  501    0 -0.20932586869E+03  0.54179276462E+02  0.62324098309E+03  0.68179630349E+03  0.17223287476E+03 0.  0.
         24    2    5    5    0    0 -0.18783426273E+03  0.39286462648E+02  0.35072827051E+03  0.40799171341E+03  0.81374333021E+02 0.  0.
          5    1    5    5  501    0 -0.21491605958E+02  0.14892813814E+02  0.27251271258E+03  0.27380459007E+03  0.47000000000E+01 0. -1.
        -13    1    6    6    0    0 -0.15148041097E+03 -0.20128646376E+01  0.28029965988E+03  0.31861931182E+03  0.00000000000E+00 0.  1.
         14    1    6    6    0    0 -0.36353851757E+02  0.41299327286E+02  0.70428610631E+02  0.89372401597E+02  0.00000000000E+00 0. -1.
         -5    1    3    3    0  503  0.17684478420E+03 -0.20303209566E+02 -0.95512752783E+02  0.20206700364E+03  0.47000000000E+01 0.  1.
         13    1    4    4    0    0  0.61511290674E+01 -0.58264641095E+02 -0.56761635107E+02  0.81575045270E+02  0.00000000000E+00 0. -1.
        -14    1    4    4    0    0  0.26329955422E+02  0.24388574199E+02 -0.13132699792E+02  0.38216971463E+02  0.00000000000E+00 0.  1.
</event>
<event>
12    1  0.8331241E-002  0.1915641E+03  0.7818608E-02  0.1162165E+00
         21   -1    0    0  501  502  0.00000000000E+00  0.00000000000E+00  0.14351644264E+04  0.14351644264E+04  0.00000000000E+00 0.  1.
         21   -1    0    0  502  503 -0.00000000000E+00 -0.00000000000E+00 -0.83754020185E+02  0.83754020185E+02  0.00000000000E+00 0.  1.
         -6    2    1    2    0  503  0.15387600597E+02  0.12042368881E+02  0.38949739669E+02  0.19548372138E+03  0.19056496584E+03 0.  0.
        -24    2    3    3    0    0  0.22394883072E+02  0.40562645474E+02  0.94351910537E+02  0.13260289186E+03  0.80835542381E+02 0.  0.
          6    2    1    2  501    0 -0.15387600597E+02 -0.12042368881E+02  0.13124606665E+04  0.13234347252E+04  0.16895169055E+03 0.  0.
         24    2    5    5    0    0 -0.76705046311E+02  0.17241717332E+02  0.73395269270E+03  0.74093068860E+03  0.64115436841E+02 0.  0.
          5    1    5    5  501    0  0.61317445715E+02 -0.29284086213E+02  0.57850797382E+03  0.58250403658E+03  0.47000000000E+01 0. -1.
        -13    1    6    6    0    0 -0.46893966153E+02 -0.41680179849E+01  0.60577857093E+03  0.60760521182E+03  0.00000000000E+00 0.  1.
         14    1    6    6    0    0 -0.29811080159E+02  0.21409735316E+02  0.12817412178E+03  0.13332547679E+03  0.00000000000E+00 0. -1.
         -5    1    3    3    0  503 -0.70072824749E+01 -0.28520276593E+02 -0.55402170868E+02  0.62880829523E+02  0.47000000000E+01 0.  1.
         13    1    4    4    0    0  0.52237885767E+02  0.20343100882E+02  0.47423897580E+02  0.73427954654E+02  0.00000000000E+00 0. -1.
        -14    1    4    4    0    0 -0.29843002695E+02  0.20219544591E+02  0.46928012957E+02  0.59174937207E+02  0.00000000000E+00 0.  1.
</event>
<event>
12    1  0.8331241E-002  0.3049117E+03  0.7818608E-02  0.1082872E+00
         21   -1    0    0  501  502  0.00000000000E+00  0.00000000000E+00  0.11048016882E+03  0.11048016882E+03  0.00000000000E+00 0. -1.
         21   -1    0    0  502  503 -0.00000000000E+00 -0.00000000000E+00 -0.10200378956E+04  0.10200378956E+04  0.00000000000E+00 0.  1.
         -6    2    1    2    0  503 -0.18101071480E+03 -0.17400044957E+03 -0.21709038452E+03  0.37389257023E+03  0.17212316431E+03 0.  0.
        -24    2    3    3    0    0 -0.17088813533E+03 -0.20019007587E+03 -0.20395028697E+03  0.34253790064E+03  0.80359645008E+02 0.  0.
          6    2    1    2  501    0  0.18101071480E+03  0.17400044957E+03 -0.69246734230E+03  0.75662549423E+03  0.17300313015E+03 0.  0.
         24    2    5    5    0    0  0.81654748975E+02  0.63056346330E+02 -0.48057420962E+03  0.49758690316E+03  0.77443879002E+02 0.  0.
          5    1    5    5  501    0  0.99355965828E+02  0.11094410324E+03 -0.21189313267E+03  0.25903859107E+03  0.47000000000E+01 0. -1.
        -13    1    6    6    0    0  0.87035384428E+02  0.64851940284E+02 -0.34013661303E+03  0.35703479918E+03  0.00000000000E+00 0.  1.
         14    1    6    6    0    0 -0.53806354528E+01 -0.17955939542E+01 -0.14043759660E+03  0.14055210398E+03  0.00000000000E+00 0. -1.
         -5    1    3    3    0  503 -0.10122579476E+02  0.26189626303E+02 -0.13140097554E+02  0.31354669587E+02  0.47000000000E+01 0.  1.
         13    1    4    4    0    0 -0.79776356416E+02 -0.67886713194E+02 -0.37627162568E+02  0.11130443043E+03  0.00000000000E+00 0. -1.
        -14    1    4    4    0    0 -0.91111778911E+02 -0.13230336268E+03 -0.16632312440E+03  0.23123347021E+03  0.00000000000E+00 0.  1.
</event>
<event>
12    1  0.8331241E-002  0.2032190E+03  0.7818608E-02  0.1147283E+00
         21   -1    0    0  503  502  0.00000000000E+00  0.00000000000E+00  0.51294835688E+02  0.51294835688E+02  0.00000000000E+00 0.  1.
         21   -1    0    0  501  503 -0.00000000000E+00 -0.00000000000E+00 -0.10663939384E+04  0.10663939384E+04  0.00000000000E+00 0.  1.
          6    2    1    2  501    0  0.62666032101E+00  0.10797601348E+03 -0.78755407900E+03  0.81335072302E+03  0.17215910982E+03 0.  0.
         24    2    3    3    0    0 -0.50758499096E+02  0.15623136171E+02 -0.40148447506E+03  0.41304918962E+03  0.81236332490E+02 0.  0.
         -6    2    1    2    0  502 -0.62666032101E+00 -0.10797601348E+03 -0.22754502371E+03  0.30433805107E+03  0.17083822559E+03 0.  0.
        -24    2    5    5    0    0 -0.15400445605E+02  0.57895577786E+01 -0.61716656628E+02  0.10264023932E+03  0.80345381434E+02 0.  0.
          5    1    3    3  501    0  0.51385159417E+02  0.92352877310E+02 -0.38606960394E+03  0.40030153340E+03  0.47000000000E+01 0. -1.
        -11    1    4    4    0    0 -0.31788844600E+01  0.33401117435E+02 -0.27030862549E+03  0.27238298949E+03  0.00000000000E+00 0.  1.
         12    1    4    4    0    0 -0.47579614636E+02 -0.17777981264E+02 -0.13117584957E+03  0.14066620012E+03  0.00000000000E+00 0. -1.
         -5    1    5    5    0  502  0.14773785284E+02 -0.11376557126E+03 -0.16582836709E+03  0.20169781175E+03  0.47000000000E+01 0.  1.
         13    1    6    6    0    0  0.10048337120E+02  0.33605788217E+02 -0.53629281406E+02  0.64081338193E+02  0.00000000000E+00 0. -1.
        -14    1    6    6    0    0 -0.25448782725E+02 -0.27816230438E+02 -0.80873752225E+01  0.38558901125E+02  0.00000000000E+00 0.  1.
</event>
<event>
12    1  0.8331241E-002  0.1925517E+03  0.7818608E-02  0.1157040E+00
         21   -1    0    0  501  502  0.00000000000E+00  0.00000000000E+00  0.27449132334E+03  0.27449132334E+03  0.00000000000E+00 0.  1.
         21   -1    0    0  502  503 -0.00000000000E+00 -0.00000000000E+00 -0.13337657358E+03  0.13337657358E+03  0.00000000000E+00 0.  1.
         -6    2    1    2    0  503 -0.42900031600E+01  0.78115516312E+02  0.88783128273E+02  0.21203440301E+03  0.17594233765E+03 0.  0.
        -24    2    3    3    0    0 -0.40824913684E+02  0.10727513814E+03  0.42701802829E+02  0.14622663913E+03  0.79900921057E+02 0.  0.
          6    2    1    2  501    0  0.42900031600E+01 -0.78115516312E+02  0.52331621487E+02  0.19583349392E+03  0.17173153676E+03 0.  0.
         24    2    5    5    0    0 -0.12322858268E+02  0.23480811170E+01 -0.27898736041E+02  0.80901435969E+02  0.74895504193E+02 0.  0.
          5    1    5    5  501    0  0.16612861428E+02 -0.80463597429E+02  0.80230357528E+02  0.11493205795E+03  0.47000000000E+01 0. -1.
        -13    1    6    6    0    0  0.41818604403E+01  0.24748452089E+02 -0.42590969848E+02  0.49436469839E+02  0.00000000000E+00 0.  1.
         14    1    6    6    0    0 -0.16504718708E+02 -0.22400370972E+02  0.14692233808E+02  0.31464966130E+02  0.00000000000E+00 0. -1.
         -5    1    3    3    0  503  0.36534910524E+02 -0.29159621828E+02  0.46081325444E+02  0.65807763880E+02  0.47000000000E+01 0.  1.
         11    1    4    4    0    0 -0.55912965127E+01  0.51743651776E+02  0.58794493748E+02  0.78520446961E+02  0.00000000000E+00 0. -1.
        -12    1    4    4    0    0 -0.35233617172E+02  0.55531486364E+02 -0.16092690920E+02  0.67706192168E+02  0.00000000000E+00 0.  1.
</event>
<event>
12    1  0.8331241E-002  0.1966382E+03  0.7818608E-02  0.1152901E+00
         21   -1    0    0  503  502  0.00000000000E+00  0.00000000000E+00  0.75461839902E+03  0.75461839902E+03  0.00000000000E+00 0.  1.
         21   -1    0    0  501  503 -0.00000000000E+00 -0.00000000000E+00 -0.83167636599E+02  0.83167636599E+02  0.00000000000E+00 0.  1.
          6    2    1    2  501    0 -0.94957123522E+02  0.11420760248E+01  0.75462918791E+02  0.21062102228E+03  0.17218711702E+03 0.  0.
         24    2    3    3    0    0 -0.14719216178E+02 -0.55101321425E+02  0.44417376966E+02  0.10772613806E+03  0.79869934875E+02 0.  0.
         -6    2    1    2    0  502  0.94957123522E+02 -0.11420760248E+01  0.59598784363E+03  0.62716501334E+03  0.17063494530E+03 0.  0.
        -24    2    5    5    0    0 -0.67715132517E+01  0.31959328422E+02  0.29327366636E+03  0.30606941754E+03  0.81251417915E+02 0.  0.
          5    1    3    3  501    0 -0.80237907344E+02  0.56243397450E+02  0.31045541825E+02  0.10289488422E+03  0.47000000000E+01 0. -1.
        -11    1    4    4    0    0 -0.13074905032E+02 -0.68785243155E+02  0.10096197919E+02  0.70741049115E+02  0.00000000000E+00 0.  1.
         12    1    4    4    0    0 -0.16443111452E+01  0.13683921729E+02  0.34321179047E+02  0.36985088944E+02  0.00000000000E+00 0. -1.
         -5    1    5    5    0  502  0.10172863677E+03 -0.33101404446E+02  0.30271417727E+03  0.32109559579E+03  0.47000000000E+01 0.  1.
         13    1    6    6    0    0 -0.97080862944E+01 -0.19580532180E+02  0.18311407778E+03  0.18441369163E+03  0.00000000000E+00 0. -1.
        -14    1    6    6    0    0  0.29365730427E+01  0.51539860602E+02  0.11015958857E+03  0.12165572591E+03  0.00000000000E+00 0.  1.
</event>
<event>
12    1  0.8331241E-002  0.2364704E+03  0.7818608E-02  0.1122414E+00
         21   -1    0    0  501  502  0.00000000000E+00  0.00000000000E+00  0.29066207114E+03  0.29066207114E+03  0.00000000000E+00 0.  1.
         21   -1    0    0  502  503 -0.00000000000E+00 -0.00000000000E+00 -0.64384226157E+03  0.64384226157E+03  0.00000000000E+00 0.  1.
         -6    2    1    2    0  503  0.74070634901E+02 -0.14295895000E+03 -0.56820449662E+03  0.61488940993E+03  0.17119846998E+03 0.  0.
        -24    2    3    3    0    0  0.39251593248E+02 -0.53055521932E+02 -0.13318761588E+03  0.16929231774E+03  0.81026982180E+02 0.  0.
          6    2    1    2  501    0 -0.74070634901E+02  0.14295895000E+03  0.21502430619E+03  0.31961492278E+03  0.17318927875E+03 0.  0.
         24    2    5    5    0    0 -0.17733069229E+02  0.13844624721E+03  0.20791182000E+03  0.26245756759E+03  0.78580053322E+02 0.  0.
          5    1    5    5  501    0 -0.56337565672E+02  0.45127027878E+01  0.71124861899E+01  0.57157355188E+02  0.47000000000E+01 0. -1.
        -11    1    6    6    0    0 -0.11329431834E+02  0.17375443982E+02  0.93442634031E+02  0.95717229034E+02  0.00000000000E+00 0.  1.
         12    1    6    6    0    0 -0.64036373955E+01  0.12107080323E+03  0.11446918597E+03  0.16674033856E+03  0.00000000000E+00 0. -1.
         -5    1    3    3    0  503  0.34819041653E+02 -0.89903428068E+02 -0.43501688074E+03  0.44559709219E+03  0.47000000000E+01 0.  1.
         11    1    4    4    0    0  0.60979164618E+02 -0.19437831309E+02 -0.73970966536E+02  0.97816111627E+02  0.00000000000E+00 0. -1.
        -12    1    4    4    0    0 -0.21727571370E+02 -0.33617690623E+02 -0.59216649347E+02  0.71476206113E+02  0.00000000000E+00 0.  1.
</event>
<event>
12    1  0.8331241E-002  0.2399049E+03  0.7818608E-02  0.1120241E+00
         21   -1    0    0  503  502  0.00000000000E+00  0.00000000000E+00  0.15626590587E+03  0.15626590587E+03  0.00000000000E+00 0. -1.
         21   -1    0    0  501  503 -0.00000000000E+00 -0.00000000000E+00 -0.49819169564E+03  0.49819169564E+03  0.00000000000E+00 0. -1.
          6    2    1    2  501    0  0.12797035096E+03 -0.10470909728E+03 -0.33968975516E+03  0.41454228488E+03  0.17063343873E+03 0.  0.
         24    2    3    3    0    0  0.69346375025E+02 -0.19762091265E+01 -0.10086168183E+03  0.14798693326E+03  0.83151839569E+02 0.  0.
         -6    2    1    2    0  502 -0.12797035096E+03  0.10470909728E+03 -0.22360346112E+01  0.23991531663E+03  0.17382161409E+03 0.  0.
        -24    2    5    5    0    0 -0.16261117436E+03  0.97270222924E+02 -0.38237834378E+01  0.20413914517E+03  0.75856963941E+02 0.  0.
          5    1    3    3  501    0  0.58623975932E+02 -0.10273288816E+03 -0.23882807333E+03  0.26655535161E+03  0.47000000000E+01 0. -1.
        -11    1    4    4    0    0 -0.12260402683E+02 -0.50397416677E+01 -0.50117900356E+02  0.51841300197E+02  0.00000000000E+00 0.  1.
         12    1    4    4    0    0  0.81606777708E+02  0.30635325412E+01 -0.50743781471E+02  0.96145633065E+02  0.00000000000E+00 0. -1.
         -5    1    5    5    0  502  0.34640823401E+02  0.74388743588E+01  0.15877488267E+01  0.35776171455E+02  0.47000000000E+01 0.  1.
         13    1    6    6    0    0 -0.10862268879E+03  0.24036040032E+02 -0.15815314774E+02  0.11236878535E+03  0.00000000000E+00 0. -1.
        -14    1    6    6    0    0 -0.53988485571E+02  0.73234182892E+02  0.11991531337E+02  0.91770359822E+02  0.00000000000E+00 0.  1.
</event>
<event>
12    1  0.8331241E-002  0.1942461E+03  0.7818608E-02  0.1154992E+00
         21   -1    0    0  503  502  0.00000000000E+00  0.00000000000E+00  0.92442552026E+03  0.92442552026E+03  0.00000000000E+00 0. -1.
         21   -1    0    0  501  503 -0.00000000000E+00 -0.00000000000E+00 -0.41412660124E+02  0.41412660124E+02  0.00000000000E+00 0. -1.
          6    2    1    2  501    0  0.59544546100E+02 -0.62980216388E+02  0.37234954538E+03  0.41997110291E+03  0.17383751811E+03 0.  0.
         24    2    3    3    0    0  0.55310739983E+02 -0.10341981849E+03  0.21926546383E+03  0.26150939599E+03  0.80962236566E+02 0.  0.
         -6    2    1    2    0  502 -0.59544546100E+02  0.62980216388E+02  0.51066331476E+03  0.54586707748E+03  0.17228402310E+03 0.  0.
        -24    2    5    5    0    0 -0.28068616381E+02  0.25784464698E+02  0.10430074117E+03  0.13656658969E+03  0.79492785620E+02 0.  0.
          5    1    3    3  501    0  0.42338061167E+01  0.40439602104E+02  0.15308408155E+03  0.15846170691E+03  0.47000000000E+01 0. -1.
        -11    1    4    4    0    0  0.37970646958E+02 -0.71230890693E+02  0.66961450644E+02  0.10487824222E+03  0.00000000000E+00 0.  1.
         12    1    4    4    0    0  0.17340093025E+02 -0.32188927799E+02  0.15230401319E+03  0.15663115377E+03  0.00000000000E+00 0. -1.
         -5    1    5    5    0  502 -0.31475929719E+02  0.37195751690E+02  0.40636257358E+03  0.40930048779E+03  0.47000000000E+01 0.  1.
         13    1    6    6    0    0  0.26582098185E+01  0.34739934853E+02  0.97916722344E+02  0.10393081193E+03  0.00000000000E+00 0. -1.
        -14    1    6    6    0    0 -0.30726826200E+02 -0.89554701545E+01  0.63840188290E+01  0.32635777766E+02  0.00000000000E+00 0.  1.
</event>
<event>
12    1  0.8331241E-002  0.1987784E+03  0.7818608E-02  0.1152649E+00
         21   -1    0    0  501  502  0.00000000000E+00  0.00000000000E+00  0.15791835768E+03  0.15791835768E+03  0.00000000000E+00 0. -1.
         21   -1    0    0  502  503 -0.00000000000E+00 -0.00000000000E+00 -0.25592522590E+03  0.25592522590E+03  0.00000000000E+00 0. -1.
         -6    2    1    2    0  503 -0.77775753410E+02 -0.25448041058E+02 -0.10042047471E+03  0.21505056513E+03  0.17165606079E+03 0.  0.
        -24    2    3    3    0    0 -0.36067505529E+02 -0.74263946451E+02 -0.35090391959E+02  0.12332990075E+03  0.84634095458E+02 0.  0.
          6    2    1    2  501    0  0.77775753410E+02  0.25448041058E+02  0.24136064951E+01  0.19879301845E+03  0.18115233390E+03 0.  0.
         24    2    5    5    0    0  0.52578111072E+01 -0.36043567476E+02 -0.37855128589E+02  0.95430883694E+02  0.79669689770E+02 0.  0.
          5    1    5    5  501    0  0.72517942303E+02  0.61491608535E+02  0.40268735084E+02  0.10336213476E+03  0.47000000000E+01 0. -1.
        -13    1    6    6    0    0  0.39903623203E+02 -0.23749221982E+02 -0.60671944572E+01  0.46830925018E+02  0.00000000000E+00 0.  1.
         14    1    6    6    0    0 -0.34645812096E+02 -0.12294345494E+02 -0.31787934131E+02  0.48599958676E+02  0.00000000000E+00 0. -1.
         -5    1    3    3    0  503 -0.41708247881E+02  0.48815905393E+02 -0.65330082754E+02  0.91720664375E+02  0.47000000000E+01 0.  1.
         11    1    4    4    0    0  0.19164423133E+02 -0.19336495314E+02 -0.36362544967E+02  0.45424771233E+02  0.00000000000E+00 0. -1.
        -12    1    4    4    0    0 -0.55231928662E+02 -0.54927451137E+02  0.12721530082E+01  0.77905129519E+02  0.00000000000E+00 0.  1.
</event>
<event>
12    1  0.8331241E-002  0.1739532E+03  0.7818608E-02  0.1174843E+00
         21   -1    0    0  503  502  0.00000000000E+00  0.00000000000E+00  0.12894811054E+03  0.12894811054E+03  0.00000000000E+00 0. -1.
         21   -1    0    0  501  503 -0.00000000000E+00 -0.00000000000E+00 -0.32618281772E+03  0.32618281772E+03  0.00000000000E+00 0. -1.
          6    2    1    2  501    0 -0.90109946521E+01 -0.18166685918E+02 -0.22356743168E+03  0.28327036645E+03  0.17276711927E+03 0.  0.
         24    2    3    3    0    0  0.72064716757E+01 -0.75510666142E+02 -0.17331565413E+03  0.20517638827E+03  0.79405543896E+02 0.  0.
         -6    2    1    2    0  502  0.90109946521E+01  0.18166685918E+02  0.26332724500E+02  0.17186056181E+03  0.16861617308E+03 0.  0.
        -24    2    5    5    0    0 -0.43204454699E+02  0.49053014703E+02  0.38434323608E+02  0.10982059761E+03  0.79438927934E+02 0.  0.
          5    1    3    3  501    0 -0.16217466328E+02  0.57343980224E+02 -0.50251777551E+02  0.78093978187E+02  0.47000000000E+01 0. -1.
        -13    1    4    4    0    0 -0.65917109792E+01  0.14171784376E+02 -0.47849293650E+02  0.50337312492E+02  0.00000000000E+00 0.  1.
         14    1    4    4    0    0  0.13798182655E+02 -0.89682450518E+02 -0.12546636048E+03  0.15483907577E+03  0.00000000000E+00 0. -1.
         -5    1    5    5    0  502  0.52215449351E+02 -0.30886328786E+02 -0.12101599109E+02  0.62039964199E+02  0.47000000000E+01 0.  1.
         13    1    6    6    0    0  0.16205750769E+02  0.17395186825E+02  0.35133075892E+02  0.42421125684E+02  0.00000000000E+00 0. -1.
        -14    1    6    6    0    0 -0.59410205468E+02  0.31657827878E+02  0.33012477165E+01  0.67399471928E+02  0.00000000000E+00 0.  1.
</event>
<event>
12    1  0.8331241E-002  0.1737062E+03  0.7818608E-02  0.1174988E+00
         21   -1    0    0  501  502  0.00000000000E+00  0.00000000000E+00  0.21354826707E+03  0.21354826707E+03  0.00000000000E+00 0.  1.
         21   -1    0    0  502  503 -0.00000000000E+00 -0.00000000000E+00 -0.14009813305E+03  0.14009813305E+03  0.00000000000E+00 0.  1.
         -6    2    1    2    0  503  0.24528579157E+02  0.20605734138E+02  0.17060933175E+02  0.17454201448E+03  0.17072665844E+03 0.  0.
        -24    2    3    3    0    0  0.80179132490E+02  0.18679047028E+01 -0.25852202699E+01  0.11244409435E+03  0.78770607693E+02 0.  0.
          6    2    1    2  501    0 -0.24528579157E+02 -0.20605734138E+02  0.56389200847E+02  0.17910438565E+03  0.16695026658E+03 0.  0.
         24    2    5    5    0    0 -0.55925759872E+02 -0.26400668830E+02 -0.12233441683E+02  0.10327219398E+03  0.81797328946E+02 0.  0.
          5    1    5    5  501    0  0.31397180715E+02  0.57949346921E+01  0.68622642530E+02  0.75832191665E+02  0.47000000000E+01 0. -1.
        -11    1    6    6    0    0 -0.26230977654E+00  0.25744313428E+02 -0.76667673220E+01  0.26862944766E+02  0.00000000000E+00 0.  1.
         12    1    6    6    0    0 -0.55663450095E+02 -0.52144982258E+02 -0.45666743609E+01  0.76409249217E+02  0.00000000000E+00 0. -1.
         -5    1    3    3    0  503 -0.55650553333E+02  0.18737829435E+02  0.19646153445E+02  0.62097920121E+02  0.47000000000E+01 0.  1.
         11    1    4    4    0    0  0.29447319942E+02  0.31221553746E+02  0.22768857540E+02  0.48583443103E+02  0.00000000000E+00 0. -1.
        -12    1    4    4    0    0  0.50731812548E+02 -0.29353649043E+02 -0.25354077810E+02  0.63860651251E+02  0.00000000000E+00 0.  1.
</event>
<event>
12    1  0.8331241E-002  0.1820817E+03  0.7818608E-02  0.1165909E+00
         21   -1    0    0  501  502  0.00000000000E+00  0.00000000000E+00  0.68230656816E+02  0.68230656816E+02  0.00000000000E+00 0.  1.
         21   -1    0    0  502  503 -0.00000000000E+00 -0.00000000000E+00 -0.49613616586E+03  0.49613616586E+03  0.00000000000E+00 0.  1.
         -6    2    1    2    0  503  0.25738821847E+02  0.49072537184E+02 -0.25649067871E+03  0.31429326076E+03  0.17298030129E+03 0.  0.
        -24    2    3    3    0    0 -0.30718275204E+02  0.77124736993E+02 -0.18274656580E+03  0.21716132003E+03  0.82890856640E+02 0.  0.
          6    2    1    2  501    0 -0.25738821847E+02 -0.49072537184E+02 -0.17141483033E+03  0.25007356192E+03  0.17344492341E+03 0.  0.
         24    2    5    5    0    0 -0.97622029547E+01 -0.10022936478E+03 -0.12218491556E+03  0.17714930074E+03  0.79444917969E+02 0.  0.
          5    1    5    5  501    0 -0.15976618892E+02  0.51156827591E+02 -0.49229914766E+02  0.72924261178E+02  0.47000000000E+01 0. -1.
        -11    1    6    6    0    0 -0.39350804090E+02 -0.53958083594E+02 -0.38603581515E+02  0.77137520530E+02  0.00000000000E+00 0.  1.
         12    1    6    6    0    0  0.29588601135E+02 -0.46271281181E+02 -0.83581334047E+02  0.10001178021E+03  0.00000000000E+00 0. -1.
         -5    1    3    3    0  503  0.56457097051E+02 -0.28052199809E+02 -0.73744112908E+02  0.97131940731E+02  0.47000000000E+01 0.  1.
         11    1    4    4    0    0 -0.23842999225E+02 -0.86009213432E+01 -0.17270459495E+02  0.30671374784E+02  0.00000000000E+00 0. -1.
        -12    1    4    4    0    0 -0.68752759793E+01  0.85725658337E+02 -0.16547610631E+03  0.18648994524E+03  0.00000000000E+00 0.  1.
</event>
<event>
12    1  0.8331241E-002  0.2073304E+03  0.7818608E-02  0.1143966E+00
         21   -1    0    0  501  502  0.00000000000E+00  0.00000000000E+00  0.15992999354E+03  0.15992999354E+03  0.00000000000E+00 0.  1.
         21   -1    0    0  502  503 -0.00000000000E+00 -0.00000000000E+00 -0.65315643851E+03  0.65315643851E+03  0.00000000000E+00 0.  1.
         -6    2    1    2    0  503  0.16820776576E+02  0.11241915552E+03 -0.55950679858E+03  0.59668565547E+03  0.17339235488E+03 0.  0.
        -24    2    3    3    0    0  0.17894589908E+01  0.50714121661E+02 -0.12041811471E+03  0.15300287012E+03  0.79587886106E+02 0.  0.
          6    2    1    2  501    0 -0.16820776576E+02 -0.11241915552E+03  0.66280353614E+02  0.21640077658E+03  0.17179990040E+03 0.  0.
         24    2    5    5    0    0 -0.27170557785E+02 -0.12817919048E+02  0.12961168730E+02  0.10285541228E+03  0.97512592421E+02 0.  0.
          5    1    5    5  501    0  0.10349781209E+02 -0.99601236477E+02  0.53319184884E+02  0.11354536431E+03  0.47000000000E+01 0. -1.
        -11    1    6    6    0    0 -0.54129112935E+00  0.22727327930E+02  0.43412649441E+02  0.49004923859E+02  0.00000000000E+00 0.  1.
         12    1    6    6    0    0 -0.26629266655E+02 -0.35545246977E+02 -0.30451480711E+02  0.53850488417E+02  0.00000000000E+00 0. -1.
         -5    1    3    3    0  503  0.15031317585E+02  0.61705033863E+02 -0.43908868387E+03  0.44368278535E+03  0.47000000000E+01 0.  1.
         13    1    4    4    0    0  0.38439469019E+02  0.11656313063E+02 -0.60671497236E+02  0.72763266760E+02  0.00000000000E+00 0. -1.
        -14    1    4    4    0    0 -0.36650010028E+02  0.39057808598E+02 -0.59746617474E+02  0.80239603359E+02  0.00000000000E+00 0.  1.
</event>
<event>
12    1  0.8331241E-002  0.1715522E+03  0.7818608E-02  0.1176242E+00
         21   -1    0    0  503  502  0.00000000000E+00  0.00000000000E+00  0.11749266838E+03  0.11749266838E+03  0.00000000000E+00 0.  1.
         21   -1    0    0  501  503 -0.00000000000E+00 -0.00000000000E+00 -0.33850373086E+03  0.33850373086E+03  0.00000000000E+00 0.  1.
          6    2    1    2  501    0 -0.43712879768E+01  0.95234456504E+00 -0.22678331759E+03  0.28436040202E+03  0.17149387739E+03 0.  0.
         24    2    3    3    0    0  0.47624887838E+02  0.30073576538E+02 -0.83730079055E+02  0.12931857700E+03  0.80870379441E+02 0.  0.
         -6    2    1    2    0  502  0.43712879768E+01 -0.95234456504E+00  0.57722551072E+01  0.17163599722E+03  0.17148055718E+03 0.  0.
        -24    2    5    5    0    0  0.53045548929E+02 -0.42669465740E+02  0.14236088999E+02  0.10680368766E+03  0.81054598264E+02 0.  0.
          5    1    3    3  501    0 -0.51996175815E+02 -0.29121231973E+02 -0.14305323853E+03  0.15504182502E+03  0.47000000000E+01 0. -1.
        -13    1    4    4    0    0  0.15541113246E+02  0.54246781808E+02 -0.61265350355E+02  0.83292752935E+02  0.00000000000E+00 0.  1.
         14    1    4    4    0    0  0.32083774592E+02 -0.24173205270E+02 -0.22464728700E+02  0.46025824063E+02  0.00000000000E+00 0. -1.
         -5    1    5    5    0  502 -0.48674260952E+02  0.41717121175E+02 -0.84638338915E+01  0.64832309557E+02  0.47000000000E+01 0.  1.
         11    1    6    6    0    0  0.53925410875E+02 -0.90822162564E+01 -0.20570859811E+02  0.58425994759E+02  0.00000000000E+00 0. -1.
        -12    1    6    6    0    0 -0.87986194604E+00 -0.33587249483E+02  0.34806948809E+02  0.48377692900E+02  0.00000000000E+00 0.  1.
</event>
<event>
12    1  0.8331241E-002  0.1897919E+03  0.7818608E-02  0.1159421E+00
         21   -1    0    0  501  502  0.00000000000E+00  0.00000000000E+00  0.50645633790E+03  0.50645633790E+03  0.00000000000E+00 0.  1.
         21   -1    0    0  502  503 -0.00000000000E+00 -0.00000000000E+00 -0.13857810813E+03  0.13857810813E+03  0.00000000000E+00 0.  1.
         -6    2    1    2    0  503 -0.71733170457E+02 -0.33524739725E+02 -0.44002912257E+02  0.19152914985E+03  0.16875308304E+03 0.  0.
        -24    2    3    3    0    0 -0.85394058373E+02 -0.34012790608E+02 -0.83895158691E+02  0.14909874356E+03  0.82115909229E+02 0.  0.
          6    2    1    2  501    0  0.71733170457E+02  0.33524739725E+02  0.41188114203E+03  0.45350529618E+03  0.17248600694E+03 0.  0.
         24    2    5    5    0    0 -0.20246561297E+02 -0.16970763294E+02  0.16613983516E+03  0.18625831906E+03  0.79948649409E+02 0.  0.
          5    1    5    5  501    0  0.91979731754E+02  0.50495503019E+02  0.24574130687E+03  0.26724697712E+03  0.47000000000E+01 0. -1.
        -11    1    6    6    0    0 -0.16976333373E+02  0.30679554826E+02  0.87314516285E+02  0.94091741047E+02  0.00000000000E+00 0.  1.
         12    1    6    6    0    0 -0.32702279240E+01 -0.47650318120E+02  0.78825318874E+02  0.92166578016E+02  0.00000000000E+00 0. -1.
         -5    1    3    3    0  503  0.13660887916E+02  0.48805088340E+00  0.39892246434E+02  0.42430406289E+02  0.47000000000E+01 0.  1.
         11    1    4    4    0    0 -0.19497633377E+02  0.14244122087E+02  0.86654412965E+01  0.25654289976E+02  0.00000000000E+00 0. -1.
        -12    1    4    4    0    0 -0.65896424996E+02 -0.48256912695E+02 -0.92560599988E+02  0.12344445358E+03  0.00000000000E+00 0.  1.
</event>
<event>
12    1  0.8331241E-002  0.2107883E+03  0.7818608E-02  0.1141114E+00
         21   -1    0    0  501  502  0.00000000000E+00  0.00000000000E+00  0.76280982857E+03  0.76280982857E+03  0.00000000000E+00 0.  1.
         21   -1    0    0  502  503 -0.00000000000E+00 -0.00000000000E+00 -0.60434365911E+02  0.60434365911E+02  0.00000000000E+00 0. -1.
         -6    2    1    2    0  503  0.76132139650E+02  0.92898947336E+02  0.26941548047E+03  0.34207663584E+03  0.17322068747E+03 0.  0.
        -24    2    3    3    0    0  0.56452634705E+02 -0.15375484249E+02  0.10596577612E+03  0.14497632812E+03  0.79787746722E+02 0.  0.
          6    2    1    2  501    0 -0.76132139650E+02 -0.92898947336E+02  0.43295998219E+03  0.48116755864E+03  0.17216723325E+03 0.  0.
         24    2    5    5    0    0 -0.90016753989E+02 -0.32417001575E+02  0.17263271097E+03  0.21350503527E+03  0.81415411299E+02 0.  0.
          5    1    5    5  501    0  0.13884614339E+02 -0.60481945761E+02  0.26032727121E+03  0.26766252337E+03  0.47000000000E+01 0. -1.
        -13    1    6    6    0    0 -0.99205838584E+00  0.97550580166E+01  0.72066855878E+02  0.72730853514E+02  0.00000000000E+00 0.  1.
         14    1    6    6    0    0 -0.89024695603E+02 -0.42172059591E+02  0.10056585510E+03  0.14077418175E+03  0.00000000000E+00 0. -1.
         -5    1    3    3    0  503  0.19679504944E+02  0.10827443158E+03  0.16344970435E+03  0.19710030772E+03  0.47000000000E+01 0.  1.
         13    1    4    4    0    0 -0.89421223915E+01  0.82910563344E+01 -0.56716226692E+01  0.13448809304E+02  0.00000000000E+00 0. -1.
        -14    1    4    4    0    0  0.65394757097E+02 -0.23666540583E+02  0.11163739879E+03  0.13152751882E+03  0.00000000000E+00 0.  1.
</event>
<event>
12    1  0.8331241E-002  0.1913156E+03  0.7818608E-02  0.1157433E+00
         21   -1    0    0  501  502  0.00000000000E+00  0.00000000000E+00  0.14599980388E+03  0.14599980388E+03  0.00000000000E+00 0.  1.
         21   -1    0    0  502  503 -0.00000000000E+00 -0.00000000000E+00 -0.69055474669E+03  0.69055474669E+03  0.00000000000E+00 0.  1.
         -6    2    1    2    0  503  0.34960706996E+02  0.76732185701E+02 -0.60661892241E+03  0.63607246925E+03  0.17173115545E+03 0.  0.
        -24    2    3    3    0    0  0.21654601189E+02  0.16349550197E+02 -0.53071860763E+03  0.53806194478E+03  0.84333779670E+02 0.  0.
          6    2    1    2  501    0 -0.34960706996E+02 -0.76732185701E+02  0.62063979594E+02  0.20048208132E+03  0.17097089814E+03 0.  0.
         24    2    5    5    0    0 -0.32389437717E+02 -0.30047829482E+02  0.10354840616E+03  0.13779964208E+03  0.79463961695E+02 0.  0.
          5    1    5    5  501    0 -0.25712692788E+01 -0.46684356219E+02 -0.41484426564E+02  0.62682439237E+02  0.47000000000E+01 0. -1.
        -13    1    6    6    0    0 -0.17658344739E+02 -0.23183893401E+02 -0.36551317827E+01  0.29371245130E+02  0.00000000000E+00 0.  1.
         14    1    6    6    0    0 -0.14731092979E+02 -0.68639360808E+01  0.10720353794E+03  0.10842839695E+03  0.00000000000E+00 0. -1.
         -5    1    3    3    0  503  0.13306105807E+02  0.60382635504E+02 -0.75900314780E+02  0.98010524465E+02  0.47000000000E+01 0.  1.
         13    1    4    4    0    0 -0.45921999710E+01 -0.26061742540E+02 -0.73272097136E+02  0.77904447520E+02  0.00000000000E+00 0. -1.
        -14    1    4    4    0    0  0.26246801160E+02  0.42411292736E+02 -0.45744651050E+03  0.46015749726E+03  0.00000000000E+00 0.  1.
</event>
<event>
12    1  0.8331241E-002  0.1753023E+03  0.7818608E-02  0.1172598E+00
         21   -1    0    0  501  502  0.00000000000E+00  0.00000000000E+00  0.25312176736E+02  0.25312176736E+02  0.00000000000E+00 0.  1.
         21   -1    0    0  502  503 -0.00000000000E+00 -0.00000000000E+00 -0.13594997918E+04  0.13594997918E+04  0.00000000000E+00 0.  1.
         -6    2    1    2    0  503 -0.21711374722E+02  0.21498544202E+02 -0.89829418430E+03  0.91523949047E+03  0.17261897975E+03 0.  0.
        -24    2    3    3    0    0  0.10252247663E+02  0.35364212760E+02 -0.18580582140E+03  0.20188425835E+03  0.69840635575E+02 0.  0.
          6    2    1    2  501    0  0.21711374722E+02 -0.21498544202E+02 -0.43589343075E+03  0.46957247805E+03  0.17193504000E+03 0.  0.
         24    2    5    5    0    0  0.67063217239E+02  0.10970985823E+02 -0.36123925663E+03  0.37626440920E+03  0.80394449200E+02 0.  0.
          5    1    5    5  501    0 -0.45351842517E+02 -0.32469530025E+02 -0.74654174113E+02  0.93308068849E+02  0.47000000000E+01 0. -1.
        -13    1    6    6    0    0 -0.13332479055E+02  0.15733437233E+02 -0.39039947804E+02  0.44152163813E+02  0.00000000000E+00 0.  1.
         14    1    6    6    0    0  0.80395696294E+02 -0.47624514094E+01 -0.32219930883E+03  0.33211224539E+03  0.00000000000E+00 0. -1.
         -5    1    3    3    0  503 -0.31963622385E+02 -0.13865668558E+02 -0.71248836290E+03  0.71335523212E+03  0.47000000000E+01 0.  1.
         11    1    4    4    0    0  0.53641643338E+01 -0.20043896702E+02 -0.76167718813E+02  0.78943355915E+02  0.00000000000E+00 0. -1.
        -12    1    4    4    0    0  0.48880833293E+01  0.55408109462E+02 -0.10963810259E+03  0.12294090244E+03  0.00000000000E+00 0.  1.
</event>
<event>
12    1  0.8331241E-002  0.1985195E+03  0.7818608E-02  0.1151083E+00
         21   -1    0    0  503  502  0.00000000000E+00  0.00000000000E+00  0.10568731323E+04  0.10568731323E+04  0.00000000000E+00 0. -1.
         21   -1    0    0  501  503 -0.00000000000E+00 -0.00000000000E+00 -0.41948457804E+02  0.41948457804E+02  0.00000000000E+00 0. -1.
          6    2    1    2  501    0  0.67995306010E+02  0.69990018463E+02  0.32329584484E+03  0.37938135539E+03  0.17288159303E+03 0.  0.
         24    2    3    3    0    0  0.72491378529E+02 -0.16209007481E+02  0.14567965937E+03  0.18184633044E+03  0.79547425207E+02 0.  0.
         -6    2    1    2    0  502 -0.67995306010E+02 -0.69990018463E+02  0.69162882961E+03  0.71944023467E+03  0.17240025806E+03 0.  0.
        -24    2    5    5    0    0 -0.11351297773E+03 -0.48692037783E+02  0.48461891647E+03  0.50636593645E+03  0.79340133222E+02 0.  0.
          5    1    3    3  501    0 -0.44960725195E+01  0.86199025944E+02  0.17761618547E+03  0.19753502495E+03  0.47000000000E+01 0. -1.
        -11    1    4    4    0    0  0.18268249386E+02 -0.23416801273E+02  0.11573750519E+03  0.11948742874E+03  0.00000000000E+00 0.  1.
         12    1    4    4    0    0  0.54223129143E+02  0.72077937917E+01  0.29942154175E+02  0.62358901706E+02  0.00000000000E+00 0. -1.
         -5    1    5    5    0  502  0.45517671724E+02 -0.21297980679E+02  0.20700991315E+03  0.21307429822E+03  0.47000000000E+01 0.  1.
         11    1    6    6    0    0 -0.31466810144E+02 -0.55289562271E+02  0.23900927701E+03  0.24733081154E+03  0.00000000000E+00 0. -1.
        -12    1    6    6    0    0 -0.82046167589E+02  0.65975244874E+01  0.24560963946E+03  0.25903512491E+03  0.00000000000E+00 0.  1.
</event>
<event>
12    1  0.8331241E-002  0.1915860E+03  0.7818608E-02  0.1157371E+00
         21   -1    0    0  503  502  0.00000000000E+00  0.00000000000E+00  0.29836890274E+02  0.29836890274E+02  0.00000000000E+00 0.  1.
         21   -1    0    0  501  503 -0.00000000000E+00 -0.00000000000E+00 -0.13868711454E+04  0.13868711454E+04  0.00000000000E+00 0.  1.
          6    2    1    2  501    0  0.14134690283E+02  0.81337054456E+02 -0.92603602473E+03  0.94564682840E+03  0.17288637618E+03 0.  0.
         24    2    3    3    0    0 -0.49268476641E+02  0.32964521948E+02 -0.34037730665E+03  0.35456469575E+03  0.79657831324E+02 0.  0.
         -6    2    1    2    0  502 -0.14134690283E+02 -0.81337054456E+02 -0.43099823039E+03  0.47106120727E+03  0.17124158518E+03 0.  0.
        -24    2    5    5    0    0  0.50005486834E+02 -0.21729622409E+02 -0.17644770067E+03  0.20183069180E+03  0.81419358133E+02 0.  0.
          5    1    3    3  501    0  0.63403166924E+02  0.48372532508E+02 -0.58565871808E+03  0.59108213265E+03  0.47000000000E+01 0. -1.
        -13    1    4    4    0    0 -0.61810335796E+02  0.48712598541E+02 -0.28392651366E+03  0.29463146476E+03  0.00000000000E+00 0.  1.
         14    1    4    4    0    0  0.12541859156E+02 -0.15748076593E+02 -0.56450792987E+02  0.59933230985E+02  0.00000000000E+00 0. -1.
         -5    1    5    5    0  502 -0.64140177117E+02 -0.59607432046E+02 -0.25455052973E+03  0.26923051547E+03  0.47000000000E+01 0.  1.
         11    1    6    6    0    0 -0.10283429521E+02  0.46722119591E+01  0.21444768496E+01  0.11496837316E+02  0.00000000000E+00 0. -1.
        -12    1    6    6    0    0  0.60288916355E+02 -0.26401834368E+02 -0.17859217752E+03  0.19033385448E+03  0.00000000000E+00 0.  1.
</event>
<event>
12    1  0.8331241E-002  0.2693517E+03  0.7818608E-02  0.1101965E+00
         21   -1    0    0  501  502  0.00000000000E+00  0.00000000000E+00  0.42606317975E+03  0.42606317975E+03  0.00000000000E+00 0.  1.
         21   -1    0    0  502  503 -0.00000000000E+00 -0.00000000000E+00 -0.27753653418E+03  0.27753653418E+03  0.00000000000E+00 0. -1.
         -6    2    1    2    0  503  0.12558386744E+03 -0.16617248470E+03 -0.14601106378E+03  0.30447216119E+03  0.16733040298E+03 0.  0.
        -24    2    3    3    0    0  0.25775474618E+02 -0.55495801540E+02 -0.67425930126E+01  0.10044069199E+03  0.79364418775E+02 0.  0.
          6    2    1    2  501    0 -0.12558386744E+03  0.16617248470E+03  0.29453770934E+03  0.39912755274E+03  0.17077979592E+03 0.  0.
         24    2    5    5    0    0 -0.12461933666E+03  0.17618692264E+03  0.30649745783E+03  0.38280747704E+03  0.77647034955E+02 0.  0.
          5    1    5    5  501    0 -0.96453077332E+00 -0.10014437938E+02 -0.11959748491E+02  0.16320075698E+02  0.47000000000E+01 0. -1.
        -13    1    6    6    0    0 -0.84433904419E+02  0.83312936611E+02  0.21886710612E+03  0.24894364776E+03  0.00000000000E+00 0.  1.
         14    1    6    6    0    0 -0.40185432244E+02  0.92873986029E+02  0.87630351717E+02  0.13386382927E+03  0.00000000000E+00 0. -1.
         -5    1    3    3    0  503  0.99808392819E+02 -0.11067668316E+03 -0.13926847077E+03  0.20403146920E+03  0.47000000000E+01 0.  1.
         13    1    4    4    0    0  0.24297395956E+02 -0.56103520093E+02 -0.36125586717E+02  0.71014269219E+02  0.00000000000E+00 0. -1.
        -14    1    4    4    0    0  0.14780786612E+01  0.60771855243E+00  0.29382993704E+02  0.29426422776E+02  0.00000000000E+00 0.  1.
</event>
<event>
12    1  0.8331241E-002  0.1961272E+03  0.7818608E-02  0.1153583E+00
         21   -1    0    0  503  502  0.00000000000E+00  0.00000000000E+00  0.12452179455E+03  0.12452179455E+03  0.00000000000E+00 0.  1.
         21   -1    0    0  501  503 -0.00000000000E+00 -0.00000000000E+00 -0.37460425113E+03  0.37460425113E+03  0.00000000000E+00 0.  1.
          6    2    1    2  501    0  0.77112155799E+02  0.44738920626E+02 -0.23193219736E+03  0.30216080234E+03  0.17193240155E+03 0.  0.
         24    2    3    3    0    0 -0.17402844198E+02  0.14180826047E+02 -0.15888613982E+03  0.17877239570E+03  0.78808687499E+02 0.  0.
         -6    2    1    2    0  502 -0.77112155799E+02 -0.44738920626E+02 -0.18150259223E+02  0.19696524335E+03  0.17469407427E+03 0.  0.
        -24    2    5    5    0    0 -0.28171990722E+02  0.23960338346E+02  0.30688446458E+02  0.99384317373E+02  0.86992545191E+02 0.  0.
          5    1    3    3  501    0  0.94514999997E+02  0.30558094580E+02 -0.73046057544E+02  0.12338840663E+03  0.47000000000E+01 0. -1.
        -13    1    4    4    0    0 -0.21805868522E+02 -0.22320952595E+02 -0.12478028633E+03  0.12862286221E+03  0.00000000000E+00 0.  1.
         14    1    4    4    0    0  0.44030243240E+01  0.36501778641E+02 -0.34105853484E+02  0.50149533488E+02  0.00000000000E+00 0. -1.
         -5    1    5    5    0  502 -0.48940165077E+02 -0.68699258973E+02 -0.48838705681E+02  0.97580925973E+02  0.47000000000E+01 0.  1.
         13    1    6    6    0    0  0.31022923277E+02  0.80455467145E+01  0.32084936591E+01  0.32209424431E+02  0.00000000000E+00 0. -1.
        -14    1    6    6    0    0 -0.59194913999E+02  0.15914791632E+02  0.27479952798E+02  0.67174892943E+02  0.00000000000E+00 0.  1.
</event>
<event>
12    1  0.8331241E-002  0.1814878E+03  0.7818608E-02  0.1166508E+00
         21   -1    0    0  501  502  0.00000000000E+00  0.00000000000E+00  0.10809124158E+04  0.10809124158E+04  0.00000000000E+00 0. -1.
         21   -1    0    0  502  503 -0.00000000000E+00 -0.00000000000E+00 -0.19524718837E+03  0.19524718837E+03  0.00000000000E+00 0. -1.
         -6    2    1    2    0  503 -0.14686616744E+02  0.54447234980E+02 -0.14362254816E+03  0.23099399327E+03  0.17190285187E+03 0.  0.
        -24    2    3    3    0    0 -0.14169368030E+02 -0.37525035292E+02 -0.77608519947E+02  0.11768420567E+03  0.78851700252E+02 0.  0.
          6    2    1    2  501    0  0.14686616744E+02 -0.54447234980E+02  0.10292877755E+04  0.10451656108E+04  0.17250400313E+03 0.  0.
         24    2    5    5    0    0 -0.40313509464E+02 -0.25757876850E+02  0.85736225113E+03  0.86233079715E+03  0.79093152587E+02 0.  0.
          5    1    5    5  501    0  0.55000126208E+02 -0.28689358130E+02  0.17192552441E+03  0.18283481369E+03  0.47000000000E+01 0. -1.
        -13    1    6    6    0    0 -0.30311928033E+02  0.16144701578E+01  0.76224794350E+03  0.76285211336E+03  0.00000000000E+00 0.  1.
         14    1    6    6    0    0 -0.10001581431E+02 -0.27372347008E+02  0.95114307637E+02  0.99478683792E+02  0.00000000000E+00 0. -1.
         -5    1    3    3    0  503 -0.51724871400E+00  0.91972270272E+02 -0.66014028212E+02  0.11330978760E+03  0.47000000000E+01 0.  1.
         13    1    4    4    0    0 -0.88685675535E+01  0.20937282741E+02 -0.45280485792E+02  0.50668961827E+02  0.00000000000E+00 0. -1.
        -14    1    4    4    0    0 -0.53008004769E+01 -0.58462318033E+02 -0.32328034154E+02  0.67015243847E+02  0.00000000000E+00 0.  1.
</event>
<event>
12    1  0.8331241E-002  0.1872766E+03  0.7818608E-02  0.1161079E+00
         21   -1    0    0  501  502  0.00000000000E+00  0.00000000000E+00  0.38436937961E+03  0.38436937961E+03  0.00000000000E+00 0.  1.
         21   -1    0    0  502  503 -0.00000000000E+00 -0.00000000000E+00 -0.18275655369E+03  0.18275655369E+03  0.00000000000E+00 0.  1.
         -6    2    1    2    0  503  0.43124819771E+02  0.58087225118E+02 -0.10024834165E+03  0.21188984932E+03  0.17208632263E+03 0.  0.
        -24    2    3    3    0    0  0.71246106972E+02 -0.13159415403E+02 -0.45321189871E+02  0.11751838868E+03  0.80668354731E+02 0.  0.
          6    2    1    2  501    0 -0.43124819771E+02 -0.58087225118E+02  0.30186116757E+03  0.35523608398E+03  0.17273863226E+03 0.  0.
         24    2    5    5    0    0  0.35850276773E+02 -0.28972601385E+02  0.21589418222E+03  0.23483201528E+03  0.80069491754E+02 0.  0.
          5    1    5    5  501    0 -0.78975096544E+02 -0.29114623733E+02  0.85966985347E+02  0.12040406870E+03  0.47000000000E+01 0. -1.
        -11    1    6    6    0    0  0.56455664576E+01 -0.17463485549E+02  0.19604205233E+03  0.19689929413E+03  0.00000000000E+00 0.  1.
         12    1    6    6    0    0  0.30204710316E+02 -0.11509115836E+02  0.19852129886E+02  0.37932721146E+02  0.00000000000E+00 0. -1.
         -5    1    3    3    0  503 -0.28121287201E+02  0.71246640521E+02 -0.54927151778E+02  0.94371460632E+02  0.47000000000E+01 0.  1.
         13    1    4    4    0    0  0.62774314507E+02 -0.29063672926E+02 -0.46448216101E+00  0.69177506383E+02  0.00000000000E+00 0. -1.
        -14    1    4    4    0    0  0.84717924656E+01  0.15904257523E+02 -0.44856707710E+02  0.48340882300E+02  0.00000000000E+00 0.  1.
</event>
<event>
12    1  0.8331241E-002  0.1970009E+03  0.7818608E-02  0.1152801E+00
         21   -1    0    0  503  502  0.00000000000E+00  0.00000000000E+00  0.23887148610E+03  0.23887148610E+03  0.00000000000E+00 0. -1.
         21   -1    0    0  501  503 -0.00000000000E+00 -0.00000000000E+00 -0.18433147817E+03  0.18433147817E+03  0.00000000000E+00 0.  1.
          6    2    1    2  501    0  0.84685156026E+02 -0.42842627680E+02 -0.48600549657E+02  0.20290724688E+03  0.17263334270E+03 0.  0.
         24    2    3    3    0    0  0.59709756918E+02 -0.57841030819E+02 -0.93123290198E+02  0.14949295027E+03  0.82251778613E+02 0.  0.
         -6    2    1    2    0  502 -0.84685156026E+02  0.42842627680E+02  0.10314055758E+03  0.22029571739E+03  0.16995635347E+03 0.  0.
        -24    2    5    5    0    0 -0.55299957002E+01 -0.18628149919E+02  0.92478065191E+01  0.82883437708E+02  0.80040948889E+02 0.  0.
          5    1    3    3  501    0  0.24975399108E+02  0.14998403139E+02  0.44522740541E+02  0.53414296612E+02  0.47000000000E+01 0. -1.
        -11    1    4    4    0    0  0.32613755604E+02  0.16261523768E+02 -0.41373840219E+02  0.55135187170E+02  0.00000000000E+00 0.  1.
         12    1    4    4    0    0  0.27096001315E+02 -0.74102554587E+02 -0.51749449979E+02  0.94357763097E+02  0.00000000000E+00 0. -1.
         -5    1    5    5    0  502 -0.79155160326E+02  0.61470777600E+02  0.93892751065E+02  0.13741227968E+03  0.47000000000E+01 0.  1.
         13    1    6    6    0    0  0.12300772373E+02 -0.47143527660E+02  0.61876926506E+01  0.49113223693E+02  0.00000000000E+00 0. -1.
        -14    1    6    6    0    0 -0.17830768074E+02  0.28515377740E+02  0.30601138685E+01  0.33770214015E+02  0.00000000000E+00 0.  1.
</event>
<event>
12    1  0.8331241E-002  0.2021109E+03  0.7818608E-02  0.1148092E+00
         21   -1    0    0  503  502  0.00000000000E+00  0.00000000000E+00  0.36264499466E+03  0.36264499466E+03  0.00000000000E+00 0.  1.
         21   -1    0    0  501  503 -0.00000000000E+00 -0.00000000000E+00 -0.14460928364E+03  0.14460928364E+03  0.00000000000E+00 0.  1.
          6    2    1    2  501    0  0.10116733046E+03 -0.29987580394E+02 -0.10959746232E+02  0.20182385860E+03  0.17169353551E+03 0.  0.
         24    2    3    3    0    0  0.64594641200E+02  0.17039128796E+02  0.49700095381E+02  0.11667235033E+03  0.81728442228E+02 0.  0.
         -6    2    1    2    0  502 -0.10116733046E+03  0.29987580394E+02  0.22899545725E+03  0.30543041970E+03  0.17237963367E+03 0.  0.
        -24    2    5    5    0    0  0.53332340445E+01  0.45276310432E+02  0.12613933876E+03  0.15650900883E+03  0.80656985990E+02 0.  0.
          5    1    3    3  501    0  0.36572689258E+02 -0.47026709190E+02 -0.60659841613E+02  0.85151508274E+02  0.47000000000E+01 0. -1.
        -11    1    4    4    0    0  0.78591400804E+02  0.32177807908E+02  0.40791410289E+02  0.94212306815E+02  0.00000000000E+00 0.  1.
         12    1    4    4    0    0 -0.13996759604E+02 -0.15138679112E+02  0.89086850919E+01  0.22460043516E+02  0.00000000000E+00 0. -1.
         -5    1    5    5    0  502 -0.10650056450E+03 -0.15288730038E+02  0.10285611849E+03  0.14892141087E+03  0.47000000000E+01 0.  1.
         13    1    6    6    0    0  0.13155558296E+02  0.38398197871E+02  0.13614435885E+03  0.14206609997E+03  0.00000000000E+00 0. -1.
        -14    1    6    6    0    0 -0.78223242519E+01  0.68781125605E+01 -0.10005020092E+02  0.14442908853E+02  0.00000000000E+00 0.  1.
</event>
<event>
12    1  0.8331241E-002  0.2931736E+03  0.7818608E-02  0.1088790E+00
         21   -1    0    0  501  502  0.00000000000E+00  0.00000000000E+00  0.58923408217E+03  0.58923408217E+03  0.00000000000E+00 0.  1.
         21   -1    0    0  502  503 -0.00000000000E+00 -0.00000000000E+00 -0.28812408148E+03  0.28812408148E+03  0.00000000000E+00 0.  1.
         -6    2    1    2    0  503  0.17131626652E+03  0.16321363337E+03 -0.15795955790E+03  0.33301945458E+03  0.17309760801E+03 0.  0.
        -24    2    3    3    0    0  0.19804095117E+03  0.13794367174E+03 -0.13201949212E+03  0.28776730829E+03  0.84452368262E+02 0.  0.
          6    2    1    2  501    0 -0.17131626652E+03 -0.16321363337E+03  0.45906955860E+03  0.54433870907E+03  0.17196458144E+03 0.  0.
         24    2    5    5    0    0 -0.11602395969E+03 -0.14071031528E+03  0.21523181562E+03  0.29325590715E+03  0.80083335192E+02 0.  0.
          5    1    5    5  501    0 -0.55292306830E+02 -0.22503318091E+02  0.24383774298E+03  0.25108280192E+03  0.47000000000E+01 0. -1.
        -11    1    6    6    0    0 -0.82972846066E+02 -0.58093417213E+02  0.15725528648E+03  0.18705230133E+03  0.00000000000E+00 0.  1.
         12    1    6    6    0    0 -0.33051113625E+02 -0.82616898066E+02  0.57976529144E+02  0.10620360582E+03  0.00000000000E+00 0. -1.
         -5    1    3    3    0  503 -0.26724684653E+02  0.25269961633E+02 -0.25940065788E+02  0.45252146290E+02  0.47000000000E+01 0.  1.
         11    1    4    4    0    0  0.56433360657E+01  0.26688235699E+02  0.34343196838E+01  0.27493703249E+02  0.00000000000E+00 0. -1.
        -12    1    4    4    0    0  0.19239761511E+03  0.11125543604E+03 -0.13545381180E+03  0.26027360504E+03  0.00000000000E+00 0.  1.
</event>
<event>
12    1  0.8331241E-002  0.1893934E+03  0.7818608E-02  0.1159056E+00
         21   -1    0    0  503  502  0.00000000000E+00  0.00000000000E+00  0.18776985228E+03  0.18776985228E+03  0.00000000000E+00 0. -1.
         21   -1    0    0  501  503 -0.00000000000E+00 -0.00000000000E+00 -0.43440876881E+03  0.43440876881E+03  0.00000000000E+00 0.  1.
          6    2    1    2  501    0  0.21239797573E+02  0.76065314707E+02 -0.35629732776E+03  0.40350666933E+03  0.17214175939E+03 0.  0.
         24    2    3    3    0    0 -0.97730331297E+01  0.65417815693E+02 -0.35557963294E+03  0.37037405716E+03  0.79781351643E+02 0.  0.
         -6    2    1    2    0  502 -0.21239797573E+02 -0.76065314707E+02  0.10965841123E+03  0.21867195175E+03  0.17191682357E+03 0.  0.
        -24    2    5    5    0    0  0.26785836104E+01 -0.62938968302E+02 -0.21721113731E+01  0.10346541672E+03  0.82048070349E+02 0.  0.
          5    1    3    3  501    0  0.31012830703E+02  0.10647499014E+02 -0.71769482051E+00  0.33132612171E+02  0.47000000000E+01 0. -1.
        -13    1    4    4    0    0 -0.38112374249E+02  0.44287485369E+02 -0.13677715632E+03  0.14873441069E+03  0.00000000000E+00 0.  1.
         14    1    4    4    0    0  0.28339341120E+02  0.21130330323E+02 -0.21880247661E+03  0.22163964647E+03  0.00000000000E+00 0. -1.
         -5    1    5    5    0  502 -0.23918381183E+02 -0.13126346404E+02  0.11183052260E+03  0.11520653503E+03  0.47000000000E+01 0.  1.
         11    1    6    6    0    0  0.76173015952E+01 -0.53522290256E+02  0.35265535647E+02  0.64547012652E+02  0.00000000000E+00 0. -1.
        -12    1    6    6    0    0 -0.49387179848E+01 -0.94166780467E+01 -0.37437647020E+02  0.38918404068E+02  0.00000000000E+00 0.  1.
</event>
<event>
12    1  0.8331241E-002  0.1912961E+03  0.7818608E-02  0.1159160E+00
         21   -1    0    0  503  502  0.00000000000E+00  0.00000000000E+00  0.20632071933E+03  0.20632071933E+03  0.00000000000E+00 0.  1.
         21   -1    0    0  501  503 -0.00000000000E+00 -0.00000000000E+00 -0.17698280946E+03  0.17698280946E+03  0.00000000000E+00 0.  1.
          6    2    1    2  501    0 -0.38085614575E+02 -0.72347506147E+02 -0.23972978252E+02  0.18471786197E+03  0.16389420112E+03 0.  0.
         24    2    3    3    0    0 -0.75834052622E+02 -0.25754820506E+02 -0.44204594687E+02  0.12125739211E+03  0.79593935915E+02 0.  0.
         -6    2    1    2    0  502  0.38085614575E+02  0.72347506147E+02  0.53310888127E+02  0.19858566682E+03  0.17294374979E+03 0.  0.
        -24    2    5    5    0    0  0.30535234476E+02  0.95165731752E+02 -0.13234047486E+02  0.12767728851E+03  0.78341770106E+02 0.  0.
          5    1    3    3  501    0  0.37748438048E+02 -0.46592685640E+02  0.20231616435E+02  0.63460469851E+02  0.47000000000E+01 0. -1.
        -13    1    4    4    0    0 -0.45674594957E+02  0.68858616119E+01  0.13778798632E+02  0.48202064337E+02  0.00000000000E+00 0.  1.
         14    1    4    4    0    0 -0.30159457666E+02 -0.32640682118E+02 -0.57983393319E+02  0.73055327777E+02  0.00000000000E+00 0. -1.
         -5    1    5    5    0  502  0.75503800989E+01 -0.22818225605E+02  0.66544935613E+02  0.70908378314E+02  0.47000000000E+01 0.  1.
         13    1    6    6    0    0 -0.12065876116E+02  0.17151968231E+02 -0.30612691072E+02  0.37106768053E+02  0.00000000000E+00 0. -1.
        -14    1    6    6    0    0  0.42601110592E+02  0.78013763521E+02  0.17378643587E+02  0.90570520454E+02  0.00000000000E+00 0.  1.
</event>
<event>
12    1  0.8331241E-002  0.2773383E+03  0.7818608E-02  0.1097171E+00
         21   -1    0    0  503  502  0.00000000000E+00  0.00000000000E+00  0.17497982946E+03  0.17497982946E+03  0.00000000000E+00 0. -1.
         21   -1    0    0  501  503 -0.00000000000E+00 -0.00000000000E+00 -0.48324322124E+03  0.48324322124E+03  0.00000000000E+00 0. -1.
          6    2    1    2  501    0 -0.20920164077E+03  0.59422163200E+02 -0.25328700809E+03  0.37548831673E+03  0.17187451106E+03 0.  0.
         24    2    3    3    0    0 -0.86333914740E+02  0.33048781832E+02 -0.40877145998E+02  0.12864408880E+03  0.79577595494E+02 0.  0.
         -6    2    1    2    0  502  0.20920164077E+03 -0.59422163200E+02 -0.54976383686E+02  0.28273473397E+03  0.17210522087E+03 0.  0.
        -24    2    5    5    0    0  0.13226383692E+03  0.31881603405E+02 -0.28270213718E+02  0.16029653335E+03  0.79910039593E+02 0.  0.
          5    1    3    3  501    0 -0.12286772603E+03  0.26373381368E+02 -0.21240986209E+03  0.24684422792E+03  0.47000000000E+01 0. -1.
        -11    1    4    4    0    0 -0.69166654974E-01  0.32689146747E+02 -0.24467068984E+02  0.40831636799E+02  0.00000000000E+00 0.  1.
         12    1    4    4    0    0 -0.86264748085E+02  0.35963508476E+00 -0.16410077014E+02  0.87812452005E+02  0.00000000000E+00 0. -1.
         -5    1    5    5    0  502  0.76937803850E+02 -0.91303766605E+02 -0.26706169968E+02  0.12243820062E+03  0.47000000000E+01 0.  1.
         11    1    6    6    0    0  0.14155148890E+03  0.37652496326E+02 -0.23418399207E+02  0.14833393378E+03  0.00000000000E+00 0. -1.
        -12    1    6    6    0    0 -0.92876519796E+01 -0.57708929214E+01 -0.48518145112E+01  0.11962599569E+02  0.00000000000E+00 0.  1.
</event>
<event>
12    1  0.8331241E-002  0.2246491E+03  0.7818608E-02  0.1130519E+00
         21   -1    0    0  503  502  0.00000000000E+00  0.00000000000E+00  0.89465361680E+03  0.89465361680E+03  0.00000000000E+00 0.  1.
         21   -1    0    0  501  503 -0.00000000000E+00 -0.00000000000E+00 -0.69527418040E+02  0.69527418040E+02  0.00000000000E+00 0.  1.
          6    2    1    2  501    0  0.13823546262E+03  0.38244277023E+02  0.20277920531E+03  0.30263282153E+03  0.17290329873E+03 0.  0.
         24    2    3    3    0    0  0.30389545465E+02  0.55659866582E+02  0.41378298471E+02  0.10768055216E+03  0.76559731629E+02 0.  0.
         -6    2    1    2    0  502 -0.13823546262E+03 -0.38244277023E+02  0.62234699345E+03  0.66154821330E+03  0.17250678369E+03 0.  0.
        -24    2    5    5    0    0 -0.12366741016E+03 -0.66373790306E+02  0.60162054104E+03  0.62340147688E+03  0.83564451800E+02 0.  0.
          5    1    3    3  501    0  0.10784591716E+03 -0.17415589558E+02  0.16140090684E+03  0.19495226937E+03  0.47000000000E+01 0. -1.
        -11    1    4    4    0    0  0.49502661855E+02  0.60332270409E+02  0.40643601038E+02  0.87990901171E+02  0.00000000000E+00 0.  1.
         12    1    4    4    0    0 -0.19113116390E+02 -0.46724038277E+01  0.73469743292E+00  0.19689650987E+02  0.00000000000E+00 0. -1.
         -5    1    5    5    0  502 -0.14568052459E+02  0.28129513283E+02  0.20726452409E+02  0.38146736419E+02  0.47000000000E+01 0.  1.
         13    1    6    6    0    0 -0.10738035551E+02  0.10008677172E+02  0.14403392924E+02  0.20565426180E+02  0.00000000000E+00 0. -1.
        -14    1    6    6    0    0 -0.11292937461E+03 -0.76382467478E+02  0.58721714812E+03  0.60283605070E+03  0.00000000000E+00 0.  1.
</event>
<event>
12    1  0.8331241E-002  0.1802779E+03  0.7818608E-02  0.1168364E+00
         21   -1    0    0  503  502  0.00000000000E+00  0.00000000000E+00  0.51860819614E+03  0.51860819614E+03  0.00000000000E+00 0.  1.
         21   -1    0    0  501  503 -0.00000000000E+00 -0.00000000000E+00 -0.85621034066E+02  0.85621034066E+02  0.00000000000E+00 0.  1.
          6    2    1    2  501    0  0.30694920589E+02 -0.28664567619E+02  0.57597954571E+02  0.18925546017E+03  0.17531762389E+03 0.  0.
         24    2    3    3    0    0  0.12100395459E+01  0.38556067862E+02  0.78647514093E+02  0.11274960418E+03  0.70985964853E+02 0.  0.
         -6    2    1    2    0  502 -0.30694920589E+02  0.28664567619E+02  0.37538920751E+03  0.41497377004E+03  0.17182065394E+03 0.  0.
        -24    2    5    5    0    0 -0.70784514264E+01  0.21733559776E+02  0.38018488265E+03  0.38946171435E+03  0.81347586623E+02 0.  0.
          5    1    3    3  501    0  0.29484881043E+02 -0.67220635481E+02 -0.21049559522E+02  0.76505855990E+02  0.47000000000E+01 0. -1.
        -13    1    4    4    0    0 -0.15136363230E+01  0.14499246001E+00  0.73939741085E+02  0.73955374582E+02  0.00000000000E+00 0.  1.
         14    1    4    4    0    0  0.27236758689E+01  0.38411075402E+02  0.47077730074E+01  0.38794229603E+02  0.00000000000E+00 0. -1.
         -5    1    5    5    0  502 -0.23616469163E+02  0.69310078435E+01 -0.47956751452E+01  0.25512055690E+02  0.47000000000E+01 0.  1.
         11    1    6    6    0    0  0.10990101979E+02  0.45228267110E+02  0.14185076121E+03  0.14929171760E+03  0.00000000000E+00 0. -1.
        -12    1    6    6    0    0 -0.18068553405E+02 -0.23494707335E+02  0.23833412144E+03  0.24016999675E+03  0.00000000000E+00 0.  1.
</event>
<event>
12    1  0.8331241E-002  0.1800361E+03  0.7818608E-02  0.1167835E+00
         21   -1    0    0  503  502  0.00000000000E+00  0.00000000000E+00  0.60579703296E+02  0.60579703296E+02  0.00000000000E+00 0.  1.
         21   -1    0    0  501  503 -0.00000000000E+00 -0.00000000000E+00 -0.54253262742E+03  0.54253262742E+03  0.00000000000E+00 0.  1.
          6    2    1    2  501    0 -0.49944147596E+02 -0.17773333058E+02 -0.27846619750E+03  0.33159679719E+03  0.17205436207E+03 0.  0.
         24    2    3    3    0    0 -0.60516478038E+02 -0.51180155187E+02 -0.10121643802E+03  0.15085566415E+03  0.78936757476E+02 0.  0.
         -6    2    1    2    0  502  0.49944147596E+02  0.17773333058E+02 -0.20348672662E+03  0.27151553353E+03  0.17176590986E+03 0.  0.
        -24    2    5    5    0    0 -0.60419704338E+01  0.22413780911E+02 -0.33043545588E+02  0.91991309176E+02  0.82653748115E+02 0.  0.
          5    1    3    3  501    0  0.10572330442E+02  0.33406822130E+02 -0.17724975949E+03  0.18074113304E+03  0.47000000000E+01 0. -1.
        -11    1    4    4    0    0 -0.30876656245E+01 -0.19076062830E-01 -0.66328606794E+02  0.66400437666E+02  0.00000000000E+00 0.  1.
         12    1    4    4    0    0 -0.57428812414E+02 -0.51161079124E+02 -0.34887831223E+02  0.84455226480E+02  0.00000000000E+00 0. -1.
         -5    1    5    5    0  502  0.55986118030E+02 -0.46404478539E+01 -0.17044318103E+03  0.17952422435E+03  0.47000000000E+01 0.  1.
         13    1    6    6    0    0 -0.14833571784E+02  0.52285513102E+02 -0.25044123304E+02  0.59841606297E+02  0.00000000000E+00 0. -1.
        -14    1    6    6    0    0  0.87916013501E+01 -0.29871732190E+02 -0.79994222832E+01  0.32149702879E+02  0.00000000000E+00 0.  1.
</event>
<event>
12    1  0.8331241E-002  0.2039484E+03  0.7818608E-02  0.1146529E+00
         21   -1    0    0  501  502  0.00000000000E+00  0.00000000000E+00  0.39192500798E+02  0.39192500798E+02  0.00000000000E+00 0.  1.
         21   -1    0    0  502  503 -0.00000000000E+00 -0.00000000000E+00 -0.17976680738E+04  0.17976680738E+04  0.00000000000E+00 0.  1.
         -6    2    1    2    0  503 -0.10550514362E+03 -0.29428314662E+02 -0.29013541268E+03  0.35442414318E+03  0.17158250070E+03 0.  0.
        -24    2    3    3    0    0 -0.57855695452E+02  0.49167770515E+02 -0.19300517750E+03  0.22061761456E+03  0.75208923404E+02 0.  0.
          6    2    1    2  501    0  0.10550514362E+03  0.29428314662E+02 -0.14683401603E+04  0.14824364314E+04  0.17203948888E+03 0.  0.
         24    2    5    5    0    0  0.44685220376E+02  0.81903096858E+02 -0.87139073848E+03  0.88008821978E+03  0.80799562360E+02 0.  0.
          5    1    5    5  501    0  0.60819923246E+02 -0.52474782196E+02 -0.59694942179E+03  0.60234821159E+03  0.47000000000E+01 0. -1.
        -13    1    6    6    0    0  0.41086878184E+02  0.62258828530E+02 -0.83701452519E+03  0.84033184438E+03  0.00000000000E+00 0.  1.
         14    1    6    6    0    0  0.35983421924E+01  0.19644268328E+02 -0.34376213291E+02  0.39756375399E+02  0.00000000000E+00 0. -1.
         -5    1    3    3    0  503 -0.47649448169E+02 -0.78596085177E+02 -0.97130235181E+02  0.13380652862E+03  0.47000000000E+01 0.  1.
         11    1    4    4    0    0  0.50345193233E+01  0.43417448235E+02 -0.77555605749E+02  0.89024115717E+02  0.00000000000E+00 0. -1.
        -12    1    4    4    0    0 -0.62890214776E+02  0.57503222802E+01 -0.11544957175E+03  0.13159349884E+03  0.00000000000E+00 0.  1.
</event>
<event>
12    1  0.8331241E-002  0.1861592E+03  0.7818608E-02  0.1162564E+00
         21   -1    0    0  501  502  0.00000000000E+00  0.00000000000E+00  0.40525330835E+03  0.40525330835E+03  0.00000000000E+00 0.  1.
         21   -1    0    0  502  503 -0.00000000000E+00 -0.00000000000E+00 -0.12627714431E+03  0.12627714431E+03  0.00000000000E+00 0.  1.
         -6    2    1    2    0  503 -0.66046350093E+02  0.24778210256E+02 -0.14284334674E+02  0.18417330827E+03  0.16952783016E+03 0.  0.
        -24    2    3    3    0    0  0.13592585391E+02  0.19887660499E+02 -0.48567117516E+02  0.97203907211E+02  0.80681827293E+02 0.  0.
          6    2    1    2  501    0  0.66046350093E+02 -0.24778210256E+02  0.29326049872E+03  0.34735714439E+03  0.17227648007E+03 0.  0.
         24    2    5    5    0    0  0.10288360842E+03 -0.41769806744E+02  0.26332046919E+03  0.29671927989E+03  0.79843020540E+02 0.  0.
          5    1    5    5  501    0 -0.36837258329E+02  0.16991596488E+02  0.29940029528E+02  0.50637864495E+02  0.47000000000E+01 0. -1.
        -11    1    6    6    0    0  0.10701843924E+03 -0.18244543071E+02  0.23964281653E+03  0.26308646717E+03  0.00000000000E+00 0.  1.
         12    1    6    6    0    0 -0.41348308157E+01 -0.23525263673E+02  0.23677652653E+02  0.33632812727E+02  0.00000000000E+00 0. -1.
         -5    1    3    3    0  503 -0.79638935485E+02  0.48905497570E+01  0.34282782842E+02  0.86969401064E+02  0.47000000000E+01 0.  1.
         13    1    4    4    0    0  0.45406182214E+02  0.24321419595E+02 -0.35332942917E+02  0.62463346768E+02  0.00000000000E+00 0. -1.
        -14    1    4    4    0    0 -0.31813596823E+02 -0.44337590954E+01 -0.13234174599E+02  0.34740560442E+02  0.00000000000E+00 0.  1.
</event>
<event>
12    1  0.8331241E-002  0.1845617E+03  0.7818608E-02  0.1163624E+00
         21   -1    0    0  503  502  0.00000000000E+00  0.00000000000E+00  0.27105504842E+03  0.27105504842E+03  0.00000000000E+00 0.  1.
         21   -1    0    0  501  503 -0.00000000000E+00 -0.00000000000E+00 -0.13841291649E+03  0.13841291649E+03  0.00000000000E+00 0. -1.
          6    2    1    2  501    0 -0.56963076618E+02  0.32335714404E+02  0.29315880743E+01  0.18388465142E+03  0.17179808001E+03 0.  0.
         24    2    3    3    0    0  0.35521616344E+02  0.89584823705E+01  0.51356050819E+01  0.88350044599E+02  0.80232887939E+02 0.  0.
         -6    2    1    2    0  502  0.56963076618E+02 -0.32335714404E+02  0.12971054386E+03  0.22558331350E+03  0.17254743005E+03 0.  0.
        -24    2    5    5    0    0  0.58932454641E+02 -0.10170558189E+02  0.67762441475E+01  0.10056289658E+03  0.80563665635E+02 0.  0.
          5    1    3    3  501    0 -0.92484692962E+02  0.23377232034E+02 -0.22040170076E+01  0.95534606823E+02  0.47000000000E+01 0. -1.
        -13    1    4    4    0    0 -0.18830123087E+02 -0.18366266772E+02  0.78664855261E+01  0.27454961030E+02  0.00000000000E+00 0.  1.
         14    1    4    4    0    0  0.54351739431E+02  0.27324749143E+02 -0.27308804442E+01  0.60895083569E+02  0.00000000000E+00 0. -1.
         -5    1    5    5    0  502 -0.19693780226E+01 -0.22165156215E+02  0.12293429971E+03  0.12502041691E+03  0.47000000000E+01 0.  1.
         11    1    6    6    0    0  0.11576870782E+02 -0.41476285543E+02  0.79174975488E+01  0.43783478242E+02  0.00000000000E+00 0. -1.
        -12    1    6    6    0    0  0.47355583858E+02  0.31305727354E+02 -0.11412534013E+01  0.56779418340E+02  0.00000000000E+00 0.  1.
</event>
<event>
12    1  0.8331241E-002  0.2479928E+03  0.7818608E-02  0.1114793E+00
         21   -1    0    0  503  502  0.00000000000E+00  0.00000000000E+00  0.38762721926E+02  0.38762721926E+02  0.00000000000E+00 0.  1.
         21   -1    0    0  501  503 -0.00000000000E+00 -0.00000000000E+00 -0.15826317308E+04  0.15826317308E+04  0.00000000000E+00 0. -1.
          6    2    1    2  501    0  0.37371131820E+02  0.17212510812E+03 -0.72635065468E+03  0.76708965303E+03  0.17267775740E+03 0.  0.
         24    2    3    3    0    0  0.79458093745E+02  0.14239941582E+03 -0.44339252271E+03  0.47943999878E+03  0.81698230970E+02 0.  0.
         -6    2    1    2    0  502 -0.37371131820E+02 -0.17212510812E+03 -0.81751835424E+03  0.85430479974E+03  0.17457599204E+03 0.  0.
        -24    2    5    5    0    0 -0.49880448883E+02 -0.18859565079E+03 -0.60291989060E+03  0.63866075881E+03  0.79490827720E+02 0.  0.
          5    1    3    3  501    0 -0.42086961926E+02  0.29725692295E+02 -0.28295813197E+03  0.28764965425E+03  0.47000000000E+01 0. -1.
        -11    1    4    4    0    0  0.27065328713E+02  0.88829441035E+02 -0.14823429329E+03  0.17491885925E+03  0.00000000000E+00 0.  1.
         12    1    4    4    0    0  0.52392765032E+02  0.53569974789E+02 -0.29515822942E+03  0.30452113953E+03  0.00000000000E+00 0. -1.
         -5    1    5    5    0  502  0.12509317064E+02  0.16470542668E+02 -0.21459846365E+03  0.21564404093E+03  0.47000000000E+01 0.  1.
         13    1    6    6    0    0 -0.39859306122E+02 -0.63899032508E+02 -0.32925792419E+03  0.33776120452E+03  0.00000000000E+00 0. -1.
        -14    1    6    6    0    0 -0.10021142762E+02 -0.12469661828E+03 -0.27366196641E+03  0.30089955429E+03  0.00000000000E+00 0.  1.
</event>
<event>
12    1  0.8331241E-002  0.2077781E+03  0.7818608E-02  0.1143711E+00
         21   -1    0    0  501  502  0.00000000000E+00  0.00000000000E+00  0.20212459971E+03  0.20212459971E+03  0.00000000000E+00 0. -1.
         21   -1    0    0  502  503 -0.00000000000E+00 -0.00000000000E+00 -0.71651592121E+03  0.71651592121E+03  0.00000000000E+00 0. -1.
         -6    2    1    2    0  503  0.47720046609E+02 -0.10313977570E+03 -0.64239807945E+03  0.67459648989E+03  0.17172686313E+03 0.  0.
        -24    2    3    3    0    0  0.83800355202E+02 -0.23916850765E+02 -0.37683123116E+03  0.39508638021E+03  0.80603695766E+02 0.  0.
          6    2    1    2  501    0 -0.47720046609E+02  0.10313977570E+03  0.12800675795E+03  0.24404403102E+03  0.17394465446E+03 0.  0.
         24    2    5    5    0    0 -0.59932566982E+02  0.11248998032E+03  0.42075246428E+02  0.15662042635E+03  0.80707641095E+02 0.  0.
          5    1    5    5  501    0  0.12212520374E+02 -0.93502046249E+01  0.85931511524E+02  0.87423604669E+02  0.47000000000E+01 0. -1.
        -11    1    6    6    0    0 -0.73002676161E+02  0.58174601757E+02  0.37395599741E+02  0.10055896726E+03  0.00000000000E+00 0.  1.
         12    1    6    6    0    0  0.13070109179E+02  0.54315378565E+02  0.46796466877E+01  0.56061459094E+02  0.00000000000E+00 0. -1.
         -5    1    3    3    0  503 -0.36080308594E+02 -0.79222924931E+02 -0.26556684829E+03  0.27951010968E+03  0.47000000000E+01 0.  1.
         11    1    4    4    0    0  0.41935977225E+02 -0.34303584713E+02 -0.31542868633E+03  0.32004783747E+03  0.00000000000E+00 0. -1.
        -12    1    4    4    0    0  0.41864377978E+02  0.10386733948E+02 -0.61402544830E+02  0.75038542744E+02  0.00000000000E+00 0.  1.
</event>
<event>
12    1  0.8331241E-002  0.1931877E+03  0.7818608E-02  0.1156697E+00
         21   -1    0    0  501  502  0.00000000000E+00  0.00000000000E+00  0.36919299961E+03  0.36919299961E+03  0.00000000000E+00 0.  1.
         21   -1    0    0  502  503 -0.00000000000E+00 -0.00000000000E+00 -0.10317020028E+03  0.10317020028E+03  0.00000000000E+00 0. -1.
         -6    2    1    2    0  503  0.27769431847E+02 -0.71477530118E+02  0.81583790062E+02  0.20526913903E+03  0.17204454650E+03 0.  0.
        -24    2    3    3    0    0  0.74794928500E+02 -0.13152672129E+02  0.55301894980E+02  0.12573289318E+03  0.83565463708E+02 0.  0.
          6    2    1    2  501    0 -0.27769431847E+02  0.71477530118E+02  0.18443900927E+03  0.26709406085E+03  0.17731697760E+03 0.  0.
         24    2    5    5    0    0 -0.33724434366E+02  0.13549947372E+02  0.16701726964E+02  0.89473812085E+02  0.80035472251E+02 0.  0.
          5    1    5    5  501    0  0.59550025191E+01  0.57927582746E+02  0.16773728230E+03  0.17762024877E+03  0.47000000000E+01 0. -1.
        -13    1    6    6    0    0 -0.21547259235E+02  0.97995102379E+01  0.49183000909E+02  0.54582802785E+02  0.00000000000E+00 0.  1.
         14    1    6    6    0    0 -0.12177175131E+02  0.37504371343E+01 -0.32481273945E+02  0.34891009300E+02  0.00000000000E+00 0. -1.
         -5    1    3    3    0  503 -0.47025496653E+02 -0.58324857989E+02  0.26281895082E+02  0.79536245851E+02  0.47000000000E+01 0.  1.
         11    1    4    4    0    0  0.61541767964E+02  0.11671415988E+02 -0.11573138683E+01  0.62649425621E+02  0.00000000000E+00 0. -1.
        -12    1    4    4    0    0  0.13253160537E+02 -0.24824088117E+02  0.56459208849E+02  0.63083467556E+02  0.00000000000E+00 0.  1.
</event>
<event>
12    1  0.8331241E-002  0.1754154E+03  0.7818608E-02  0.1172359E+00
         21   -1    0    0  501  502  0.00000000000E+00  0.00000000000E+00  0.37922085170E+03  0.37922085170E+03  0.00000000000E+00 0.  1.
         21   -1    0    0  502  503 -0.00000000000E+00 -0.00000000000E+00 -0.84787541882E+02  0.84787541882E+02  0.00000000000E+00 0. -1.
         -6    2    1    2    0  503 -0.35684157697E+02 -0.15784619231E+02  0.98647607088E+02  0.20125084961E+03  0.17102058581E+03 0.  0.
        -24    2    3    3    0    0  0.20005534457E+02 -0.16390661530E+02 -0.25818237297E+01  0.85616958544E+02  0.81576483022E+02 0.  0.
          6    2    1    2  501    0  0.35684157697E+02  0.15784619231E+02  0.19578570273E+03  0.26275754397E+03  0.17084195095E+03 0.  0.
         24    2    5    5    0    0 -0.39235024973E+02  0.31769301890E+02  0.13604701715E+03  0.16549915324E+03  0.79577026348E+02 0.  0.
          5    1    5    5  501    0  0.74919182671E+02 -0.15984682659E+02  0.59738685583E+02  0.97258390727E+02  0.47000000000E+01 0. -1.
        -13    1    6    6    0    0  0.15235046812E+01 -0.24202409329E+02  0.44965558625E+02  0.51087955002E+02  0.00000000000E+00 0.  1.
         14    1    6    6    0    0 -0.40758529654E+02  0.55971711219E+02  0.91081458524E+02  0.11441119824E+03  0.00000000000E+00 0. -1.
         -5    1    3    3    0  503 -0.55689692155E+02  0.60604229972E+00  0.10122943082E+03  0.11563389107E+03  0.47000000000E+01 0.  1.
         11    1    4    4    0    0  0.35728373521E+02  0.20875585189E+02  0.11229484326E+02  0.42876660897E+02  0.00000000000E+00 0. -1.
        -12    1    4    4    0    0 -0.15722839064E+02 -0.37266246720E+02 -0.13811308056E+02  0.42740297647E+02  0.00000000000E+00 0.  1.
</event>
<event>
12    1  0.8331241E-002  0.1739703E+03  0.7818608E-02  0.1173940E+00
         21   -1    0    0  501  502  0.00000000000E+00  0.00000000000E+00  0.11432372380E+03  0.11432372380E+03  0.00000000000E+00 0. -1.
         21   -1    0    0  502  503 -0.00000000000E+00 -0.00000000000E+00 -0.32490208173E+03  0.32490208173E+03  0.00000000000E+00 0. -1.
         -6    2    1    2    0  503  0.24721018018E+02 -0.72870841278E+01 -0.20042804900E+03  0.26495966820E+03  0.17137092117E+03 0.  0.
        -24    2    3    3    0    0  0.78944029943E+02 -0.21024202406E+02 -0.15837903986E+03  0.19482371016E+03  0.78728526118E+02 0.  0.
          6    2    1    2  501    0 -0.24721018018E+02  0.72870841278E+01 -0.10150308933E+02  0.17426613732E+03  0.17205065393E+03 0.  0.
         24    2    5    5    0    0  0.25964150096E+02 -0.20879972744E+02 -0.54126101102E+02  0.10133925849E+03  0.78929716448E+02 0.  0.
          5    1    5    5  501    0 -0.50685168114E+02  0.28167056872E+02  0.43975792169E+02  0.72926878834E+02  0.47000000000E+01 0. -1.
        -13    1    6    6    0    0 -0.46778440266E+01  0.26525995811E+02 -0.28918564981E+02  0.39519540471E+02  0.00000000000E+00 0.  1.
         14    1    6    6    0    0  0.30641994123E+02 -0.47405968555E+02 -0.25207536121E+02  0.61819718018E+02  0.00000000000E+00 0. -1.
         -5    1    3    3    0  503 -0.54223011925E+02  0.13737118278E+02 -0.42049009141E+02  0.70135958043E+02  0.47000000000E+01 0.  1.
         11    1    4    4    0    0  0.72732524576E+02  0.15452487611E+02 -0.87169410383E+02  0.11457445444E+03  0.00000000000E+00 0. -1.
        -12    1    4    4    0    0  0.62115053674E+01 -0.36476690016E+02 -0.71209629475E+02  0.80249255719E+02  0.00000000000E+00 0.  1.
</event>
<event>
12    1  0.8331241E-002  0.1836265E+03  0.7818608E-02  0.1166805E+00
         21   -1    0    0  501  502  0.00000000000E+00  0.00000000000E+00  0.98010422372E+02  0.98010422372E+02  0.00000000000E+00 0.  1.
         21   -1    0    0  502  503 -0.00000000000E+00 -0.00000000000E+00 -0.11364031046E+04  0.11364031046E+04  0.00000000000E+00 0.  1.
         -6    2    1    2    0  503 -0.49711017640E+02 -0.14900194799E+02 -0.10448023699E+04  0.10608160465E+04  0.17614054401E+03 0.  0.
        -24    2    3    3    0    0  0.20830227040E+02  0.28866515198E+02 -0.31606414210E+03  0.32734956002E+03  0.77421046659E+02 0.  0.
          6    2    1    2  501    0  0.49711017640E+02  0.14900194799E+02  0.64096876154E+01  0.17359748055E+03  0.16553489081E+03 0.  0.
         24    2    5    5    0    0 -0.26713666819E+01  0.62454221948E+01  0.57276887291E+02  0.99919931192E+02  0.81591723436E+02 0.  0.
          5    1    5    5  501    0  0.52382384322E+02  0.86547726040E+01 -0.50867199676E+02  0.73677549355E+02  0.47000000000E+01 0. -1.
        -11    1    6    6    0    0  0.17048166869E+02  0.39166226811E+02  0.37026731344E+02  0.56529745712E+02  0.00000000000E+00 0.  1.
         12    1    6    6    0    0 -0.19719533551E+02 -0.32920804617E+02  0.20250155947E+02  0.43390185480E+02  0.00000000000E+00 0. -1.
         -5    1    3    3    0  503 -0.70541244680E+02 -0.43766709997E+02 -0.72873822779E+03  0.73346648645E+03  0.47000000000E+01 0.  1.
         11    1    4    4    0    0  0.45455313143E+02  0.22870497995E+01 -0.22047467352E+03  0.22512329456E+03  0.00000000000E+00 0. -1.
        -12    1    4    4    0    0 -0.24625086104E+02  0.26579465399E+02 -0.95589468574E+02  0.10222626545E+03  0.00000000000E+00 0.  1.
</event>
<event>
12    1  0.8331241E-002  0.1760195E+03  0.7818608E-02  0.1172057E+00
         21   -1    0    0  503  502  0.00000000000E+00  0.00000000000E+00  0.48669143556E+02  0.48669143556E+02  0.00000000000E+00 0. -1.
         21   -1    0    0  501  503 -0.00000000000E+00 -0.00000000000E+00 -0.67713468855E+03  0.67713468855E+03  0.00000000000E+00 0. -1.
          6    2    1    2  501    0 -0.25918368078E+02 -0.25890006405E+02 -0.40716396581E+03  0.44303671300E+03  0.17075415011E+03 0.  0.
         24    2    3    3    0    0 -0.75338696639E+02 -0.29134681831E+02 -0.34571259507E+03  0.36397181713E+03  0.80209328489E+02 0.  0.
         -6    2    1    2    0  502  0.25918368078E+02  0.25890006405E+02 -0.22130157918E+03  0.28276711910E+03  0.17216503844E+03 0.  0.
        -24    2    5    5    0    0 -0.11610092111E+02 -0.26942282135E+02 -0.19478624737E+03  0.21259027921E+03  0.79951634404E+02 0.  0.
          5    1    3    3  501    0  0.49420328562E+02  0.32446754258E+01 -0.61451370738E+02  0.79064895872E+02  0.47000000000E+01 0. -1.
        -11    1    4    4    0    0 -0.78677727508E+02  0.55994742824E+01 -0.23400223793E+03  0.24693842607E+03  0.00000000000E+00 0.  1.
         12    1    4    4    0    0  0.33390308688E+01 -0.34734156114E+02 -0.11171035715E+03  0.11703339106E+03  0.00000000000E+00 0. -1.
         -5    1    5    5    0  502  0.37528460188E+02  0.52832288540E+02 -0.26515331815E+02  0.70176839896E+02  0.47000000000E+01 0.  1.
         11    1    6    6    0    0 -0.42378585557E+02 -0.65789764462E+01 -0.66716489110E+02  0.79311521005E+02  0.00000000000E+00 0. -1.
        -12    1    6    6    0    0  0.30768493447E+02 -0.20363305688E+02 -0.12806975826E+03  0.13327875820E+03  0.00000000000E+00 0.  1.
</event>
<event>
12    1  0.8331241E-002  0.1868156E+03  0.7818608E-02  0.1161818E+00
         21   -1    0    0  501  502  0.00000000000E+00  0.00000000000E+00  0.92386057783E+03  0.92386057783E+03  0.00000000000E+00 0.  1.
         21   -1    0    0  502  503 -0.00000000000E+00 -0.00000000000E+00 -0.26893500981E+03  0.26893500981E+03  0.00000000000E+00 0.  1.
         -6    2    1    2    0  503  0.41125995705E+02 -0.55023608130E+02 -0.22617267231E+03  0.29211019275E+03  0.17162558677E+03 0.  0.
        -24    2    3    3    0    0  0.79470910973E+02 -0.65930452718E+02 -0.11109442156E+03  0.17023162375E+03  0.77294145553E+02 0.  0.
          6    2    1    2  501    0 -0.41125995705E+02  0.55023608130E+02  0.88109824033E+03  0.90068539489E+03  0.17372716102E+03 0.  0.
         24    2    5    5    0    0 -0.13766979982E+00  0.96342377909E+02  0.51548902550E+03  0.53044294518E+03  0.79742773629E+02 0.  0.
          5    1    5    5  501    0 -0.40988325905E+02 -0.41318769780E+02  0.36560921483E+03  0.37024244970E+03  0.47000000000E+01 0. -1.
        -11    1    6    6    0    0  0.39168498250E+02  0.58994006031E+02  0.28621129805E+03  0.29484126430E+03  0.00000000000E+00 0.  1.
         12    1    6    6    0    0 -0.39306168050E+02  0.37348371878E+02  0.22927772745E+03  0.23560168088E+03  0.00000000000E+00 0. -1.
         -5    1    3    3    0  503 -0.38344915269E+02  0.10906844588E+02 -0.11507825075E+03  0.12187856900E+03  0.47000000000E+01 0.  1.
         11    1    4    4    0    0 -0.20006528896E+01 -0.43985765251E+02 -0.30609997929E+02  0.53625759948E+02  0.00000000000E+00 0. -1.
        -12    1    4    4    0    0  0.81471563863E+02 -0.21944687467E+02 -0.80484423628E+02  0.11660586380E+03  0.00000000000E+00 0.  1.
</event>
<event>
12    1  0.8331241E-002  0.2167114E+03  0.7818608E-02  0.1136439E+00
         21   -1    0    0  501  502  0.00000000000E+00  0.00000000000E+00  0.12992952512E+03  0.12992952512E+03  0.00000000000E+00 0.  1.
         21   -1    0    0  502  503 -0.00000000000E+00 -0.00000000000E+00 -0.58573787509E+03  0.58573787509E+03  0.00000000000E+00 0.  1.
         -6    2    1    2    0  503 -0.12884535081E+03 -0.20183049463E+02 -0.44953817457E+03  0.49886530597E+03  0.17255011791E+03 0.  0.
        -24    2    3    3    0    0 -0.64553112334E+02 -0.32941536074E+02 -0.12335313873E+03  0.16612661192E+03  0.84438174087E+02 0.  0.
          6    2    1    2  501    0  0.12884535081E+03  0.20183049463E+02 -0.62701753872E+01  0.21680209424E+03  0.17307614814E+03 0.  0.
         24    2    5    5    0    0  0.51914722900E+02 -0.45121329939E+02  0.29958480197E+02  0.10948206365E+03  0.79735430370E+02 0.  0.
          5    1    5    5  501    0  0.76930627910E+02  0.65304379401E+02 -0.36228655584E+02  0.10732003059E+03  0.47000000000E+01 0. -1.
        -11    1    6    6    0    0  0.35649111070E+02 -0.23803241196E+02 -0.24073023720E+02  0.49162626888E+02  0.00000000000E+00 0.  1.
         12    1    6    6    0    0  0.16265611829E+02 -0.21318088743E+02  0.54031503916E+02  0.60319436762E+02  0.00000000000E+00 0. -1.
         -5    1    3    3    0  503 -0.64292238476E+02  0.12758486611E+02 -0.32618503584E+03  0.33273869405E+03  0.47000000000E+01 0.  1.
         13    1    4    4    0    0 -0.26671599858E+02  0.25771666234E+02 -0.66094678921E+02  0.75789574488E+02  0.00000000000E+00 0. -1.
        -14    1    4    4    0    0 -0.37881512475E+02 -0.58713202307E+02 -0.57258459811E+02  0.90337037435E+02  0.00000000000E+00 0.  1.
</event>
<event>
12    1  0.8331241E-002  0.2211551E+03  0.7818608E-02  0.1133059E+00
         21   -1    0    0  501  502  0.00000000000E+00  0.00000000000E+00  0.24214082217E+03  0.24214082217E+03  0.00000000000E+00 0. -1.
         21   -1    0    0  502  503 -0.00000000000E+00 -0.00000000000E+00 -0.21330716957E+03  0.21330716957E+03  0.00000000000E+00 0.  1.
         -6    2    1    2    0  503  0.13729471064E+03  0.21885197044E+02 -0.38426021838E+02  0.22446858960E+03  0.17199066586E+03 0.  0.
        -24    2    3    3    0    0  0.73293852743E+02  0.48529577094E+01 -0.89836714186E+02  0.14049623536E+03  0.79202379304E+02 0.  0.
          6    2    1    2  501    0 -0.13729471064E+03 -0.21885197044E+02  0.67259674437E+02  0.23097940214E+03  0.17175220810E+03 0.  0.
         24    2    5    5    0    0 -0.10441358070E+03 -0.78803422776E+02  0.71725672667E+02  0.16492723891E+03  0.70315337878E+02 0.  0.
          5    1    5    5  501    0 -0.32881129937E+02  0.56918225732E+02 -0.44659982298E+01  0.66052163224E+02  0.47000000000E+01 0. -1.
        -13    1    6    6    0    0 -0.81159971763E+02 -0.18106660572E+02  0.34540223615E+02  0.90043429638E+02  0.00000000000E+00 0.  1.
         14    1    6    6    0    0 -0.23253608936E+02 -0.60696762204E+02  0.37185449052E+02  0.74883809277E+02  0.00000000000E+00 0. -1.
         -5    1    3    3    0  503  0.64000857893E+02  0.17032239334E+02  0.51410692349E+02  0.83972354234E+02  0.47000000000E+01 0.  1.
         11    1    4    4    0    0  0.31507461110E+02 -0.21938066937E+02 -0.61641725604E+00  0.38397641292E+02  0.00000000000E+00 0. -1.
        -12    1    4    4    0    0  0.41786391633E+02  0.26791024646E+02 -0.89220296930E+02  0.10209859407E+03  0.00000000000E+00 0.  1.
</event>
<event>
12    1  0.8331241E-002  0.2147024E+03  0.7818608E-02  0.1138242E+00
         21   -1    0    0  501  502  0.00000000000E+00  0.00000000000E+00  0.23168233483E+03  0.23168233483E+03  0.00000000000E+00 0. -1.
         21   -1    0    0  502  503 -0.00000000000E+00 -0.00000000000E+00 -0.71986587222E+03  0.71986587222E+03  0.00000000000E+00 0.  1.
         -6    2    1    2    0  503 -0.11535543662E+03  0.48874973953E+02 -0.64973142590E+03  0.68428652364E+03  0.17436020416E+03 0.  0.
        -24    2    3    3    0    0 -0.11647882900E+03  0.90119239579E+02 -0.57613563890E+03  0.59978337978E+03  0.78224250107E+02 0.  0.
          6    2    1    2  501    0  0.11535543662E+03 -0.48874973953E+02  0.16154788851E+03  0.26726168341E+03  0.17214949114E+03 0.  0.
         24    2    5    5    0    0  0.22513432926E+02  0.22202660995E+02  0.10805436996E+03  0.13859422689E+03  0.80825738745E+02 0.  0.
          5    1    5    5  501    0  0.92842003691E+02 -0.71077634948E+02  0.53493518549E+02  0.12866745651E+03  0.47000000000E+01 0. -1.
        -11    1    6    6    0    0 -0.17535671874E+02 -0.42459093347E+01 -0.23636665610E+01  0.18196550601E+02  0.00000000000E+00 0.  1.
         12    1    6    6    0    0  0.40049104800E+02  0.26448570330E+02  0.11041803652E+03  0.12039767629E+03  0.00000000000E+00 0. -1.
         -5    1    3    3    0  503  0.11233923827E+01 -0.41244265626E+02 -0.73595786996E+02  0.84503143852E+02  0.47000000000E+01 0.  1.
         13    1    4    4    0    0 -0.11863553839E+02  0.91724905233E+01 -0.20915142845E+03  0.20968833662E+03  0.00000000000E+00 0. -1.
        -14    1    4    4    0    0 -0.10461527516E+03  0.80946749056E+02 -0.36698421045E+03  0.39009504317E+03  0.00000000000E+00 0.  1.
</event>
<event>
12    1  0.8331241E-002  0.2700824E+03  0.7818608E-02  0.1101330E+00
         21   -1    0    0  503  502  0.00000000000E+00  0.00000000000E+00  0.45806061549E+03  0.45806061549E+03  0.00000000000E+00 0. -1.
         21   -1    0    0  501  503 -0.00000000000E+00 -0.00000000000E+00 -0.16557103625E+03  0.16557103625E+03  0.00000000000E+00 0.  1.
          6    2    1    2  501    0  0.15117140360E+03  0.14299890527E+03  0.20927727806E+03  0.34167451122E+03  0.17217146201E+03 0.  0.
         24    2    3    3    0    0  0.18022278844E+03  0.13302860137E+03  0.19415863606E+03  0.30711943552E+03  0.80298875827E+02 0.  0.
         -6    2    1    2    0  502 -0.15117140360E+03 -0.14299890527E+03  0.83212301180E+02  0.28195714052E+03  0.17109664476E+03 0.  0.
        -24    2    5    5    0    0 -0.38679798692E+02 -0.96588541720E+02 -0.65098086526E+01  0.13069435590E+03  0.78823624857E+02 0.  0.
          5    1    3    3  501    0 -0.29051384840E+02  0.99703038966E+01  0.15118642000E+02  0.34555075703E+02  0.47000000000E+01 0. -1.
        -11    1    4    4    0    0  0.12658468537E+03  0.50255194215E+02  0.87685469427E+02  0.16198150716E+03  0.00000000000E+00 0.  1.
         12    1    4    4    0    0  0.53638103078E+02  0.82773407154E+02  0.10647316663E+03  0.14513792835E+03  0.00000000000E+00 0. -1.
         -5    1    5    5    0  502 -0.11249160491E+03 -0.46410363545E+02  0.89722109833E+02  0.15126278463E+03  0.47000000000E+01 0.  1.
         13    1    6    6    0    0 -0.62961853534E+02 -0.69146843824E+02 -0.22893101864E+00  0.93517556751E+02  0.00000000000E+00 0. -1.
        -14    1    6    6    0    0  0.24282054842E+02 -0.27441697896E+02 -0.62808776339E+01  0.37176799144E+02  0.00000000000E+00 0.  1.
</event>
<event>
12    1  0.8331241E-002  0.2124006E+03  0.7818608E-02  0.1139861E+00
         21   -1    0    0  501  502  0.00000000000E+00  0.00000000000E+00  0.68696463463E+02  0.68696463463E+02  0.00000000000E+00 0. -1.
         21   -1    0    0  502  503 -0.00000000000E+00 -0.00000000000E+00 -0.66016617413E+03  0.66016617413E+03  0.00000000000E+00 0. -1.
         -6    2    1    2    0  503  0.62038380707E+02  0.10705332012E+03 -0.25940636087E+03  0.33467985324E+03  0.17149276976E+03 0.  0.
        -24    2    3    3    0    0  0.81828423512E+02  0.12223360914E+02 -0.15530925394E+03  0.19240313474E+03  0.77799103158E+02 0.  0.
          6    2    1    2  501    0 -0.62038380707E+02 -0.10705332012E+03 -0.33206334980E+03  0.39418278435E+03  0.17264074017E+03 0.  0.
         24    2    5    5    0    0  0.53937133351E+01 -0.64384460005E+02 -0.77052583445E+02  0.12693701752E+03  0.77469058135E+02 0.  0.
          5    1    5    5  501    0 -0.67432094042E+02 -0.42668860115E+02 -0.25501076635E+03  0.26724576683E+03  0.47000000000E+01 0. -1.
        -13    1    6    6    0    0 -0.13778750369E+02  0.64397039296E-01  0.99379781447E+01  0.16988864539E+02  0.00000000000E+00 0.  1.
         14    1    6    6    0    0  0.19172463704E+02 -0.64448857044E+02 -0.86990561590E+02  0.10994815298E+03  0.00000000000E+00 0. -1.
         -5    1    3    3    0  503 -0.19790042805E+02  0.94829959206E+02 -0.10409710693E+03  0.14227671850E+03  0.47000000000E+01 0.  1.
         11    1    4    4    0    0  0.91810786866E+02  0.18431602920E+02 -0.10479036101E+03  0.14053456633E+03  0.00000000000E+00 0. -1.
        -12    1    4    4    0    0 -0.99823633537E+01 -0.62082420064E+01 -0.50518892924E+02  0.51868568413E+02  0.00000000000E+00 0.  1.
</event>
<event>
12    1  0.8331241E-002  0.2322113E+03  0.7818608E-02  0.1125189E+00
         21   -1    0    0  503  502  0.00000000000E+00  0.00000000000E+00  0.32787870149E+03  0.32787870149E+03  0.00000000000E+00 0.  1.
         21   -1    0    0  501  503 -0.00000000000E+00 -0.00000000000E+00 -0.18067670442E+03  0.18067670442E+03  0.00000000000E+00 0.  1.
          6    2    1    2  501    0  0.78790016602E+02  0.13483367839E+03 -0.34201260013E+01  0.23223648597E+03  0.17185488241E+03 0.  0.
         24    2    3    3    0    0  0.11694749992E+03  0.78931344575E+02 -0.13440398500E+02  0.16365397858E+03  0.81823624336E+02 0.  0.
         -6    2    1    2    0  502 -0.78790016602E+02 -0.13483367839E+03  0.15062212307E+03  0.27631891994E+03  0.17110562239E+03 0.  0.
        -24    2    5    5    0    0 -0.51186544453E+02 -0.19567328044E+01  0.45872955158E+02  0.10481757148E+03  0.79110708129E+02 0.  0.
          5    1    3    3  501    0 -0.38157483315E+02  0.55902333817E+02  0.10020272498E+02  0.68582507392E+02  0.47000000000E+01 0. -1.
        -13    1    4    4    0    0  0.33081050951E+02  0.27465961442E+02 -0.43102838635E+02  0.60881767947E+02  0.00000000000E+00 0.  1.
         14    1    4    4    0    0  0.83866448966E+02  0.51465383132E+02  0.29662440136E+02  0.10277221063E+03  0.00000000000E+00 0. -1.
         -5    1    5    5    0  502 -0.27603472148E+02 -0.13287694559E+03  0.10474916791E+03  0.17150134845E+03  0.47000000000E+01 0.  1.
         11    1    6    6    0    0  0.15207613669E+02 -0.13001117229E+01 -0.98252751243E+01  0.18152075233E+02  0.00000000000E+00 0. -1.
        -12    1    6    6    0    0 -0.66394158122E+02 -0.65662108146E+00  0.55698230282E+02  0.86665496252E+02  0.00000000000E+00 0.  1.
</event>
<event>
12    1  0.8331241E-002  0.2146714E+03  0.7818608E-02  0.1138035E+00
         21   -1    0    0  503  502  0.00000000000E+00  0.00000000000E+00  0.30854918166E+03  0.30854918166E+03  0.00000000000E+00 0. -1.
         21   -1    0    0  501  503 -0.00000000000E+00 -0.00000000000E+00 -0.22662721987E+03  0.22662721987E+03  0.00000000000E+00 0. -1.
          6    2    1    2  501    0 -0.97503507022E+02  0.81727021747E+02 -0.11567196509E+03  0.24385201808E+03  0.17290911846E+03 0.  0.
         24    2    3    3    0    0 -0.32823167622E+02  0.31210974968E+02 -0.12085757799E+03  0.16148456171E+03  0.97052687871E+02 0.  0.
         -6    2    1    2    0  502  0.97503507022E+02 -0.81727021747E+02  0.19759392688E+03  0.29132438345E+03  0.17216357479E+03 0.  0.
        -24    2    5    5    0    0  0.53207764313E+01 -0.26390976471E+02  0.33725431457E+02  0.95276665992E+02  0.84943769958E+02 0.  0.
          5    1    3    3  501    0 -0.64680339400E+02  0.50516046778E+02  0.51856128976E+01  0.82367456366E+02  0.47000000000E+01 0. -1.
        -13    1    4    4    0    0  0.13348234371E+02 -0.20393921681E+02 -0.26883958681E+01  0.24521722507E+02  0.00000000000E+00 0.  1.
         14    1    4    4    0    0 -0.46171401993E+02  0.51604896649E+02 -0.11816918212E+03  0.13696283920E+03  0.00000000000E+00 0. -1.
         -5    1    5    5    0  502  0.92182730591E+02 -0.55336045276E+02  0.16386849543E+03  0.19604771745E+03  0.47000000000E+01 0.  1.
         13    1    6    6    0    0  0.20288340027E+02  0.15938895487E+02  0.42318763595E+02  0.49563523710E+02  0.00000000000E+00 0. -1.
        -14    1    6    6    0    0 -0.14967563596E+02 -0.42329871958E+02 -0.85933321380E+01  0.45713142281E+02  0.00000000000E+00 0.  1.
</event>
<event>
12    1  0.8331241E-002  0.2002380E+03  0.7818608E-02  0.1149788E+00
         21   -1    0    0  503  502  0.00000000000E+00  0.00000000000E+00  0.10968197614E+03  0.10968197614E+03  0.00000000000E+00 0.  1.
         21   -1    0    0  501  503 -0.00000000000E+00 -0.00000000000E+00 -0.49247388208E+03  0.49247388208E+03  0.00000000000E+00 0. -1.
          6    2    1    2  501    0  0.98516020491E+02 -0.23236366620E+02 -0.34594490223E+03  0.39971632236E+03  0.17277131694E+03 0.  0.
         24    2    3    3    0    0  0.53619448781E+01 -0.59872892950E+02 -0.17245083867E+03  0.19936114535E+03  0.79950364313E+02 0.  0.
         -6    2    1    2    0  502 -0.98516020491E+02  0.23236366620E+02 -0.36847003713E+02  0.20243953586E+03  0.17140224318E+03 0.  0.
        -24    2    5    5    0    0 -0.93746385050E+02  0.70495265428E+02  0.12968355751E+01  0.14133965522E+03  0.78849535168E+02 0.  0.
          5    1    3    3  501    0  0.93154075613E+02  0.36636526330E+02 -0.17349406356E+03  0.20035517701E+03  0.47000000000E+01 0. -1.
        -11    1    4    4    0    0 -0.19151126576E+02  0.69135133140E+01 -0.11490179777E+02  0.23379190464E+02  0.00000000000E+00 0.  1.
         12    1    4    4    0    0  0.24513071454E+02 -0.66786406264E+02 -0.16096065889E+03  0.17598195488E+03  0.00000000000E+00 0. -1.
         -5    1    5    5    0  502 -0.47696354411E+01 -0.47258898808E+02 -0.38143839288E+02  0.61099880642E+02  0.47000000000E+01 0.  1.
         13    1    6    6    0    0 -0.89747905384E+02  0.85086191132E+02 -0.73958837489E+01  0.12389126498E+03  0.00000000000E+00 0. -1.
        -14    1    6    6    0    0 -0.39984796654E+01 -0.14590925704E+02  0.86927193240E+01  0.17448390234E+02  0.00000000000E+00 0.  1.
</event>
<event>
12    1  0.8331241E-002  0.2293307E+03  0.7818608E-02  0.1127177E+00
         21   -1    0    0  503  502  0.00000000000E+00  0.00000000000E+00  0.49246628944E+03  0.49246628944E+03  0.00000000000E+00 0.  1.
         21   -1    0    0  501  503 -0.00000000000E+00 -0.00000000000E+00 -0.13239475269E+03  0.13239475269E+03  0.00000000000E+00 0.  1.
          6    2    1    2  501    0 -0.13929216916E+03  0.59639703945E+02  0.42075679338E+02  0.23279733306E+03  0.17165381677E+03 0.  0.
         24    2    3    3    0    0 -0.46677720941E+02  0.12474059767E+02  0.78624484140E+02  0.12252521899E+03  0.80599056954E+02 0.  0.
         -6    2    1    2    0  502  0.13929216916E+03 -0.59639703945E+02  0.31799585741E+03  0.39206370907E+03  0.17214349816E+03 0.  0.
        -24    2    5    5    0    0  0.91197854534E+02 -0.89491717992E+02  0.14014867409E+03  0.20536631632E+03  0.78789953482E+02 0.  0.
          5    1    3    3  501    0 -0.92614448216E+02  0.47165644178E+02 -0.36548804802E+02  0.11027211407E+03  0.47000000000E+01 0. -1.
        -11    1    4    4    0    0 -0.37120443470E+02  0.37528663290E+02  0.17224329173E+02  0.55524817940E+02  0.00000000000E+00 0.  1.
         12    1    4    4    0    0 -0.95572774713E+01 -0.25054603524E+02  0.61400154967E+02  0.67000401046E+02  0.00000000000E+00 0. -1.
         -5    1    5    5    0  502  0.48094314623E+02  0.29852014047E+02  0.17784718332E+03  0.18669739274E+03  0.47000000000E+01 0.  1.
         11    1    6    6    0    0  0.89852428477E+02 -0.61320920806E+02  0.68971351706E+02  0.12880513029E+03  0.00000000000E+00 0. -1.
        -12    1    6    6    0    0  0.13454260566E+01 -0.28170797186E+02  0.71177322387E+02  0.76561186038E+02  0.00000000000E+00 0.  1.
</event>
<event>
12    1  0.8331241E-002  0.1737158E+03  0.7818608E-02  0.1174106E+00
         21   -1    0    0  501  502  0.00000000000E+00  0.00000000000E+00  0.18186323990E+03  0.18186323990E+03  0.00000000000E+00 0.  1.
         21   -1    0    0  502  503 -0.00000000000E+00 -0.00000000000E+00 -0.16571025831E+03  0.16571025831E+03  0.00000000000E+00 0.  1.
         -6    2    1    2    0  503 -0.14962155678E+02  0.19959186227E+02  0.11674863289E+02  0.17379997147E+03  0.17160388234E+03 0.  0.
        -24    2    3    3    0    0 -0.67195786922E+02 -0.20122807864E+02  0.11806121135E+02  0.10779220138E+03  0.80991190921E+02 0.  0.
          6    2    1    2  501    0  0.14962155678E+02 -0.19959186227E+02  0.44781182987E+01  0.17377352673E+03  0.17191553110E+03 0.  0.
         24    2    5    5    0    0 -0.18822671543E+02 -0.67201611152E+02  0.30835125833E+02  0.10982008187E+03  0.78989213772E+02 0.  0.
          5    1    5    5  501    0  0.33784827221E+02  0.47242424924E+02 -0.26357007534E+02  0.63953444858E+02  0.47000000000E+01 0. -1.
        -11    1    6    6    0    0 -0.18128084199E+02 -0.27816561144E+02 -0.24948159107E+02  0.41530701336E+02  0.00000000000E+00 0.  1.
         12    1    6    6    0    0 -0.69458734444E+00 -0.39385050007E+02  0.55783284940E+02  0.68289380539E+02  0.00000000000E+00 0. -1.
         -5    1    3    3    0  503  0.52233631244E+02  0.40081994091E+02 -0.13125784583E+00  0.66007770087E+02  0.47000000000E+01 0.  1.
         13    1    4    4    0    0 -0.39482949336E+02 -0.38222744043E+02  0.36953767336E+02  0.66222823639E+02  0.00000000000E+00 0. -1.
        -14    1    4    4    0    0 -0.27712837586E+02  0.18099936179E+02 -0.25147646201E+02  0.41569377746E+02  0.00000000000E+00 0.  1.
</event>
<event>
12    1  0.8331241E-002  0.1777142E+03  0.7818608E-02  0.1170357E+00
         21   -1    0    0  503  502  0.00000000000E+00  0.00000000000E+00  0.58197898885E+03  0.58197898885E+03  0.00000000000E+00 0.  1.
         21   -1    0    0  501  503 -0.00000000000E+00 -0.00000000000E+00 -0.93267390773E+02  0.93267390773E+02  0.00000000000E+00 0.  1.
          6    2    1    2  501    0  0.19460146523E+02 -0.36445547443E+02  0.25441686902E+02  0.17952612217E+03  0.17284494172E+03 0.  0.
         24    2    3    3    0    0 -0.50886987064E+02 -0.48498832109E+02  0.15404299028E+02  0.10729842644E+03  0.79586667977E+02 0.  0.
         -6    2    1    2    0  502 -0.19460146523E+02  0.36445547443E+02  0.46326991117E+03  0.49572025745E+03  0.17150098489E+03 0.  0.
        -24    2    5    5    0    0 -0.64125934095E+02 -0.20257519152E+02  0.28732051734E+03  0.30548211845E+03  0.79017355699E+02 0.  0.
          5    1    3    3  501    0  0.70347133587E+02  0.12053284666E+02  0.10037387874E+02  0.72227695730E+02  0.47000000000E+01 0. -1.
        -13    1    4    4    0    0 -0.53202255584E+02  0.39495452579E+01  0.34814695230E+01  0.53462131804E+02  0.00000000000E+00 0.  1.
         14    1    4    4    0    0  0.23152685199E+01 -0.52448377367E+02  0.11922829505E+02  0.53836294636E+02  0.00000000000E+00 0. -1.
         -5    1    5    5    0  502  0.44665787573E+02  0.56703066594E+02  0.17594939384E+03  0.19023813901E+03  0.47000000000E+01 0.  1.
         13    1    6    6    0    0 -0.38243953713E+02 -0.54329255710E+01  0.26606985435E+03  0.26885922723E+03  0.00000000000E+00 0. -1.
        -14    1    6    6    0    0 -0.25881980382E+02 -0.14824593581E+02  0.21250662990E+02  0.36622891213E+02  0.00000000000E+00 0.  1.
</event>
<event>
12    1  0.8331241E-002  0.2286402E+03  0.7818608E-02  0.1128351E+00
         21   -1    0    0  501  502  0.00000000000E+00  0.00000000000E+00  0.20504298735E+04  0.20504298735E+04  0.00000000000E+00 0.  1.
         21   -1    0    0  502  503 -0.00000000000E+00 -0.00000000000E+00 -0.30693035766E+02  0.30693035766E+02  0.00000000000E+00 0.  1.
         -6    2    1    2    0  503 -0.17003139084E+02  0.15079926724E+03  0.57055030897E+03  0.61465761749E+03  0.17101697558E+03 0.  0.
        -24    2    3    3    0    0  0.26455043893E+02  0.14646385026E+03  0.50074309023E+03  0.53218006117E+03  0.10158959750E+03 0.  0.
          6    2    1    2  501    0  0.17003139084E+02 -0.15079926724E+03  0.14491865288E+04  0.14664652918E+04  0.16537633169E+03 0.  0.
         24    2    5    5    0    0  0.51686324903E+02 -0.34269853753E+02  0.70009115852E+03  0.70755291784E+03  0.81594131211E+02 0.  0.
          5    1    5    5  501    0 -0.34683185819E+02 -0.11652941349E+03  0.74909537027E+03  0.75891237396E+03  0.47000000000E+01 0. -1.
        -13    1    6    6    0    0  0.53545741251E+02 -0.43813043743E+02  0.69028602244E+03  0.69374456537E+03  0.00000000000E+00 0.  1.
         14    1    6    6    0    0 -0.18594163480E+01  0.95431899902E+01  0.98051360833E+01  0.13808352471E+02  0.00000000000E+00 0. -1.
         -5    1    3    3    0  503 -0.43458182977E+02  0.43354169864E+01  0.69807218739E+02  0.82477556319E+02  0.47000000000E+01 0.  1.
         13    1    4    4    0    0 -0.19578262131E+01  0.66355573269E+02  0.37221752655E+03  0.37809097088E+03  0.00000000000E+00 0. -1.
        -14    1    4    4    0    0  0.28412870106E+02  0.80108276988E+02  0.12852556368E+03  0.15408909030E+03  0.00000000000E+00 0.  1.
</event>
<event>
12    1  0.8331241E-002  0.1792023E+03  0.7818608E-02  0.1169016E+00
         21   -1    0    0  503  502  0.00000000000E+00  0.00000000000E+00  0.19025079235E+03  0.19025079235E+03  0.00000000000E+00 0. -1.
         21   -1    0    0  501  503 -0.00000000000E+00 -0.00000000000E+00 -0.23989140463E+03  0.23989140463E+03  0.00000000000E+00 0. -1.
          6    2    1    2  501    0 -0.38913065423E+02 -0.16978754867E+02 -0.14337021462E+03  0.22949611802E+03  0.17410038762E+03 0.  0.
         24    2    3    3    0    0 -0.44400450707E+02  0.54050304898E+02 -0.99650747176E+02  0.14577801626E+03  0.80175576895E+02 0.  0.
         -6    2    1    2    0  502  0.38913065423E+02  0.16978754867E+02  0.93729602341E+02  0.20064607895E+03  0.17225302861E+03 0.  0.
        -24    2    5    5    0    0  0.29475961125E+02  0.77343467544E+02  0.76055226511E+02  0.13686966454E+03  0.78090097552E+02 0.  0.
          5    1    3    3  501    0  0.54873852831E+01 -0.71029059766E+02 -0.43719467446E+02  0.83718101760E+02  0.47000000000E+01 0. -1.
        -11    1    4    4    0    0 -0.63024134182E+01 -0.74517982523E+01  0.10281555457E+02  0.14176039457E+02  0.00000000000E+00 0.  1.
         12    1    4    4    0    0 -0.38098037288E+02  0.61502103151E+02 -0.10993230263E+03  0.13160197681E+03  0.00000000000E+00 0. -1.
         -5    1    5    5    0  502  0.94371042982E+01 -0.60364712677E+02  0.17674375830E+02  0.63776414410E+02  0.47000000000E+01 0.  1.
         11    1    6    6    0    0 -0.20752914326E+02  0.12881328332E+02 -0.11416297557E+01  0.24452308503E+02  0.00000000000E+00 0. -1.
        -12    1    6    6    0    0  0.50228875452E+02  0.64462139212E+02  0.77196856267E+02  0.11241735604E+03  0.00000000000E+00 0.  1.
</event>
<event>
12    1  0.8331241E-002  0.2209456E+03  0.7818608E-02  0.1133220E+00
         21   -1    0    0  503  502  0.00000000000E+00  0.00000000000E+00  0.41855871656E+03  0.41855871656E+03  0.00000000000E+00 0.  1.
         21   -1    0    0  501  503 -0.00000000000E+00 -0.00000000000E+00 -0.11737827814E+03  0.11737827814E+03  0.00000000000E+00 0. -1.
          6    2    1    2  501    0 -0.18836621077E+02 -0.13711987140E+03  0.12757129920E+03  0.25494393289E+03  0.17194561673E+03 0.  0.
         24    2    3    3    0    0 -0.29677990903E+02 -0.13778299441E+03  0.15557021915E+03  0.22454648973E+03  0.79712585413E+02 0.  0.
         -6    2    1    2    0  502  0.18836621077E+02  0.13711987140E+03  0.17360913922E+03  0.28099306181E+03  0.17222163087E+03 0.  0.
        -24    2    5    5    0    0  0.36495344621E+02  0.44963405646E+02  0.19537802987E+02  0.10053611031E+03  0.79825846087E+02 0.  0.
          5    1    3    3  501    0  0.10841369826E+02  0.66312301043E+00 -0.27998919954E+02  0.30397443156E+02  0.47000000000E+01 0. -1.
        -11    1    4    4    0    0 -0.20585827601E+02  0.23944098476E+01  0.13368343621E+02  0.24662159429E+02  0.00000000000E+00 0.  1.
         12    1    4    4    0    0 -0.90921633026E+01 -0.14017740426E+03  0.14220187553E+03  0.19988433031E+03  0.00000000000E+00 0. -1.
         -5    1    5    5    0  502 -0.17658723544E+02  0.92156465754E+02  0.15407133624E+03  0.18045695151E+03  0.47000000000E+01 0.  1.
         13    1    6    6    0    0  0.26990587324E+02 -0.19599031901E+02  0.70972775797E+01  0.34102568885E+02  0.00000000000E+00 0. -1.
        -14    1    6    6    0    0  0.95047572974E+01  0.64562437546E+02  0.12440525407E+02  0.66433541420E+02  0.00000000000E+00 0.  1.
</event>
<event>
12    1  0.8331241E-002  0.2238846E+03  0.7818608E-02  0.1131165E+00
         21   -1    0    0  501  502  0.00000000000E+00  0.00000000000E+00  0.47359300332E+03  0.47359300332E+03  0.00000000000E+00 0.  1.
         21   -1    0    0  502  503 -0.00000000000E+00 -0.00000000000E+00 -0.25570344082E+03  0.25570344082E+03  0.00000000000E+00 0. -1.
         -6    2    1    2    0  503  0.85082353131E+02  0.11335213755E+03 -0.17048771075E+03  0.28140782301E+03  0.17331067317E+03 0.  0.
        -24    2    3    3    0    0  0.91708378218E+02  0.70611270656E+02 -0.18768055251E+03  0.23462780891E+03  0.80186287757E+02 0.  0.
          6    2    1    2  501    0 -0.85082353131E+02 -0.11335213755E+03  0.38837727325E+03  0.44788862113E+03  0.17227767314E+03 0.  0.
         24    2    5    5    0    0 -0.72229341645E+02 -0.15008887369E+03  0.32842645017E+03  0.37625776971E+03  0.77215466705E+02 0.  0.
          5    1    5    5  501    0 -0.12853011486E+02  0.36736736145E+02  0.59950823078E+02  0.71630851416E+02  0.47000000000E+01 0. -1.
        -13    1    6    6    0    0 -0.50604658066E+02 -0.13861559608E+03  0.31610553009E+03  0.34885214783E+03  0.00000000000E+00 0.  1.
         14    1    6    6    0    0 -0.21624683579E+02 -0.11473277613E+02  0.12320920081E+02  0.27405621882E+02  0.00000000000E+00 0. -1.
         -5    1    3    3    0  503 -0.66260250873E+01  0.42740866890E+02  0.17192841766E+02  0.46780014097E+02  0.47000000000E+01 0.  1.
         11    1    4    4    0    0  0.10022945952E+03  0.56698231102E+02 -0.12542770078E+03  0.17027255237E+03  0.00000000000E+00 0. -1.
        -12    1    4    4    0    0 -0.85210813040E+01  0.13913039554E+02 -0.62252851735E+02  0.64355256548E+02  0.00000000000E+00 0.  1.
</event>
<event>
12    1  0.8331241E-002  0.2167849E+03  0.7818608E-02  0.1136303E+00
         21   -1    0    0  503  502  0.00000000000E+00  0.00000000000E+00  0.79234539804E+03  0.79234539804E+03  0.00000000000E+00 0.  1.
         21   -1    0    0  501  503 -0.00000000000E+00 -0.00000000000E+00 -0.60176711443E+02  0.60176711443E+02  0.00000000000E+00 0. -1.
          6    2    1    2  501    0 -0.10983782276E+03 -0.72624255664E+02  0.41718977624E+03  0.47015136086E+03  0.17221022879E+03 0.  0.
         24    2    3    3    0    0 -0.12208469185E+03 -0.52052860601E+02  0.20838191394E+03  0.25992295780E+03  0.80763541598E+02 0.  0.
         -6    2    1    2    0  502  0.10983782276E+03  0.72624255664E+02  0.31497891035E+03  0.38237074862E+03  0.17221221099E+03 0.  0.
        -24    2    5    5    0    0  0.12143995492E+03  0.19599818938E+02  0.28584686350E+03  0.32058914525E+03  0.77052937168E+02 0.  0.
          5    1    3    3  501    0  0.12246869088E+02 -0.20571395063E+02  0.20880786230E+03  0.21022840307E+03  0.47000000000E+01 0. -1.
        -13    1    4    4    0    0 -0.21181984592E+02  0.12625406787E+02  0.71014022264E+01  0.25661396715E+02  0.00000000000E+00 0.  1.
         14    1    4    4    0    0 -0.10090270725E+03 -0.64678267388E+02  0.20128051172E+03  0.23426156108E+03  0.00000000000E+00 0. -1.
         -5    1    5    5    0  502 -0.11602132165E+02  0.53024436726E+02  0.29132046852E+02  0.61781603367E+02  0.47000000000E+01 0.  1.
         11    1    6    6    0    0  0.45871413409E+02 -0.28454039562E+02  0.85143706767E+02  0.10081304349E+03  0.00000000000E+00 0. -1.
        -12    1    6    6    0    0  0.75568541515E+02  0.48053858500E+02  0.20070315673E+03  0.21977610176E+03  0.00000000000E+00 0.  1.
</event>
<event>
12    1  0.8331241E-002  0.2761370E+03  0.7818608E-02  0.1097927E+00
         21   -1    0    0  503  502  0.00000000000E+00  0.00000000000E+00  0.60096623038E+03  0.60096623038E+03  0.00000000000E+00 0. -1.
         21   -1    0    0  501  503 -0.00000000000E+00 -0.00000000000E+00 -0.12658866179E+03  0.12658866179E+03  0.00000000000E+00 0.  1.
          6    2    1    2  501    0  0.15669458321E+03 -0.14773679032E+03  0.22844253565E+03  0.35777704497E+03  0.17157817516E+03 0.  0.
         24    2    3    3    0    0  0.11105412755E+03 -0.52742699128E+02  0.20045666696E+03  0.24863389401E+03  0.80753491350E+02 0.  0.
         -6    2    1    2    0  502 -0.15669458321E+03  0.14773679032E+03  0.24593503295E+03  0.36977784720E+03  0.17283594599E+03 0.  0.
        -24    2    5    5    0    0 -0.18056210361E+03  0.13583421668E+03  0.18292216900E+03  0.30119183688E+03  0.78755285592E+02 0.  0.
          5    1    3    3  501    0  0.45640455661E+02 -0.94994091192E+02  0.27985868688E+02  0.10914315096E+03  0.47000000000E+01 0. -1.
        -11    1    4    4    0    0 -0.75919365711E+01 -0.18671211531E+02  0.12342225146E+02  0.23634342861E+02  0.00000000000E+00 0.  1.
         12    1    4    4    0    0  0.11864606412E+03 -0.34071487597E+02  0.18811444181E+03  0.22499955115E+03  0.00000000000E+00 0. -1.
         -5    1    5    5    0  502  0.23867520396E+02  0.11902573638E+02  0.63012863950E+02  0.68586010325E+02  0.47000000000E+01 0.  1.
         13    1    6    6    0    0 -0.16628075380E+03  0.11278100249E+03  0.18612868739E+03  0.27388452289E+03  0.00000000000E+00 0. -1.
        -14    1    6    6    0    0 -0.14281349804E+02  0.23053214192E+02 -0.32065183966E+01  0.27307313984E+02  0.00000000000E+00 0.  1.
</event>
<event>
12    1  0.8331241E-002  0.5124189E+03  0.7818608E-02  0.1010968E+00
         21   -1    0    0  501  502  0.00000000000E+00  0.00000000000E+00  0.50629163847E+03  0.50629163847E+03  0.00000000000E+00 0.  1.
         21   -1    0    0  502  503 -0.00000000000E+00 -0.00000000000E+00 -0.51464421681E+03  0.51464421681E+03  0.00000000000E+00 0.  1.
         -6    2    1    2    0  503  0.76014174830E+02 -0.47083332279E+03 -0.36475505426E+02  0.51371546729E+03  0.18737915095E+03 0.  0.
        -24    2    3    3    0    0  0.65155129229E+02 -0.10539919037E+03 -0.41298654178E+01  0.14666185480E+03  0.78348348230E+02 0.  0.
          6    2    1    2  501    0 -0.76014174830E+02  0.47083332279E+03  0.28122927079E+02  0.50722038799E+03  0.17035096224E+03 0.  0.
         24    2    5    5    0    0 -0.97664398144E+01  0.37284037760E+03  0.55280946141E+02  0.38576657907E+03  0.81575363946E+02 0.  0.
          5    1    5    5  501    0 -0.66247735016E+02  0.97992945194E+02 -0.27158019062E+02  0.12145380892E+03  0.47000000000E+01 0. -1.
        -11    1    6    6    0    0 -0.39582981690E+02  0.21201776137E+03  0.53396118034E+02  0.22219245937E+03  0.00000000000E+00 0.  1.
         12    1    6    6    0    0  0.29816541876E+02  0.16082261623E+03  0.18848281067E+01  0.16357411970E+03  0.00000000000E+00 0. -1.
         -5    1    3    3    0  503  0.10859045601E+02 -0.36543413243E+03 -0.32345640008E+02  0.36705361249E+03  0.47000000000E+01 0.  1.
         13    1    4    4    0    0  0.46396206671E+02 -0.63807370289E+02 -0.40158843629E+02  0.88525257516E+02  0.00000000000E+00 0. -1.
        -14    1    4    4    0    0  0.18758922559E+02 -0.41591820076E+02  0.36028978211E+02  0.58136597284E+02  0.00000000000E+00 0.  1.
</event>
<event>
12    1  0.8331241E-002  0.2263747E+03  0.7818608E-02  0.1129234E+00
         21   -1    0    0  503  502  0.00000000000E+00  0.00000000000E+00  0.12674488359E+03  0.12674488359E+03  0.00000000000E+00 0.  1.
         21   -1    0    0  501  503 -0.00000000000E+00 -0.00000000000E+00 -0.64142176201E+03  0.64142176201E+03  0.00000000000E+00 0. -1.
          6    2    1    2  501    0 -0.52048384771E+01  0.14687903998E+03 -0.49090460884E+03  0.54054715983E+03  0.17205625327E+03 0.  0.
         24    2    3    3    0    0 -0.47974740766E+01  0.32651459342E+02 -0.31248380543E+03  0.32864109759E+03  0.96279327043E+02 0.  0.
         -6    2    1    2    0  502  0.52048384771E+01 -0.14687903998E+03 -0.23772269584E+02  0.22761948577E+03  0.17217713777E+03 0.  0.
        -24    2    5    5    0    0 -0.43271363242E+02 -0.13002206933E+03  0.19754781026E+02  0.16015991471E+03  0.80515821525E+02 0.  0.
          5    1    3    3  501    0 -0.40736440050E+00  0.11422758063E+03 -0.17842080341E+03  0.21190606224E+03  0.47000000000E+01 0. -1.
        -11    1    4    4    0    0  0.42680741887E+02  0.88195228768E+01 -0.91323828688E+02  0.10119027324E+03  0.00000000000E+00 0.  1.
         12    1    4    4    0    0 -0.47478215964E+02  0.23831936465E+02 -0.22115997674E+03  0.22745082435E+03  0.00000000000E+00 0. -1.
         -5    1    5    5    0  502  0.48476201719E+02 -0.16856970642E+02 -0.43527050610E+02  0.67459571057E+02  0.47000000000E+01 0.  1.
         11    1    6    6    0    0  0.20143937689E+02 -0.57679612760E+02 -0.34673567550E+01  0.61194268658E+02  0.00000000000E+00 0. -1.
        -12    1    6    6    0    0 -0.63415300931E+02 -0.72342456574E+02  0.23222137781E+02  0.98965646052E+02  0.00000000000E+00 0.  1.
</event>
<event>
12    1  0.8331241E-002  0.1797376E+03  0.7818608E-02  0.1168328E+00
         21   -1    0    0  503  502  0.00000000000E+00  0.00000000000E+00  0.17966453693E+03  0.17966453693E+03  0.00000000000E+00 0. -1.
         21   -1    0    0  501  503 -0.00000000000E+00 -0.00000000000E+00 -0.20036223040E+03  0.20036223040E+03  0.00000000000E+00 0. -1.
          6    2    1    2  501    0 -0.15635014110E+02 -0.48413226971E+02 -0.72856855588E+02  0.19394255323E+03  0.17238705965E+03 0.  0.
         24    2    3    3    0    0 -0.36578574748E+02  0.31030337801E+02 -0.61433467376E+02  0.11086128871E+03  0.78837049835E+02 0.  0.
         -6    2    1    2    0  502  0.15635014110E+02  0.48413226971E+02  0.52159162121E+02  0.18608421410E+03  0.17122634824E+03 0.  0.
        -24    2    5    5    0    0  0.91006907047E+01  0.95414489406E+02  0.59448150043E+02  0.13784485882E+03  0.79248818291E+02 0.  0.
          5    1    3    3  501    0  0.20943560638E+02 -0.79443564772E+02 -0.11423388212E+02  0.83081264519E+02  0.47000000000E+01 0. -1.
        -11    1    4    4    0    0  0.17236630247E+02  0.12520809386E+02 -0.47813114640E+02  0.52344684749E+02  0.00000000000E+00 0.  1.
         12    1    4    4    0    0 -0.53815204995E+02  0.18509528415E+02 -0.13620352736E+02  0.58516603964E+02  0.00000000000E+00 0. -1.
         -5    1    5    5    0  502  0.65343234052E+01 -0.47001262435E+02 -0.72889879222E+01  0.48239355279E+02  0.47000000000E+01 0.  1.
         11    1    6    6    0    0  0.70239594758E+01  0.74798379562E+02  0.25285187072E+00  0.75127874493E+02  0.00000000000E+00 0. -1.
        -12    1    6    6    0    0  0.20767312289E+01  0.20616109844E+02  0.59195298173E+02  0.62716984330E+02  0.00000000000E+00 0.  1.
</event>
<event>
12    1  0.8331241E-002  0.1798568E+03  0.7818608E-02  0.1168246E+00
         21   -1    0    0  501  502  0.00000000000E+00  0.00000000000E+00  0.29983319637E+03  0.29983319637E+03  0.00000000000E+00 0. -1.
         21   -1    0    0  502  503 -0.00000000000E+00 -0.00000000000E+00 -0.16758961771E+03  0.16758961771E+03  0.00000000000E+00 0. -1.
         -6    2    1    2    0  503  0.48040542366E+02 -0.16794390408E+02 -0.74390724782E+02  0.19347720272E+03  0.17120018335E+03 0.  0.
        -24    2    3    3    0    0  0.51186138966E+02  0.19432138876E+02  0.13561845922E+02  0.98188164028E+02  0.80370162665E+02 0.  0.
          6    2    1    2  501    0 -0.48040542366E+02  0.16794390408E+02  0.20663430345E+03  0.27394561136E+03  0.17250657194E+03 0.  0.
         24    2    5    5    0    0 -0.80508945445E+02  0.42771838972E+02  0.92253972141E+02  0.15215080350E+03  0.79548420000E+02 0.  0.
          5    1    5    5  501    0  0.32468403079E+02 -0.25977448564E+02  0.11438033130E+03  0.12179480786E+03  0.47000000000E+01 0. -1.
        -13    1    6    6    0    0  0.11883951212E+02  0.20251584874E+02  0.31553598388E+02  0.39331724569E+02  0.00000000000E+00 0.  1.
         14    1    6    6    0    0 -0.92392896657E+02  0.22520254098E+02  0.60700373753E+02  0.11281907893E+03  0.00000000000E+00 0. -1.
         -5    1    3    3    0  503 -0.31455966007E+01 -0.36226529284E+02 -0.87952570704E+02  0.95289038695E+02  0.47000000000E+01 0.  1.
         11    1    4    4    0    0  0.53130092065E+02  0.32350626110E+02 -0.17392481139E+02  0.64589999944E+02  0.00000000000E+00 0. -1.
        -12    1    4    4    0    0 -0.19439530988E+01 -0.12918487234E+02  0.30954327060E+02  0.33598164084E+02  0.00000000000E+00 0.  1.
</event>
<event>
12    1  0.8331241E-002  0.3817461E+03  0.7818608E-02  0.1050398E+00
         21   -1    0    0  503  502  0.00000000000E+00  0.00000000000E+00  0.24830626808E+03  0.24830626808E+03  0.00000000000E+00 0. -1.
         21   -1    0    0  501  503 -0.00000000000E+00 -0.00000000000E+00 -0.69418560175E+03  0.69418560175E+03  0.00000000000E+00 0.  1.
          6    2    1    2  501    0 -0.25514410792E+03  0.22408406461E+03 -0.40945747130E+03  0.55901222064E+03  0.17183439178E+03 0.  0.
         24    2    3    3    0    0 -0.12235622863E+03  0.11389904855E+03 -0.30489095993E+03  0.35719645329E+03  0.81772665665E+02 0.  0.
         -6    2    1    2    0  502  0.25514410792E+03 -0.22408406461E+03 -0.36421862369E+02  0.38347964919E+03  0.17440729762E+03 0.  0.
        -24    2    5    5    0    0  0.24392222305E+03 -0.13322171410E+03 -0.40334572151E+02  0.29172292334E+03  0.78925979794E+02 0.  0.
          5    1    3    3  501    0 -0.13278787929E+03  0.11018501606E+03 -0.10456651137E+03  0.20181576735E+03  0.47000000000E+01 0. -1.
        -13    1    4    4    0    0  0.29531704876E+01  0.39008810552E+02 -0.80434969969E+02  0.89443797496E+02  0.00000000000E+00 0.  1.
         14    1    4    4    0    0 -0.12530939912E+03  0.74890238000E+02 -0.22445598996E+03  0.26775265579E+03  0.00000000000E+00 0. -1.
         -5    1    5    5    0  502  0.11221884870E+02 -0.90862350512E+02  0.39127097823E+01  0.91756725848E+02  0.47000000000E+01 0.  1.
         11    1    6    6    0    0  0.14695473930E+03 -0.66169848434E+02  0.14276325175E+02  0.16179603736E+03  0.00000000000E+00 0. -1.
        -12    1    6    6    0    0  0.96967483746E+02 -0.67051865662E+02 -0.54610897326E+02  0.12992688598E+03  0.00000000000E+00 0.  1.
</event>
<event>
12    1  0.8331241E-002  0.1765192E+03  0.7818608E-02  0.1171537E+00
         21   -1    0    0  501  502  0.00000000000E+00  0.00000000000E+00  0.88002929749E+03  0.88002929749E+03  0.00000000000E+00 0.  1.
         21   -1    0    0  502  503 -0.00000000000E+00 -0.00000000000E+00 -0.43522666743E+02  0.43522666743E+02  0.00000000000E+00 0.  1.
         -6    2    1    2    0  503 -0.38119675146E+02 -0.18193816637E+01  0.61956979904E+03  0.64387248885E+03  0.17102229750E+03 0.  0.
        -24    2    3    3    0    0 -0.24665689562E+02  0.35444455662E+02  0.17118634505E+03  0.19371760983E+03  0.79731060120E+02 0.  0.
          6    2    1    2  501    0  0.38119675146E+02  0.18193816637E+01  0.21693683171E+03  0.27967947538E+03  0.17234442322E+03 0.  0.
         24    2    5    5    0    0 -0.31305272989E+02 -0.48004749078E+01  0.55654142879E+02  0.10390165641E+03  0.81823626839E+02 0.  0.
          5    1    5    5  501    0  0.69424948135E+02  0.66198565715E+01  0.16128268884E+03  0.17577781897E+03  0.47000000000E+01 0. -1.
        -11    1    6    6    0    0 -0.54817903310E+02  0.63654141075E+01  0.54927349526E+02  0.77862280637E+02  0.00000000000E+00 0.  1.
         12    1    6    6    0    0  0.23512630321E+02 -0.11165889015E+02  0.72679335303E+00  0.26039375774E+02  0.00000000000E+00 0. -1.
         -5    1    3    3    0  503 -0.13453985584E+02 -0.37263837325E+02  0.44838345399E+03  0.45015487902E+03  0.47000000000E+01 0.  1.
         11    1    4    4    0    0 -0.52063673925E+02  0.24789294516E+02  0.13693309885E+03  0.14857930147E+03  0.00000000000E+00 0. -1.
        -12    1    4    4    0    0  0.27397984363E+02  0.10655161146E+02  0.34253246202E+02  0.45138308360E+02  0.00000000000E+00 0.  1.
</event>
<event>
12    1  0.8331241E-002  0.2139219E+03  0.7818608E-02  0.1138622E+00
         21   -1    0    0  503  502  0.00000000000E+00  0.00000000000E+00  0.23065343489E+04  0.23065343489E+04  0.00000000000E+00 0.  1.
         21   -1    0    0  501  503 -0.00000000000E+00 -0.00000000000E+00 -0.49663854603E+02  0.49663854603E+02  0.00000000000E+00 0.  1.
          6    2    1    2  501    0  0.49552306213E+02  0.11579702460E+03  0.21390542836E+03  0.30206363511E+03  0.17211195606E+03 0.  0.
         24    2    3    3    0    0  0.52202773760E+02  0.39533689994E+01  0.11680153200E+03  0.15384998877E+03  0.85360778173E+02 0.  0.
         -6    2    1    2    0  502 -0.49552306213E+02 -0.11579702460E+03  0.20429650659E+04  0.20541345684E+04  0.17291090896E+03 0.  0.
        -24    2    5    5    0    0 -0.59744678767E+02 -0.12112155117E+03  0.11085806867E+04  0.11196676117E+04  0.80402517912E+02 0.  0.
          5    1    3    3  501    0 -0.26504675471E+01  0.11184365560E+03  0.97103896351E+02  0.14821364635E+03  0.47000000000E+01 0. -1.
        -13    1    4    4    0    0  0.73085147543E+02  0.53412035082E+01  0.64899217353E+02  0.97887055627E+02  0.00000000000E+00 0.  1.
         14    1    4    4    0    0 -0.20882373783E+02 -0.13878345088E+01  0.51902314652E+02  0.55962933140E+02  0.00000000000E+00 0. -1.
         -5    1    5    5    0  502  0.10192372554E+02  0.53245265681E+01  0.93438437924E+03  0.93446695673E+03  0.47000000000E+01 0.  1.
         13    1    6    6    0    0 -0.73193727606E+02 -0.81564077046E+02  0.92058176510E+03  0.92708187700E+03  0.00000000000E+00 0. -1.
        -14    1    6    6    0    0  0.13449048839E+02 -0.39557474124E+02  0.18799892159E+03  0.19258573466E+03  0.00000000000E+00 0.  1.
</event>
<event>
12    1  0.8331241E-002  0.2644407E+03  0.7818608E-02  0.1104559E+00
         21   -1    0    0  501  502  0.00000000000E+00  0.00000000000E+00  0.28755406984E+03  0.28755406984E+03  0.00000000000E+00 0. -1.
         21   -1    0    0  502  503 -0.00000000000E+00 -0.00000000000E+00 -0.27199662374E+03  0.27199662374E+03  0.00000000000E+00 0.  1.
         -6    2    1    2    0  503 -0.20017731667E+03  0.29475262441E+01 -0.83819911548E+02  0.27705339144E+03  0.17220092368E+03 0.  0.
        -24    2    3    3    0    0 -0.69630210137E+02 -0.52215905545E+02 -0.76844066332E+02  0.13508049386E+03  0.69042467618E+02 0.  0.
          6    2    1    2  501    0  0.20017731667E+03 -0.29475262441E+01  0.99377357647E+02  0.28249730214E+03  0.17276926950E+03 0.  0.
         24    2    5    5    0    0  0.12816647982E+03 -0.35451879951E+02 -0.66041650168E+00  0.15493657194E+03  0.79507375964E+02 0.  0.
          5    1    5    5  501    0  0.72010836856E+02  0.32504353707E+02  0.10003777415E+03  0.12756073021E+03  0.47000000000E+01 0. -1.
        -11    1    6    6    0    0 -0.77583119575E+01 -0.80632361079E+01 -0.11261214649E+02  0.15875205080E+02  0.00000000000E+00 0.  1.
         12    1    6    6    0    0  0.13592479177E+03 -0.27388643843E+02  0.10600798148E+02  0.13906136686E+03  0.00000000000E+00 0. -1.
         -5    1    3    3    0  503 -0.13054710654E+03  0.55163431789E+02 -0.69758452162E+01  0.14197289758E+03  0.47000000000E+01 0.  1.
         11    1    4    4    0    0 -0.64253046827E+02 -0.50128417621E+02 -0.28410275022E+02  0.86304437931E+02  0.00000000000E+00 0. -1.
        -12    1    4    4    0    0 -0.53771633100E+01 -0.20874879237E+01 -0.48433791310E+02  0.48776055926E+02  0.00000000000E+00 0.  1.
</event>
<event>
12    1  0.8331241E-002  0.1807333E+03  0.7818608E-02  0.1167202E+00
         21   -1    0    0  503  502  0.00000000000E+00  0.00000000000E+00  0.24142360961E+04  0.24142360961E+04  0.00000000000E+00 0. -1.
         21   -1    0    0  501  503 -0.00000000000E+00 -0.00000000000E+00 -0.29591995193E+02  0.29591995193E+02  0.00000000000E+00 0. -1.
          6    2    1    2  501    0  0.37125543940E+02 -0.42387974877E+02  0.29183031079E+03  0.34326292984E+03  0.17172496115E+03 0.  0.
         24    2    3    3    0    0  0.87794149134E+02 -0.15771797513E+02  0.16929793729E+03  0.20794108754E+03  0.81370400621E+02 0.  0.
         -6    2    1    2    0  502 -0.37125543940E+02  0.42387974877E+02  0.20928137901E+04  0.21005651615E+04  0.17125825806E+03 0.  0.
        -24    2    5    5    0    0  0.12096169374E+02  0.44264614783E+02  0.18662576086E+04  0.18686684339E+04  0.83057696592E+02 0.  0.
          5    1    3    3  501    0 -0.50668605194E+02 -0.26616177364E+02  0.12253237349E+03  0.13532184230E+03  0.47000000000E+01 0. -1.
        -11    1    4    4    0    0  0.36953033708E+02  0.33116155453E+02  0.59991478813E+02  0.77853606097E+02  0.00000000000E+00 0.  1.
         12    1    4    4    0    0  0.50841115426E+02 -0.48887952966E+02  0.10930645848E+03  0.13008748144E+03  0.00000000000E+00 0. -1.
         -5    1    5    5    0  502 -0.49221713314E+02 -0.18766399059E+01  0.22655618155E+03  0.23189672753E+03  0.47000000000E+01 0.  1.
         13    1    6    6    0    0  0.11467986920E+02  0.27927222373E+02  0.18054154652E+04  0.18056678672E+04  0.00000000000E+00 0. -1.
        -14    1    6    6    0    0  0.62818245403E+00  0.16337392410E+02  0.60842143351E+02  0.63000566756E+02  0.00000000000E+00 0.  1.
</event>
<event>
12    1  0.8331241E-002  0.1775263E+03  0.7818608E-02  0.1170242E+00
         21   -1    0    0  501  502  0.00000000000E+00  0.00000000000E+00  0.14697325618E+04  0.14697325618E+04  0.00000000000E+00 0.  1.
         21   -1    0    0  502  503 -0.00000000000E+00 -0.00000000000E+00 -0.39149997239E+02  0.39149997239E+02  0.00000000000E+00 0.  1.
         -6    2    1    2    0  503 -0.39123200531E+02  0.20690239917E+02  0.20785378984E+03  0.27334733924E+03  0.17192108384E+03 0.  0.
        -24    2    3    3    0    0 -0.70191277135E+02  0.57138127283E+02  0.18343271937E+03  0.21938297544E+03  0.79307921431E+02 0.  0.
          6    2    1    2  501    0  0.39123200531E+02 -0.20690239917E+02  0.12227287748E+04  0.12355352198E+04  0.17182232683E+03 0.  0.
         24    2    5    5    0    0  0.39239805020E+02  0.32743206166E+02  0.10587802278E+04  0.10630348929E+04  0.80098269775E+02 0.  0.
          5    1    5    5  501    0 -0.11660448936E+00 -0.53433446083E+02  0.16394854696E+03  0.17250032698E+03  0.47000000000E+01 0. -1.
        -13    1    6    6    0    0 -0.22671230877E+00  0.51346985915E+02  0.58669784685E+03  0.58894051300E+03  0.00000000000E+00 0.  1.
         14    1    6    6    0    0  0.39466517329E+02 -0.18603779749E+02  0.47208238094E+03  0.47409437985E+03  0.00000000000E+00 0. -1.
         -5    1    3    3    0  503  0.31068076604E+02 -0.36447887366E+02  0.24421070476E+02  0.53964363802E+02  0.47000000000E+01 0.  1.
         11    1    4    4    0    0 -0.64725870188E+02  0.98678854854E+01  0.67370735559E+02  0.93944821280E+02  0.00000000000E+00 0. -1.
        -12    1    4    4    0    0 -0.54654069467E+01  0.47270241798E+02  0.11606198381E+03  0.12543815416E+03  0.00000000000E+00 0.  1.
</event>
<event>
12    1  0.8331241E-002  0.2389968E+03  0.7818608E-02  0.1121214E+00
         21   -1    0    0  501  502  0.00000000000E+00  0.00000000000E+00  0.15008272441E+03  0.15008272441E+03  0.00000000000E+00 0.  1.
         21   -1    0    0  502  503 -0.00000000000E+00 -0.00000000000E+00 -0.66248517712E+03  0.66248517712E+03  0.00000000000E+00 0.  1.
         -6    2    1    2    0  503 -0.13346745062E+03 -0.93896833032E+02 -0.52586521234E+03  0.57762766060E+03  0.17461190424E+03 0.  0.
        -24    2    3    3    0    0 -0.37472050832E+02 -0.86487508533E+02 -0.17594113133E+03  0.21466903025E+03  0.79014347606E+02 0.  0.
          6    2    1    2  501    0  0.13346745062E+03  0.93896833032E+02  0.13462759635E+02  0.23494024093E+03  0.16847995514E+03 0.  0.
         24    2    5    5    0    0  0.13145786514E+03  0.72607205433E+02  0.62848048979E+02  0.18091910173E+03  0.78923174817E+02 0.  0.
          5    1    5    5  501    0  0.20095854884E+01  0.21289627599E+02 -0.49385289345E+02  0.54021139203E+02  0.47000000000E+01 0. -1.
        -11    1    6    6    0    0  0.13265946431E+03  0.46047112645E+02  0.40392751502E+02  0.14611791275E+03  0.00000000000E+00 0.  1.
         12    1    6    6    0    0 -0.12015991709E+01  0.26560092788E+02  0.22455297477E+02  0.34801188978E+02  0.00000000000E+00 0. -1.
         -5    1    3    3    0  503 -0.95995399792E+02 -0.74093244988E+01 -0.34992408101E+03  0.36295863035E+03  0.47000000000E+01 0.  1.
         11    1    4    4    0    0 -0.32356505992E+02 -0.92963234790E+02 -0.10760078131E+03  0.14583221400E+03  0.00000000000E+00 0. -1.
        -12    1    4    4    0    0 -0.51155448391E+01  0.64757262566E+01 -0.68340350024E+02  0.68836816247E+02  0.00000000000E+00 0.  1.
</event>
<event>
12    1  0.8331241E-002  0.1768846E+03  0.7818608E-02  0.1170964E+00
         21   -1    0    0  503  502  0.00000000000E+00  0.00000000000E+00  0.40912956668E+03  0.40912956668E+03  0.00000000000E+00 0.  1.
         21   -1    0    0  501  503 -0.00000000000E+00 -0.00000000000E+00 -0.16113320150E+03  0.16113320150E+03  0.00000000000E+00 0.  1.
          6    2    1    2  501    0 -0.38687835357E+02 -0.12404478728E+01 -0.82986739093E+02  0.19497890275E+03  0.17213856725E+03 0.  0.
         24    2    3    3    0    0  0.28386872258E+02 -0.43723638327E+02 -0.50972745669E+02  0.10924195827E+03  0.81351174430E+02 0.  0.
         -6    2    1    2    0  502  0.38687835357E+02  0.12404478728E+01  0.33098310427E+03  0.37528386543E+03  0.17259744210E+03 0.  0.
        -24    2    5    5    0    0  0.56429849484E+01 -0.41336757040E+02  0.80944771596E+02  0.11945963216E+03  0.77317377773E+02 0.  0.
          5    1    3    3  501    0 -0.67074707615E+02  0.42483190454E+02 -0.32013993424E+02  0.85736944474E+02  0.47000000000E+01 0. -1.
        -13    1    4    4    0    0  0.19251630895E+02  0.78516418984E+01 -0.52888981794E+02  0.56828848024E+02  0.00000000000E+00 0.  1.
         14    1    4    4    0    0  0.91352413627E+01 -0.51575280225E+02  0.19162361245E+01  0.52413110248E+02  0.00000000000E+00 0. -1.
         -5    1    5    5    0  502  0.33044850409E+02  0.42577204913E+02  0.25003833268E+03  0.25582423326E+03  0.47000000000E+01 0.  1.
         11    1    6    6    0    0 -0.40248066608E+01 -0.54883904314E+02  0.85969618339E+02  0.10207456735E+03  0.00000000000E+00 0. -1.
        -12    1    6    6    0    0  0.96677916091E+01  0.13547147274E+02 -0.50248467431E+01  0.17385064816E+02  0.00000000000E+00 0.  1.
</event>
<event>
12    1  0.8331241E-002  0.1795540E+03  0.7818608E-02  0.1168246E+00
         21   -1    0    0  501  502  0.00000000000E+00  0.00000000000E+00  0.19073115389E+03  0.19073115389E+03  0.00000000000E+00 0.  1.
         21   -1    0    0  502  503 -0.00000000000E+00 -0.00000000000E+00 -0.17479492585E+03  0.17479492585E+03  0.00000000000E+00 0.  1.
         -6    2    1    2    0  503  0.19430606444E+02  0.46120408688E+02  0.41271269111E+02  0.18419347487E+03  0.17239280138E+03 0.  0.
        -24    2    3    3    0    0  0.54550235452E+01 -0.42061379086E+02  0.27415871630E+02  0.93720237662E+02  0.78948945766E+02 0.  0.
          6    2    1    2  501    0 -0.19430606444E+02 -0.46120408688E+02 -0.25335041066E+02  0.18133260486E+03  0.17243842007E+03 0.  0.
         24    2    5    5    0    0  0.32006163560E+02 -0.54567148802E+01 -0.61327319385E+02  0.10638721541E+03  0.80641361941E+02 0.  0.
          5    1    5    5  501    0 -0.51436770004E+02 -0.40663693808E+02  0.35992278319E+02  0.74945389459E+02  0.47000000000E+01 0. -1.
        -11    1    6    6    0    0  0.28259348298E+01 -0.17678692464E+02 -0.71065506288E+02  0.73285934932E+02  0.00000000000E+00 0.  1.
         12    1    6    6    0    0  0.29180228730E+02  0.12221977584E+02  0.97381869032E+01  0.33101280473E+02  0.00000000000E+00 0. -1.
         -5    1    3    3    0  503  0.13975582899E+02  0.88181787775E+02  0.13855397481E+02  0.90473237213E+02  0.47000000000E+01 0.  1.
         13    1    4    4    0    0  0.11909609499E+02  0.11347787283E+02 -0.17221175518E+02  0.23815540322E+02  0.00000000000E+00 0. -1.
        -14    1    4    4    0    0 -0.64545859535E+01 -0.53409166369E+02  0.44637047148E+02  0.69904697339E+02  0.00000000000E+00 0.  1.
</event>
<event>
12    1  0.8331241E-002  0.2271946E+03  0.7818608E-02  0.1129452E+00
         21   -1    0    0  503  502  0.00000000000E+00  0.00000000000E+00  0.12459348030E+03  0.12459348030E+03  0.00000000000E+00 0.  1.
         21   -1    0    0  501  503 -0.00000000000E+00 -0.00000000000E+00 -0.50468050076E+03  0.50468050076E+03  0.00000000000E+00 0.  1.
          6    2    1    2  501    0  0.30602005303E+02  0.14508316802E+03 -0.33068557236E+03  0.40121106936E+03  0.17213879877E+03 0.  0.
         24    2    3    3    0    0  0.11266954615E+02  0.69981409277E+02 -0.29810506025E+03  0.31696323188E+03  0.81084656423E+02 0.  0.
         -6    2    1    2    0  502 -0.30602005303E+02 -0.14508316802E+03 -0.49401448099E+02  0.22806291170E+03  0.16609208364E+03 0.  0.
        -24    2    5    5    0    0  0.24425061476E+02 -0.49289409919E+02 -0.64547667692E+02  0.11645681806E+03  0.79810773147E+02 0.  0.
          5    1    3    3  501    0  0.19335050688E+02  0.75101758740E+02 -0.32580512111E+02  0.84247837482E+02  0.47000000000E+01 0. -1.
        -11    1    4    4    0    0  0.53728214531E+01  0.87773980469E+02 -0.22725966463E+03  0.24368031112E+03  0.00000000000E+00 0.  1.
         12    1    4    4    0    0  0.58941331618E+01 -0.17792571192E+02 -0.70845395614E+02  0.73282920759E+02  0.00000000000E+00 0. -1.
         -5    1    5    5    0  502 -0.55027066779E+02 -0.95793758098E+02  0.15146219592E+02  0.11160609364E+03  0.47000000000E+01 0.  1.
         13    1    6    6    0    0  0.89293544856E+01 -0.26612385804E+02 -0.80112110621E+02  0.84887588715E+02  0.00000000000E+00 0. -1.
        -14    1    6    6    0    0  0.15495706991E+02 -0.22677024115E+02  0.15564442929E+02  0.31569229346E+02  0.00000000000E+00 0.  1.
</event>
<event>
12    1  0.8331241E-002  0.2249547E+03  0.7818608E-02  0.1130670E+00
         21   -1    0    0  501  502  0.00000000000E+00  0.00000000000E+00  0.48448523148E+03  0.48448523148E+03  0.00000000000E+00 0. -1.
         21   -1    0    0  502  503 -0.00000000000E+00 -0.00000000000E+00 -0.17175368411E+03  0.17175368411E+03  0.00000000000E+00 0. -1.
         -6    2    1    2    0  503  0.23476097005E+02 -0.14117294097E+03 -0.50191153264E+02  0.23048594992E+03  0.17356178973E+03 0.  0.
        -24    2    3    3    0    0 -0.41325826271E+02 -0.12638578464E+03 -0.52363980642E+02  0.16381691340E+03  0.80079986085E+02 0.  0.
          6    2    1    2  501    0 -0.23476097005E+02  0.14117294097E+03  0.36292270063E+03  0.42575296566E+03  0.17050447134E+03 0.  0.
         24    2    5    5    0    0 -0.22749419305E+02  0.34528901895E+02  0.70300407433E+02  0.11426721060E+03  0.80031662412E+02 0.  0.
          5    1    5    5  501    0 -0.72667769932E+00  0.10664403907E+03  0.29262229320E+03  0.31148575506E+03  0.47000000000E+01 0. -1.
        -11    1    6    6    0    0 -0.48455792041E+02  0.28181620506E+02  0.67349483194E+02  0.87624884611E+02  0.00000000000E+00 0.  1.
         12    1    6    6    0    0  0.25706372736E+02  0.63472813887E+01  0.29509242390E+01  0.26642325989E+02  0.00000000000E+00 0. -1.
         -5    1    3    3    0  503  0.64801923276E+02 -0.14787156331E+02  0.21728273775E+01  0.66669036527E+02  0.47000000000E+01 0.  1.
         11    1    4    4    0    0 -0.86939926145E+01 -0.11987541572E+03 -0.30493901401E+02  0.12399830170E+03  0.00000000000E+00 0. -1.
        -12    1    4    4    0    0 -0.32631833657E+02 -0.65103689107E+01 -0.21870079241E+02  0.39818611693E+02  0.00000000000E+00 0.  1.
</event>
<event>
12    1  0.8331241E-002  0.2014288E+03  0.7818608E-02  0.1148613E+00
         21   -1    0    0  501  502  0.00000000000E+00  0.00000000000E+00  0.23739182651E+03  0.23739182651E+03  0.00000000000E+00 0.  1.
         21   -1    0    0  502  503 -0.00000000000E+00 -0.00000000000E+00 -0.31828573269E+03  0.31828573269E+03  0.00000000000E+00 0. -1.
         -6    2    1    2    0  503  0.20514002478E+02 -0.10331947486E+03 -0.22971558591E+03  0.30552054794E+03  0.17169104992E+03 0.  0.
        -24    2    3    3    0    0 -0.50839176779E+02 -0.51781753494E+02 -0.15693738178E+03  0.19121319950E+03  0.81652764616E+02 0.  0.
          6    2    1    2  501    0 -0.20514002478E+02  0.10331947486E+03  0.14882167973E+03  0.25015701126E+03  0.17127434058E+03 0.  0.
         24    2    5    5    0    0 -0.51420363868E+02  0.26190849752E+02  0.95027526464E+02  0.15106145681E+03  0.10227080970E+03 0.  0.
          5    1    5    5  501    0  0.30906361389E+02  0.77128625108E+02  0.53794153268E+02  0.99095554447E+02  0.47000000000E+01 0. -1.
        -11    1    6    6    0    0  0.31351320255E+02  0.85143314218E+01  0.21608695240E+02  0.39017109468E+02  0.00000000000E+00 0.  1.
         12    1    6    6    0    0 -0.82771684123E+02  0.17676518330E+02  0.73418831224E+02  0.11204434734E+03  0.00000000000E+00 0. -1.
         -5    1    3    3    0  503  0.71353179258E+02 -0.51537721365E+02 -0.72778204121E+02  0.11430734845E+03  0.47000000000E+01 0.  1.
         11    1    4    4    0    0 -0.58961807212E+01 -0.42989237500E+02 -0.21866029150E+02  0.48589738821E+02  0.00000000000E+00 0. -1.
        -12    1    4    4    0    0 -0.44942996058E+02 -0.87925159946E+01 -0.13507135264E+03  0.14262346068E+03  0.00000000000E+00 0.  1.
</event>
<event>
12    1  0.8331241E-002  0.2967770E+03  0.7818608E-02  0.1087206E+00
         21   -1    0    0  501  502  0.00000000000E+00  0.00000000000E+00  0.95483715425E+03  0.95483715425E+03  0.00000000000E+00 0.  1.
         21   -1    0    0  502  503 -0.00000000000E+00 -0.00000000000E+00 -0.20480978902E+03  0.20480978902E+03  0.00000000000E+00 0. -1.
         -6    2    1    2    0  503  0.23817526375E+03 -0.41511105434E+02 -0.57200656058E+02  0.29959249904E+03  0.16743094783E+03 0.  0.
        -24    2    3    3    0    0  0.19459406463E+03 -0.29472548544E+02  0.15703127373E+02  0.21367801012E+03  0.81708155594E+02 0.  0.
          6    2    1    2  501    0 -0.23817526375E+03  0.41511105434E+02  0.80722802128E+03  0.86005444423E+03  0.17212187704E+03 0.  0.
         24    2    5    5    0    0 -0.21341313200E+03  0.84658113874E+02  0.71060209090E+03  0.75127260784E+03  0.82116006599E+02 0.  0.
          5    1    5    5  501    0 -0.24762131745E+02 -0.43147008440E+02  0.96625930385E+02  0.10878183639E+03  0.47000000000E+01 0. -1.
        -13    1    6    6    0    0 -0.16053560637E+03  0.25101253543E+02  0.51687621640E+03  0.54181433805E+03  0.00000000000E+00 0.  1.
         14    1    6    6    0    0 -0.52877525632E+02  0.59556860331E+02  0.19372587450E+03  0.20945826978E+03  0.00000000000E+00 0. -1.
         -5    1    3    3    0  503  0.43581199115E+02 -0.12038556890E+02 -0.72903783431E+02  0.85914488923E+02  0.47000000000E+01 0.  1.
         13    1    4    4    0    0  0.48462974961E+02  0.52034312807E+01 -0.29326513814E+02  0.56883917337E+02  0.00000000000E+00 0. -1.
        -14    1    4    4    0    0  0.14613108967E+03 -0.34675979825E+02  0.45029641186E+02  0.15679409278E+03  0.00000000000E+00 0.  1.
</event>
<event>
12    1  0.8331241E-002  0.1792702E+03  0.7818608E-02  0.1168933E+00
         21   -1    0    0  503  502  0.00000000000E+00  0.00000000000E+00  0.68181430950E+02  0.68181430950E+02  0.00000000000E+00 0.  1.
         21   -1    0    0  501  503 -0.00000000000E+00 -0.00000000000E+00 -0.51704709205E+03  0.51704709205E+03  0.00000000000E+00 0.  1.
          6    2    1    2  501    0  0.30140161359E+02  0.31218018087E+02 -0.31464069152E+03  0.36127734516E+03  0.17216143988E+03 0.  0.
         24    2    3    3    0    0 -0.48648111108E+01 -0.51710622315E+02 -0.15821786964E+03  0.18074287005E+03  0.70266890874E+02 0.  0.
         -6    2    1    2    0  502 -0.30140161359E+02 -0.31218018087E+02 -0.13422496958E+03  0.22395117784E+03  0.17393905145E+03 0.  0.
        -24    2    5    5    0    0  0.35576629587E+02 -0.60611032202E+02 -0.77833216017E+02  0.13238281125E+03  0.80794835236E+02 0.  0.
          5    1    3    3  501    0  0.35004972470E+02  0.82928640403E+02 -0.15642282188E+03  0.18053447510E+03  0.47000000000E+01 0. -1.
        -11    1    4    4    0    0 -0.11181650155E+02  0.49117046585E+00 -0.10616542242E+03  0.10675377027E+03  0.00000000000E+00 0.  1.
         12    1    4    4    0    0  0.63168390446E+01 -0.52201792781E+02 -0.52052447221E+02  0.73989099784E+02  0.00000000000E+00 0. -1.
         -5    1    5    5    0  502 -0.65716790946E+02  0.29393014115E+02 -0.56391753560E+02  0.91568366593E+02  0.47000000000E+01 0.  1.
         13    1    6    6    0    0  0.58538308959E+01 -0.54266251257E+00 -0.63596403036E+02  0.63867552779E+02  0.00000000000E+00 0. -1.
        -14    1    6    6    0    0  0.29722798691E+02 -0.60068369690E+02 -0.14236812980E+02  0.68515258469E+02  0.00000000000E+00 0.  1.
</event>
<event>
12    1  0.8331241E-002  0.2231556E+03  0.7818608E-02  0.1131571E+00
         21   -1    0    0  501  502  0.00000000000E+00  0.00000000000E+00  0.53645754219E+02  0.53645754219E+02  0.00000000000E+00 0.  1.
         21   -1    0    0  502  503 -0.00000000000E+00 -0.00000000000E+00 -0.10576138335E+04  0.10576138335E+04  0.00000000000E+00 0.  1.
         -6    2    1    2    0  503 -0.15003008109E+02  0.14150838572E+03 -0.69670874942E+03  0.73157467801E+03  0.17189739530E+03 0.  0.
        -24    2    3    3    0    0 -0.62002996370E+01  0.14488145444E+03 -0.70154695844E+03  0.71998314940E+03  0.71961941139E+02 0.  0.
          6    2    1    2  501    0  0.15003008109E+02 -0.14150838572E+03 -0.30725932988E+03  0.37968490973E+03  0.17176327138E+03 0.  0.
         24    2    5    5    0    0  0.19988743008E+02 -0.16531291723E+03 -0.21105547371E+03  0.28034315006E+03  0.79498165688E+02 0.  0.
          5    1    5    5  501    0 -0.49857348998E+01  0.23804531514E+02 -0.96203856166E+02  0.99341759670E+02  0.47000000000E+01 0. -1.
        -13    1    6    6    0    0  0.93602846869E+01 -0.12101564990E+03 -0.19920865343E+03  0.23327342337E+03  0.00000000000E+00 0.  1.
         14    1    6    6    0    0  0.10628458322E+02 -0.44297267330E+02 -0.11846820284E+02  0.47069726683E+02  0.00000000000E+00 0. -1.
         -5    1    3    3    0  503 -0.88027084717E+01 -0.33730687220E+01  0.48382090182E+01  0.11591528611E+02  0.47000000000E+01 0.  1.
         11    1    4    4    0    0  0.30476183270E+01 -0.75432550469E+01 -0.57945149291E+02  0.58513494175E+02  0.00000000000E+00 0. -1.
        -12    1    4    4    0    0 -0.92479179640E+01  0.15242470949E+03 -0.64360180915E+03  0.66146965523E+03  0.00000000000E+00 0.  1.
</event>
<event>
12    1  0.8331241E-002  0.2036502E+03  0.7818608E-02  0.1146741E+00
         21   -1    0    0  503  502  0.00000000000E+00  0.00000000000E+00  0.49987139112E+03  0.49987139112E+03  0.00000000000E+00 0. -1.
         21   -1    0    0  501  503 -0.00000000000E+00 -0.00000000000E+00 -0.12671078691E+03  0.12671078691E+03  0.00000000000E+00 0.  1.
          6    2    1    2  501    0  0.92956587324E+02 -0.55790104144E+02  0.22502249877E+01  0.20344164400E+03  0.17213359972E+03 0.  0.
         24    2    3    3    0    0 -0.25131286767E+01 -0.57996489865E+02  0.32223108731E+02  0.10324284874E+03  0.79062307249E+02 0.  0.
         -6    2    1    2    0  502 -0.92956587324E+02  0.55790104144E+02  0.37091037923E+03  0.42314053403E+03  0.17239471939E+03 0.  0.
        -24    2    5    5    0    0 -0.10647783711E+03  0.48540873738E+02  0.37943310819E+03  0.40497181239E+03  0.79617454272E+02 0.  0.
          5    1    3    3  501    0  0.95469716001E+02  0.22063857208E+01 -0.29972883743E+02  0.10019879526E+03  0.47000000000E+01 0. -1.
        -13    1    4    4    0    0 -0.25065078720E+02 -0.35314151584E+02 -0.15325486089E+02  0.45937109152E+02  0.00000000000E+00 0.  1.
         14    1    4    4    0    0  0.22551950043E+02 -0.22682338280E+02  0.47548594820E+02  0.57305739590E+02  0.00000000000E+00 0. -1.
         -5    1    5    5    0  502  0.13521249786E+02  0.72492304061E+01 -0.85227289543E+01  0.18168721641E+02  0.47000000000E+01 0.  1.
         11    1    6    6    0    0 -0.64790713629E+02 -0.13552254835E+02  0.19612254435E+03  0.20699167275E+03  0.00000000000E+00 0. -1.
        -12    1    6    6    0    0 -0.41687123481E+02  0.62093128573E+02  0.18331056383E+03  0.19798013964E+03  0.00000000000E+00 0.  1.
</event>
<event>
12    1  0.8331241E-002  0.2528661E+03  0.7818608E-02  0.1111547E+00
         21   -1    0    0  501  502  0.00000000000E+00  0.00000000000E+00  0.20177869878E+03  0.20177869878E+03  0.00000000000E+00 0. -1.
         21   -1    0    0  502  503 -0.00000000000E+00 -0.00000000000E+00 -0.31671736185E+03  0.31671736185E+03  0.00000000000E+00 0. -1.
         -6    2    1    2    0  503 -0.17205779378E+03 -0.70431423349E+02 -0.63123789358E+02  0.26037588505E+03  0.17101613649E+03 0.  0.
        -24    2    3    3    0    0 -0.12144954319E+03 -0.99884695587E+02 -0.43614069912E+01  0.17728678917E+03  0.81759646466E+02 0.  0.
          6    2    1    2  501    0  0.17205779378E+03  0.70431423349E+02 -0.51814873711E+02  0.25812017557E+03  0.17139654053E+03 0.  0.
         24    2    5    5    0    0  0.15791521684E+03  0.49529004088E+02 -0.95861885443E+02  0.20713828804E+03  0.79538866831E+02 0.  0.
          5    1    5    5  501    0  0.14142576934E+02  0.20902419261E+02  0.44047011732E+02  0.50981887527E+02  0.47000000000E+01 0. -1.
        -13    1    6    6    0    0  0.58716354987E+02  0.55898227777E+02 -0.62230090311E+02  0.10219983538E+03  0.00000000000E+00 0.  1.
         14    1    6    6    0    0  0.99198861855E+02 -0.63692236889E+01 -0.33631795132E+02  0.10493845266E+03  0.00000000000E+00 0. -1.
         -5    1    3    3    0  503 -0.50608250583E+02  0.29453272238E+02 -0.58762382367E+02  0.83089095879E+02  0.47000000000E+01 0.  1.
         13    1    4    4    0    0 -0.85926889368E+02 -0.39136753310E+02 -0.34780395077E+02  0.10062202372E+03  0.00000000000E+00 0. -1.
        -14    1    4    4    0    0 -0.35522653825E+02 -0.60747942277E+02  0.30418988086E+02  0.76664765452E+02  0.00000000000E+00 0.  1.
</event>
<event>
12    1  0.8331241E-002  0.1809264E+03  0.7818608E-02  0.1167387E+00
         21   -1    0    0  501  502  0.00000000000E+00  0.00000000000E+00  0.70311186384E+02  0.70311186384E+02  0.00000000000E+00 0.  1.
         21   -1    0    0  502  503 -0.00000000000E+00 -0.00000000000E+00 -0.77228176345E+03  0.77228176345E+03  0.00000000000E+00 0.  1.
         -6    2    1    2    0  503  0.23236475236E+02  0.49538111754E+02 -0.61982032116E+03  0.64568691467E+03  0.17245406044E+03 0.  0.
        -24    2    3    3    0    0  0.60742411722E+02 -0.18473282887E+02 -0.36602170882E+03  0.38022868689E+03  0.81062076488E+02 0.  0.
          6    2    1    2  501    0 -0.23236475236E+02 -0.49538111754E+02 -0.82150255914E+02  0.19690603517E+03  0.17038005705E+03 0.  0.
         24    2    5    5    0    0  0.44094606969E+02 -0.60749355276E+02 -0.41933948799E+02  0.11754226528E+03  0.80143056691E+02 0.  0.
          5    1    5    5  501    0 -0.67331082205E+02  0.11211243523E+02 -0.40216307115E+02  0.79363769884E+02  0.47000000000E+01 0. -1.
        -11    1    6    6    0    0  0.14567097037E+02 -0.62948390232E+02 -0.55309544123E+02  0.85052018318E+02  0.00000000000E+00 0.  1.
         12    1    6    6    0    0  0.29527509932E+02  0.21990349562E+01  0.13375595324E+02  0.32490246964E+02  0.00000000000E+00 0. -1.
         -5    1    3    3    0  503 -0.37505936485E+02  0.68011394641E+02 -0.25379861234E+03  0.26545822778E+03  0.47000000000E+01 0.  1.
         11    1    4    4    0    0  0.23802875039E+01 -0.38455051205E+02 -0.18546673155E+03  0.18942641116E+03  0.00000000000E+00 0. -1.
        -12    1    4    4    0    0  0.58362124218E+02  0.19981768317E+02 -0.18055497727E+03  0.19080227573E+03  0.00000000000E+00 0.  1.
</event>
<event>
12    1  0.8331241E-002  0.1892882E+03  0.7818608E-02  0.1159500E+00
         21   -1    0    0  503  502  0.00000000000E+00  0.00000000000E+00  0.11447463586E+03  0.11447463586E+03  0.00000000000E+00 0. -1.
         21   -1    0    0  501  503 -0.00000000000E+00 -0.00000000000E+00 -0.32279711716E+03  0.32279711716E+03  0.00000000000E+00 0.  1.
          6    2    1    2  501    0 -0.35461829637E+02  0.70231857355E+02 -0.14701067801E+03  0.23830151513E+03  0.17025104263E+03 0.  0.
         24    2    3    3    0    0 -0.68546303706E+00  0.57624158531E+02 -0.16892390753E+03  0.19505074206E+03  0.78666968516E+02 0.  0.
         -6    2    1    2    0  502  0.35461829637E+02 -0.70231857355E+02 -0.61311803290E+02  0.19897023788E+03  0.17216260684E+03 0.  0.
        -24    2    5    5    0    0  0.59931001945E+02 -0.35535626487E+02  0.24875745017E+02  0.10277797046E+03  0.71344255389E+02 0.  0.
          5    1    3    3  501    0 -0.34776366600E+02  0.12607698824E+02  0.21913229523E+02  0.43250773076E+02  0.47000000000E+01 0. -1.
        -11    1    4    4    0    0  0.20906349806E+02  0.22782203593E+02 -0.14355081585E+03  0.14684325315E+03  0.00000000000E+00 0.  1.
         12    1    4    4    0    0 -0.21591812843E+02  0.34841954939E+02 -0.25373091681E+02  0.48207488912E+02  0.00000000000E+00 0. -1.
         -5    1    5    5    0  502 -0.24469172308E+02 -0.34696230869E+02 -0.86187548306E+02  0.96192267428E+02  0.47000000000E+01 0.  1.
         11    1    6    6    0    0  0.17676561488E+01 -0.32732895122E+02  0.29850124502E+02  0.44335053447E+02  0.00000000000E+00 0. -1.
        -12    1    6    6    0    0  0.58163345796E+02 -0.28027313644E+01 -0.49743794854E+01  0.58442917009E+02  0.00000000000E+00 0.  1.
</event>
<event>
12    1  0.8331241E-002  0.2446899E+03  0.7818608E-02  0.1116995E+00
         21   -1    0    0  503  502  0.00000000000E+00  0.00000000000E+00  0.51413761656E+03  0.51413761656E+03  0.00000000000E+00 0. -1.
         21   -1    0    0  501  503 -0.00000000000E+00 -0.00000000000E+00 -0.13103672722E+03  0.13103672722E+03  0.00000000000E+00 0.  1.
          6    2    1    2  501    0  0.11970678985E+02  0.17066409158E+03  0.30160229524E+03  0.38726901885E+03  0.17246396481E+03 0.  0.
         24    2    3    3    0    0 -0.22028708392E+02  0.13494962225E+03  0.11861879540E+03  0.19769968358E+03  0.79486361888E+02 0.  0.
         -6    2    1    2    0  502 -0.11970678985E+02 -0.17066409158E+03  0.81498594096E+02  0.25790532493E+03  0.17493886498E+03 0.  0.
        -24    2    5    5    0    0 -0.55584168496E+02 -0.14930505238E+03  0.20488108566E+02  0.17978545315E+03  0.80755483513E+02 0.  0.
          5    1    3    3  501    0  0.33999387377E+02  0.35714469324E+02  0.18298349985E+03  0.18956933528E+03  0.47000000000E+01 0. -1.
        -11    1    4    4    0    0  0.26945425368E+02  0.79893695160E+02  0.67716949718E+02  0.10814177617E+03  0.00000000000E+00 0.  1.
         12    1    4    4    0    0 -0.48974133760E+02  0.55055927091E+02  0.50901845679E+02  0.89557907406E+02  0.00000000000E+00 0. -1.
         -5    1    5    5    0  502  0.43613489512E+02 -0.21359039193E+02  0.61010485530E+02  0.78119871782E+02  0.47000000000E+01 0.  1.
         11    1    6    6    0    0  0.20203920104E+02 -0.47836273810E+02  0.76482963255E+01  0.52488131195E+02  0.00000000000E+00 0. -1.
        -12    1    6    6    0    0 -0.75788088600E+02 -0.10146877857E+03  0.12839812241E+02  0.12729732196E+03  0.00000000000E+00 0.  1.
</event>
<event>
12    1  0.8331241E-002  0.3140177E+03  0.7818608E-02  0.1079038E+00
         21   -1    0    0  503  502  0.00000000000E+00  0.00000000000E+00  0.68865086782E+03  0.68865086782E+03  0.00000000000E+00 0. -1.
         21   -1    0    0  501  503 -0.00000000000E+00 -0.00000000000E+00 -0.16749269550E+03  0.16749269550E+03  0.00000000000E+00 0.  1.
          6    2    1    2  501    0 -0.43587800671E+02  0.25255098261E+03  0.88201299190E+02  0.32129895724E+03  0.17254464802E+03 0.  0.
         24    2    3    3    0    0  0.21669093142E+02  0.18764625646E+03  0.10097442405E+03  0.22825956567E+03  0.78904548944E+02 0.  0.
         -6    2    1    2    0  502  0.43587800671E+02 -0.25255098261E+03  0.43295687312E+03  0.53484460608E+03  0.18145303383E+03 0.  0.
        -24    2    5    5    0    0  0.42905235214E+02 -0.40517813945E+02  0.10077379836E+03  0.14073013582E+03  0.78530632474E+02 0.  0.
          5    1    3    3  501    0 -0.65256893813E+02  0.64904726143E+02 -0.12773124858E+02  0.93039391574E+02  0.47000000000E+01 0. -1.
        -11    1    4    4    0    0 -0.18202809809E+01  0.16892873298E+02 -0.13197478893E+02  0.21514089342E+02  0.00000000000E+00 0.  1.
         12    1    4    4    0    0  0.23489374123E+02  0.17075338317E+03  0.11417190294E+03  0.20674547632E+03  0.00000000000E+00 0. -1.
         -5    1    5    5    0  502  0.68256545710E+00 -0.21203316866E+03  0.33218307476E+03  0.39411447026E+03  0.47000000000E+01 0.  1.
         13    1    6    6    0    0  0.28874618661E+02 -0.46003201062E+02  0.11027095537E+03  0.12292160798E+03  0.00000000000E+00 0. -1.
        -14    1    6    6    0    0  0.14030616553E+02  0.54853871173E+01 -0.94971570064E+01  0.17808527842E+02  0.00000000000E+00 0.  1.
</event>
<event>
12    1  0.8331241E-002  0.2204097E+03  0.7818608E-02  0.1133619E+00
         21   -1    0    0  501  502  0.00000000000E+00  0.00000000000E+00  0.31483895984E+03  0.31483895984E+03  0.00000000000E+00 0. -1.
         21   -1    0    0  502  503 -0.00000000000E+00 -0.00000000000E+00 -0.35839511928E+03  0.35839511928E+03  0.00000000000E+00 0.  1.
         -6    2    1    2    0  503 -0.44201002556E+02  0.13032241680E+03 -0.27589883076E+03  0.35312970619E+03  0.17217073976E+03 0.  0.
        -24    2    3    3    0    0 -0.34321939155E+02  0.96153276166E+02 -0.28721899445E+03  0.31550840675E+03  0.81408574062E+02 0.  0.
          6    2    1    2  501    0  0.44201002556E+02 -0.13032241680E+03  0.23234267133E+03  0.32010437293E+03  0.17188959160E+03 0.  0.
         24    2    5    5    0    0  0.54496057426E+00 -0.16722402517E+02  0.15877137958E+03  0.17781720479E+03  0.78298605469E+02 0.  0.
          5    1    5    5  501    0  0.43656041982E+02 -0.11360001428E+03  0.73571291746E+02  0.14228716813E+03  0.47000000000E+01 0. -1.
        -11    1    6    6    0    0 -0.33683050617E+02 -0.37439305239E+01  0.34888659024E+02  0.48639319929E+02  0.00000000000E+00 0.  1.
         12    1    6    6    0    0  0.34228011191E+02 -0.12978471993E+02  0.12388272056E+03  0.12917788486E+03  0.00000000000E+00 0. -1.
         -5    1    3    3    0  503 -0.98790634010E+01  0.34169140633E+02  0.11320163692E+02  0.37621299437E+02  0.47000000000E+01 0.  1.
         11    1    4    4    0    0  0.20441878345E+02  0.87847699702E+00 -0.38670853728E+02  0.43750166173E+02  0.00000000000E+00 0. -1.
        -12    1    4    4    0    0 -0.54763817500E+02  0.95274799169E+02 -0.24854814073E+03  0.27175824058E+03  0.00000000000E+00 0.  1.
</event>
<event>
12    1  0.8331241E-002  0.2295414E+03  0.7818608E-02  0.1127717E+00
         21   -1    0    0  503  502  0.00000000000E+00  0.00000000000E+00  0.93674552447E+03  0.93674552447E+03  0.00000000000E+00 0.  1.
         21   -1    0    0  501  503 -0.00000000000E+00 -0.00000000000E+00 -0.56326413169E+02  0.56326413169E+02  0.00000000000E+00 0. -1.
          6    2    1    2  501    0  0.31817716080E+02 -0.14661396348E+03  0.37445951902E+03  0.43921428303E+03  0.17372746959E+03 0.  0.
         24    2    3    3    0    0  0.50330414176E+02 -0.14645943024E+03  0.38112631566E+03  0.41898361204E+03  0.79413370237E+02 0.  0.
         -6    2    1    2    0  502 -0.31817716080E+02  0.14661396348E+03  0.50595959228E+03  0.55385765461E+03  0.16809274583E+03 0.  0.
        -24    2    5    5    0    0 -0.28864889109E+02  0.45956316885E+02  0.37216193656E+03  0.38633277980E+03  0.88336543024E+02 0.  0.
          5    1    3    3  501    0 -0.18512698096E+02 -0.15453323875E+00 -0.66667966413E+01  0.20230670991E+02  0.47000000000E+01 0. -1.
        -11    1    4    4    0    0  0.26088928867E+02 -0.30962124756E+02  0.19072240129E+03  0.19497261278E+03  0.00000000000E+00 0.  1.
         12    1    4    4    0    0  0.24241485309E+02 -0.11549730548E+03  0.19040391437E+03  0.22401099927E+03  0.00000000000E+00 0. -1.
         -5    1    5    5    0  502 -0.29528269709E+01  0.10065764659E+03  0.13379765572E+03  0.16752487481E+03  0.47000000000E+01 0.  1.
         13    1    6    6    0    0 -0.56313771539E+02  0.30554507022E+02  0.16880600844E+03  0.18055549632E+03  0.00000000000E+00 0. -1.
        -14    1    6    6    0    0  0.27448882430E+02  0.15401809864E+02  0.20335592812E+03  0.20577728348E+03  0.00000000000E+00 0.  1.
</event>
<event>
12    1  0.8331241E-002  0.1902965E+03  0.7818608E-02  0.1158461E+00
         21   -1    0    0  501  502  0.00000000000E+00  0.00000000000E+00  0.62363952912E+03  0.62363952912E+03  0.00000000000E+00 0.  1.
         21   -1    0    0  502  503 -0.00000000000E+00 -0.00000000000E+00 -0.86493668424E+02  0.86493668424E+02  0.00000000000E+00 0.  1.
         -6    2    1    2    0  503  0.50968504567E+02  0.64480553374E+02  0.63174254670E+02  0.19938685648E+03  0.17031911772E+03 0.  0.
        -24    2    3    3    0    0  0.44007962599E+02  0.87117261504E+02  0.89569731232E+02  0.16361422892E+03  0.96024794335E+02 0.  0.
          6    2    1    2  501    0 -0.50968504567E+02 -0.64480553374E+02  0.47397160602E+03  0.51074634106E+03  0.17163103267E+03 0.  0.
         24    2    5    5    0    0 -0.86443656296E+02 -0.33087465935E+02  0.42540998591E+03  0.44274389054E+03  0.80505964888E+02 0.  0.
          5    1    5    5  501    0  0.35475151729E+02 -0.31393087439E+02  0.48561620107E+02  0.68002450519E+02  0.47000000000E+01 0. -1.
        -11    1    6    6    0    0  0.83065917828E+01 -0.21008296509E+02  0.42855937416E+02  0.48445633044E+02  0.00000000000E+00 0.  1.
         12    1    6    6    0    0 -0.94750248079E+02 -0.12079169426E+02  0.38255404850E+03  0.39429825750E+03  0.00000000000E+00 0. -1.
         -5    1    3    3    0  503  0.69605419681E+01 -0.22636708131E+02 -0.26395476563E+02  0.35772627559E+02  0.47000000000E+01 0.  1.
         13    1    4    4    0    0  0.33667258381E+02  0.15942987494E+02  0.83505381420E+02  0.91437475158E+02  0.00000000000E+00 0. -1.
        -14    1    4    4    0    0  0.10340704218E+02  0.71174274010E+02  0.60643498121E+01  0.72176753759E+02  0.00000000000E+00 0.  1.
</event>
<event>
12    1  0.8331241E-002  0.2438879E+03  0.7818608E-02  0.1117762E+00
         21   -1    0    0  501  502  0.00000000000E+00  0.00000000000E+00  0.74750682267E+03  0.74750682267E+03  0.00000000000E+00 0.  1.
         21   -1    0    0  502  503 -0.00000000000E+00 -0.00000000000E+00 -0.79035625560E+02  0.79035625560E+02  0.00000000000E+00 0.  1.
         -6    2    1    2    0  503  0.11304649986E+03 -0.12947722473E+03  0.29858965633E+03  0.38349206267E+03  0.16842362187E+03 0.  0.
        -24    2    3    3    0    0  0.10869378753E+03 -0.26858590444E+02  0.18492958471E+03  0.23022682822E+03  0.79181549643E+02 0.  0.
          6    2    1    2  501    0 -0.11304649986E+03  0.12947722473E+03  0.36988154078E+03  0.44305038557E+03  0.17302435403E+03 0.  0.
         24    2    5    5    0    0 -0.78669378938E+02  0.65226638218E+02  0.33838536087E+03  0.36352665541E+03  0.84873972574E+02 0.  0.
          5    1    5    5  501    0 -0.34377120918E+02  0.64250586515E+02  0.31496179907E+02  0.79523730162E+02  0.47000000000E+01 0. -1.
        -13    1    6    6    0    0 -0.11213897570E+02  0.19637974441E+02  0.21190161520E+03  0.21310489451E+03  0.00000000000E+00 0.  1.
         14    1    6    6    0    0 -0.67455481367E+02  0.45588663777E+02  0.12648374567E+03  0.15042176089E+03  0.00000000000E+00 0. -1.
         -5    1    3    3    0  503  0.43527123265E+01 -0.10261863429E+03  0.11366007162E+03  0.15326523444E+03  0.47000000000E+01 0.  1.
         11    1    4    4    0    0  0.82645322557E+02  0.11595244541E+00  0.66731766805E+02  0.10622330952E+03  0.00000000000E+00 0. -1.
        -12    1    4    4    0    0  0.26048464973E+02 -0.26974542889E+02  0.11819781791E+03  0.12400351870E+03  0.00000000000E+00 0.  1.
</event>
<event>
12    1  0.8331241E-002  0.2379326E+03  0.7818608E-02  0.1121199E+00
         21   -1    0    0  503  502  0.00000000000E+00  0.00000000000E+00  0.45691728716E+03  0.45691728716E+03  0.00000000000E+00 0.  1.
         21   -1    0    0  501  503 -0.00000000000E+00 -0.00000000000E+00 -0.13049097767E+03  0.13049097767E+03  0.00000000000E+00 0.  1.
          6    2    1    2  501    0 -0.16076641545E+03 -0.31119360121E+02  0.96828292378E+02  0.25676165895E+03  0.17244296561E+03 0.  0.
         24    2    3    3    0    0 -0.42855674618E+02 -0.51870635887E+02  0.33780759302E+01  0.10481235423E+03  0.80293502155E+02 0.  0.
         -6    2    1    2    0  502  0.16076641545E+03  0.31119360121E+02  0.22959801711E+03  0.33064660588E+03  0.17262002667E+03 0.  0.
        -24    2    5    5    0    0  0.26111049190E+02  0.54816632890E+02  0.10681344379E+03  0.14682122720E+03  0.80378547217E+02 0.  0.
          5    1    3    3  501    0 -0.11791074083E+03  0.20751275766E+02  0.93450216448E+02  0.15194930471E+03  0.47000000000E+01 0. -1.
        -11    1    4    4    0    0 -0.54047738939E+02 -0.37252509524E+01 -0.59805051001E+01  0.54505064172E+02  0.00000000000E+00 0.  1.
         12    1    4    4    0    0  0.11192064321E+02 -0.48145384934E+02  0.93585810303E+01  0.50307290060E+02  0.00000000000E+00 0. -1.
         -5    1    5    5    0  502  0.13465536626E+03 -0.23697272769E+02  0.12278457333E+03  0.18382537868E+03  0.47000000000E+01 0.  1.
         13    1    6    6    0    0  0.22737908801E+02  0.32702803066E+02  0.22526754243E+01  0.39894365161E+02  0.00000000000E+00 0. -1.
        -14    1    6    6    0    0  0.33731403886E+01  0.22113829823E+02  0.10456076836E+03  0.10692686204E+03  0.00000000000E+00 0.  1.
</event>
<event>
12    1  0.8331241E-002  0.2005505E+03  0.7818608E-02  0.1149518E+00
         21   -1    0    0  503  502  0.00000000000E+00  0.00000000000E+00  0.37417853762E+03  0.37417853762E+03  0.00000000000E+00 0.  1.
         21   -1    0    0  501  503 -0.00000000000E+00 -0.00000000000E+00 -0.21744117741E+03  0.21744117741E+03  0.00000000000E+00 0.  1.
          6    2    1    2  501    0  0.11107352048E+02  0.10069125947E+03 -0.13245742091E+03  0.24034451531E+03  0.17308499265E+03 0.  0.
         24    2    3    3    0    0  0.27578504116E+01 -0.17914636107E+02 -0.45363528206E+02  0.92884321394E+02  0.79000680655E+02 0.  0.
         -6    2    1    2    0  502 -0.11107352048E+02 -0.10069125947E+03  0.28919478112E+03  0.35127519973E+03  0.17175139450E+03 0.  0.
        -24    2    5    5    0    0 -0.20143698974E+02 -0.13771723485E+03  0.22059386939E+03  0.27265743132E+03  0.79426785523E+02 0.  0.
          5    1    3    3  501    0  0.83495016367E+01  0.11860589557E+03 -0.87093892708E+02  0.14746019391E+03  0.47000000000E+01 0. -1.
        -11    1    4    4    0    0 -0.31538698490E+02  0.40114367411E-01  0.21320464581E+01  0.31610705998E+02  0.00000000000E+00 0.  1.
         12    1    4    4    0    0  0.34296548901E+02 -0.17954750474E+02 -0.47495574664E+02  0.61273615397E+02  0.00000000000E+00 0. -1.
         -5    1    5    5    0  502  0.90363469252E+01  0.37025975385E+02  0.68600911733E+02  0.78617768408E+02  0.47000000000E+01 0.  1.
         13    1    6    6    0    0  0.23596730351E+02 -0.14242680316E+02  0.24751238510E+02  0.37044344152E+02  0.00000000000E+00 0. -1.
        -14    1    6    6    0    0 -0.43740429325E+02 -0.12347455453E+03  0.19584263088E+03  0.23561308717E+03  0.00000000000E+00 0.  1.
</event>
<event>
12    1  0.8331241E-002  0.1780825E+03  0.7818608E-02  0.1171314E+00
         21   -1    0    0  501  502  0.00000000000E+00  0.00000000000E+00  0.93873505037E+02  0.93873505037E+02  0.00000000000E+00 0.  1.
         21   -1    0    0  502  503 -0.00000000000E+00 -0.00000000000E+00 -0.59995007755E+03  0.59995007755E+03  0.00000000000E+00 0.  1.
         -6    2    1    2    0  503 -0.20970415558E+02  0.36434956390E+02 -0.48507501107E+03  0.51450697883E+03  0.16629010952E+03 0.  0.
        -24    2    3    3    0    0  0.41523703144E+02  0.54654507068E+02 -0.31469224655E+03  0.33205193410E+03  0.80721396417E+02 0.  0.
          6    2    1    2  501    0  0.20970415558E+02 -0.36434956390E+02 -0.21001561446E+02  0.17931660376E+03  0.17304945659E+03 0.  0.
         24    2    5    5    0    0 -0.72448266180E+01 -0.72933988894E+02  0.29477874568E+02  0.11077068685E+03  0.77648861727E+02 0.  0.
          5    1    5    5  501    0  0.28215242176E+02  0.36499032504E+02 -0.50479436015E+02  0.68545916911E+02  0.47000000000E+01 0. -1.
        -13    1    6    6    0    0  0.27049406977E+02 -0.20986655202E+02  0.34140828559E+02  0.48349832358E+02  0.00000000000E+00 0.  1.
         14    1    6    6    0    0 -0.34294233595E+02 -0.51947333692E+02 -0.46629539904E+01  0.62420854492E+02  0.00000000000E+00 0. -1.
         -5    1    3    3    0  503 -0.62494118703E+02 -0.18219550677E+02 -0.17038276452E+03  0.18245504472E+03  0.47000000000E+01 0.  1.
         13    1    4    4    0    0 -0.88228222571E+01 -0.14100090917E+02 -0.24549434120E+02  0.29653490049E+02  0.00000000000E+00 0. -1.
        -14    1    4    4    0    0  0.50346525401E+02  0.68754597984E+02 -0.29014281243E+03  0.30239844405E+03  0.00000000000E+00 0.  1.
</event>
<event>
12    1  0.8331241E-002  0.1928526E+03  0.7818608E-02  0.1156976E+00
         21   -1    0    0  503  502  0.00000000000E+00  0.00000000000E+00  0.67580537685E+02  0.67580537685E+02  0.00000000000E+00 0.  1.
         21   -1    0    0  501  503 -0.00000000000E+00 -0.00000000000E+00 -0.15581036694E+04  0.15581036694E+04  0.00000000000E+00 0.  1.
          6    2    1    2  501    0 -0.66971658324E+02  0.34789829061E+02 -0.14001086910E+04  0.14126891004E+04  0.17230964128E+03 0.  0.
         24    2    3    3    0    0 -0.10405079315E+03  0.54208243808E+02 -0.11793919314E+04  0.11879894897E+04  0.81170182470E+02 0.  0.
         -6    2    1    2    0  502  0.66971658324E+02 -0.34789829061E+02 -0.90414440773E+02  0.21299510677E+03  0.17747284069E+03 0.  0.
        -24    2    5    5    0    0 -0.22879421862E+02  0.10780151013E+02 -0.69819551339E+02  0.11005784838E+03  0.81229801424E+02 0.  0.
          5    1    3    3  501    0  0.37079134831E+02 -0.19418414747E+02 -0.22071675956E+03  0.22469961064E+03  0.47000000000E+01 0. -1.
        -11    1    4    4    0    0 -0.30114109013E+02  0.60839913435E+02 -0.61551807668E+03  0.61925023807E+03  0.00000000000E+00 0.  1.
         12    1    4    4    0    0 -0.73936684142E+02 -0.66316696268E+01 -0.56387385474E+03  0.56873925165E+03  0.00000000000E+00 0. -1.
         -5    1    5    5    0  502  0.89851080186E+02 -0.45569980074E+02 -0.20594889434E+02  0.10293725839E+03  0.47000000000E+01 0.  1.
         13    1    6    6    0    0 -0.23834091813E+01 -0.22467958719E+02  0.71894048196E+01  0.23710279416E+02  0.00000000000E+00 0. -1.
        -14    1    6    6    0    0 -0.20496012681E+02  0.33248109732E+02 -0.77008956158E+02  0.86347568959E+02  0.00000000000E+00 0.  1.
</event>
<event>
12    1  0.8331241E-002  0.1818083E+03  0.7818608E-02  0.1166219E+00
         21   -1    0    0  503  502  0.00000000000E+00  0.00000000000E+00  0.34678433014E+03  0.34678433014E+03  0.00000000000E+00 0.  1.
         21   -1    0    0  501  503 -0.00000000000E+00 -0.00000000000E+00 -0.10612205385E+03  0.10612205385E+03  0.00000000000E+00 0.  1.
          6    2    1    2  501    0 -0.58313453677E+02  0.11266623343E+02  0.19390558852E+03  0.26580754393E+03  0.17183386589E+03 0.  0.
         24    2    3    3    0    0  0.11088106466E+02  0.37897735999E+02  0.43819498165E+02  0.98255411056E+02  0.78579850366E+02 0.  0.
         -6    2    1    2    0  502  0.58313453677E+02 -0.11266623343E+02  0.46756687775E+02  0.18709884006E+03  0.17115020426E+03 0.  0.
        -24    2    5    5    0    0  0.95105103630E+02 -0.42171187421E+01  0.71060168819E+02  0.14219816955E+03  0.78153739539E+02 0.  0.
          5    1    3    3  501    0 -0.69401560143E+02 -0.26631112656E+02  0.15008609035E+03  0.16755213287E+03  0.47000000000E+01 0. -1.
        -11    1    4    4    0    0  0.34865784620E+02  0.47230507485E+01  0.45365259581E+02  0.57410251022E+02  0.00000000000E+00 0.  1.
         12    1    4    4    0    0 -0.23777678154E+02  0.33174685251E+02 -0.15457614162E+01  0.40845160034E+02  0.00000000000E+00 0. -1.
         -5    1    5    5    0  502 -0.36791649954E+02 -0.70495046012E+01 -0.24303481045E+02  0.44900670511E+02  0.47000000000E+01 0.  1.
         11    1    6    6    0    0  0.77262011504E+02  0.14182571494E+02  0.14197010260E+02  0.79825552652E+02  0.00000000000E+00 0. -1.
        -12    1    6    6    0    0  0.17843092126E+02 -0.18399690236E+02  0.56863158560E+02  0.62372616899E+02  0.00000000000E+00 0.  1.
</event>
<event>
12    1  0.8331241E-002  0.2646900E+03  0.7818608E-02  0.1104468E+00
         21   -1    0    0  501  502  0.00000000000E+00  0.00000000000E+00  0.13393591199E+04  0.13393591199E+04  0.00000000000E+00 0.  1.
         21   -1    0    0  502  503 -0.00000000000E+00 -0.00000000000E+00 -0.36421421078E+03  0.36421421078E+03  0.00000000000E+00 0. -1.
         -6    2    1    2    0  503 -0.10635899052E+03 -0.17065376340E+03 -0.30096322756E+03  0.40030329569E+03  0.17096468165E+03 0.  0.
        -24    2    3    3    0    0  0.78042610934E+01 -0.49833872596E+02 -0.81284239698E+02  0.12478262180E+03  0.80120245454E+02 0.  0.
          6    2    1    2  501    0  0.10635899052E+03  0.17065376340E+03  0.12761081366E+04  0.13032700349E+04  0.17212165972E+03 0.  0.
         24    2    5    5    0    0  0.81139431040E+02  0.28987839665E+02  0.46353251964E+03  0.47803886523E+03  0.78961115637E+02 0.  0.
          5    1    5    5  501    0  0.25219559480E+02  0.14166592373E+03  0.81257561699E+03  0.82523116971E+03  0.47000000000E+01 0. -1.
        -13    1    6    6    0    0  0.54598566099E+02  0.95520923997E+01  0.41912458067E+03  0.42277376930E+03  0.00000000000E+00 0.  1.
         14    1    6    6    0    0  0.26540864941E+02  0.19435747265E+02  0.44407938974E+02  0.55265095924E+02  0.00000000000E+00 0. -1.
         -5    1    3    3    0  503 -0.11416325161E+03 -0.12081989080E+03 -0.21967898786E+03  0.27552067389E+03  0.47000000000E+01 0.  1.
         11    1    4    4    0    0 -0.14885395475E+02  0.62606000695E+01 -0.57570184617E+02  0.59792108748E+02  0.00000000000E+00 0. -1.
        -12    1    4    4    0    0  0.22689656568E+02 -0.56094472666E+02 -0.23714055081E+02  0.64990513055E+02  0.00000000000E+00 0.  1.
</event>
<event>
12    1  0.8331241E-002  0.2673224E+03  0.7818608E-02  0.1103080E+00
         21   -1    0    0  501  502  0.00000000000E+00  0.00000000000E+00  0.19267292335E+03  0.19267292335E+03  0.00000000000E+00 0.  1.
         21   -1    0    0  502  503 -0.00000000000E+00 -0.00000000000E+00 -0.41047453577E+03  0.41047453577E+03  0.00000000000E+00 0. -1.
         -6    2    1    2    0  503 -0.42943502272E+02 -0.19721773174E+03 -0.20508077278E+03  0.33552259400E+03  0.17256392908E+03 0.  0.
        -24    2    3    3    0    0  0.89959614316E+01 -0.16843322796E+03 -0.91680491625E+02  0.20742899809E+03  0.78554421268E+02 0.  0.
          6    2    1    2  501    0  0.42943502272E+02  0.19721773174E+03 -0.12720839642E+02  0.26762486512E+03  0.17527769559E+03 0.  0.
         24    2    5    5    0    0  0.67907939459E+02  0.67443206708E+02  0.30552081909E+02  0.12848721310E+03  0.80096565770E+02 0.  0.
          5    1    5    5  501    0 -0.24964437187E+02  0.12977452503E+03 -0.43272921551E+02  0.13913765202E+03  0.47000000000E+01 0. -1.
        -11    1    6    6    0    0  0.26855096392E+02  0.37051569874E+02  0.55259583520E+02  0.71747032017E+02  0.00000000000E+00 0.  1.
         12    1    6    6    0    0  0.41052843067E+02  0.30391636835E+02 -0.24707501611E+02  0.56740181082E+02  0.00000000000E+00 0. -1.
         -5    1    3    3    0  503 -0.51939463704E+02 -0.28784503782E+02 -0.11340028116E+03  0.12809359591E+03  0.47000000000E+01 0.  1.
         11    1    4    4    0    0 -0.22598303166E+02 -0.12345169488E+02 -0.20854976246E+02  0.33136332777E+02  0.00000000000E+00 0. -1.
        -12    1    4    4    0    0  0.31594264598E+02 -0.15608805847E+03 -0.70825515379E+02  0.17429266531E+03  0.00000000000E+00 0.  1.
</event>
<event>
12    1  0.8331241E-002  0.2625694E+03  0.7818608E-02  0.1105673E+00
         21   -1    0    0  501  502  0.00000000000E+00  0.00000000000E+00  0.34756755159E+03  0.34756755159E+03  0.00000000000E+00 0.  1.
         21   -1    0    0  502  503 -0.00000000000E+00 -0.00000000000E+00 -0.29214633181E+03  0.29214633181E+03  0.00000000000E+00 0.  1.
         -6    2    1    2    0  503 -0.19850348631E+03  0.10892509346E+01 -0.15381703455E+03  0.30430640333E+03  0.17186589669E+03 0.  0.
        -24    2    3    3    0    0 -0.63863640249E+02  0.51734291848E+02 -0.42017133759E+02  0.12205899969E+03  0.79862121043E+02 0.  0.
          6    2    1    2  501    0  0.19850348631E+03 -0.10892509346E+01  0.20923825434E+03  0.33540748006E+03  0.17120955014E+03 0.  0.
         24    2    5    5    0    0  0.19658468003E+03  0.43605748295E+02  0.15755160677E+03  0.26688796233E+03  0.76548533209E+02 0.  0.
          5    1    5    5  501    0  0.19188062864E+01 -0.44694999230E+02  0.51686647566E+02  0.68519517733E+02  0.47000000000E+01 0. -1.
        -13    1    6    6    0    0  0.39775569376E+02 -0.51385717356E+01  0.70301935438E+02  0.80937401521E+02  0.00000000000E+00 0.  1.
         14    1    6    6    0    0  0.15680911065E+03  0.48744320031E+02  0.87249671332E+02  0.18595056081E+03  0.00000000000E+00 0. -1.
         -5    1    3    3    0  503 -0.13463984606E+03 -0.50645040913E+02 -0.11179990079E+03  0.18224740364E+03  0.47000000000E+01 0.  1.
         13    1    4    4    0    0 -0.13198783958E+02  0.55936629806E+02 -0.42061792450E+02  0.71220143472E+02  0.00000000000E+00 0. -1.
        -14    1    4    4    0    0 -0.50664856291E+02 -0.42023379581E+01  0.44658691124E-01  0.50838856219E+02  0.00000000000E+00 0.  1.
</event>
<event>
12    1  0.8331241E-002  0.1792423E+03  0.7818608E-02  0.1168747E+00
         21   -1    0    0  501  502  0.00000000000E+00  0.00000000000E+00  0.92233359079E+02  0.92233359079E+02  0.00000000000E+00 0.  1.
         21   -1    0    0  502  503 -0.00000000000E+00 -0.00000000000E+00 -0.36863749149E+03  0.36863749149E+03  0.00000000000E+00 0. -1.
         -6    2    1    2    0  503 -0.13798703554E+01  0.47522603802E+02 -0.81641676909E+02  0.19618192647E+03  0.17193511262E+03 0.  0.
        -24    2    3    3    0    0  0.34029712957E+02  0.36510114096E+02 -0.11335050443E+03  0.14716505935E+03  0.79487156476E+02 0.  0.
          6    2    1    2  501    0  0.13798703554E+01 -0.47522603802E+02 -0.19476245551E+03  0.26468892410E+03  0.17282219346E+03 0.  0.
         24    2    5    5    0    0 -0.43688279471E+02 -0.96204489528E+00 -0.44330373047E+02  0.10082640487E+03  0.79317026241E+02 0.  0.
          5    1    5    5  501    0  0.45068149826E+02 -0.46560558906E+02 -0.15043208246E+03  0.16386251923E+03  0.47000000000E+01 0. -1.
        -11    1    6    6    0    0 -0.62674703603E+02 -0.76637253783E+01 -0.49275875415E+02  0.80093464505E+02  0.00000000000E+00 0.  1.
         12    1    6    6    0    0  0.18986424133E+02  0.67016804830E+01  0.49455023684E+01  0.20732940369E+02  0.00000000000E+00 0. -1.
         -5    1    3    3    0  503 -0.35409583312E+02  0.11012489706E+02  0.31708827519E+02  0.49016867122E+02  0.47000000000E+01 0.  1.
         13    1    4    4    0    0 -0.19499756359E+02  0.32107281050E+02 -0.64080417459E+02  0.74279323477E+02  0.00000000000E+00 0. -1.
        -14    1    4    4    0    0  0.53529469315E+02  0.44028330457E+01 -0.49270086969E+02  0.72885735874E+02  0.00000000000E+00 0.  1.
</event>
<event>
12    1  0.8331241E-002  0.1904474E+03  0.7818608E-02  0.1158060E+00
         21   -1    0    0  501  502  0.00000000000E+00  0.00000000000E+00  0.10253156490E+04  0.10253156490E+04  0.00000000000E+00 0. -1.
         21   -1    0    0  502  503 -0.00000000000E+00 -0.00000000000E+00 -0.66297355695E+02  0.66297355695E+02  0.00000000000E+00 0. -1.
         -6    2    1    2    0  503 -0.40993388141E+02 -0.70911448321E+02  0.10674585130E+03  0.21832287911E+03  0.17193403212E+03 0.  0.
        -24    2    3    3    0    0  0.38645235172E+02 -0.28616072005E+02  0.27059488663E+02  0.97893582137E+02  0.80861633167E+02 0.  0.
          6    2    1    2  501    0  0.40993388141E+02  0.70911448321E+02  0.85227244196E+03  0.87329012554E+03  0.17192567189E+03 0.  0.
         24    2    5    5    0    0  0.76640436627E+02  0.94820831544E+02  0.61356051073E+03  0.63070437413E+03  0.80416171247E+02 0.  0.
          5    1    5    5  501    0 -0.35647048486E+02 -0.23909383223E+02  0.23871193123E+03  0.24258575140E+03  0.47000000000E+01 0. -1.
        -13    1    6    6    0    0  0.22072190432E+02  0.88387632887E+02  0.38526277827E+03  0.39588756429E+03  0.00000000000E+00 0.  1.
         14    1    6    6    0    0  0.54568246195E+02  0.64331986577E+01  0.22829773246E+03  0.23481680984E+03  0.00000000000E+00 0. -1.
         -5    1    3    3    0  503 -0.79638623312E+02 -0.42295376316E+02  0.79686362633E+02  0.12042929698E+03  0.47000000000E+01 0.  1.
         13    1    4    4    0    0  0.24403191137E+02 -0.54969138141E+02  0.43433742408E+01  0.60299144151E+02  0.00000000000E+00 0. -1.
        -14    1    4    4    0    0  0.14242044035E+02  0.26353066135E+02  0.22716114422E+02  0.37594437985E+02  0.00000000000E+00 0.  1.
</event>
<event>
12    1  0.8331241E-002  0.2125668E+03  0.7818608E-02  0.1139591E+00
         21   -1    0    0  501  502  0.00000000000E+00  0.00000000000E+00  0.47307313581E+02  0.47307313581E+02  0.00000000000E+00 0. -1.
         21   -1    0    0  502  503 -0.00000000000E+00 -0.00000000000E+00 -0.16449655679E+04  0.16449655679E+04  0.00000000000E+00 0.  1.
         -6    2    1    2    0  503 -0.24656425161E+02  0.12123419927E+03 -0.13473780739E+04  0.13640426339E+04  0.17285532321E+03 0.  0.
        -24    2    3    3    0    0  0.45017790518E+01  0.37022143438E+02 -0.29297609647E+03  0.30587086562E+03  0.79568135677E+02 0.  0.
          6    2    1    2  501    0  0.24656425161E+02 -0.12123419927E+03 -0.25028018038E+03  0.32823024752E+03  0.17259564398E+03 0.  0.
         24    2    5    5    0    0  0.23196500126E+02 -0.63755116312E+02 -0.24873038424E+03  0.27052003848E+03  0.81923712710E+02 0.  0.
          5    1    5    5  501    0  0.14599250352E+01 -0.57479082959E+02 -0.15497961451E+01  0.57710209037E+02  0.47000000000E+01 0. -1.
        -13    1    6    6    0    0  0.35226417385E+02 -0.76265533964E+02 -0.23058108351E+03  0.24540775909E+03  0.00000000000E+00 0.  1.
         14    1    6    6    0    0 -0.12029917259E+02  0.12510417652E+02 -0.18149300728E+02  0.25112279387E+02  0.00000000000E+00 0. -1.
         -5    1    3    3    0  503 -0.29158204213E+02  0.84212055833E+02 -0.10544019774E+04  0.10581717683E+04  0.47000000000E+01 0.  1.
         11    1    4    4    0    0 -0.36332808896E+02  0.27929376761E+02 -0.14249454104E+03  0.14968238813E+03  0.00000000000E+00 0. -1.
        -12    1    4    4    0    0  0.40834587948E+02  0.90927666764E+01 -0.15048155542E+03  0.15618847749E+03  0.00000000000E+00 0.  1.
</event>
<event>
12    1  0.8331241E-002  0.1749514E+03  0.7818608E-02  0.1173042E+00
         21   -1    0    0  501  502  0.00000000000E+00  0.00000000000E+00  0.12816062352E+04  0.12816062352E+04  0.00000000000E+00 0. -1.
         21   -1    0    0  502  503 -0.00000000000E+00 -0.00000000000E+00 -0.79909469584E+02  0.79909469584E+02  0.00000000000E+00 0. -1.
         -6    2    1    2    0  503  0.15890361031E+02  0.26435360085E+02  0.30638714856E+02  0.17761400456E+03  0.17221112604E+03 0.  0.
        -24    2    3    3    0    0  0.17833484733E+02  0.86839472008E+02  0.39029163332E+02  0.11641823598E+03  0.64581754398E+02 0.  0.
          6    2    1    2  501    0 -0.15890361031E+02 -0.26435360085E+02  0.11710580508E+04  0.11839017002E+04  0.17115766330E+03 0.  0.
         24    2    5    5    0    0  0.28798119070E+02 -0.69894532756E+02  0.60444143069E+03  0.61384710277E+03  0.75790798052E+02 0.  0.
          5    1    5    5  501    0 -0.44688480101E+02  0.43459172671E+02  0.56661662007E+03  0.57005459746E+03  0.47000000000E+01 0. -1.
        -13    1    6    6    0    0  0.45618220885E+02 -0.55442304493E+02  0.55544096357E+03  0.56006208157E+03  0.00000000000E+00 0.  1.
         14    1    6    6    0    0 -0.16820101816E+02 -0.14452228263E+02  0.49000467123E+02  0.53785021197E+02  0.00000000000E+00 0. -1.
         -5    1    3    3    0  503 -0.19431237022E+01 -0.60404111923E+02 -0.83904484757E+01  0.61195768583E+02  0.47000000000E+01 0.  1.
         11    1    4    4    0    0 -0.46893052566E+01 -0.66702441963E+01  0.15320980810E+02  0.17355523455E+02  0.00000000000E+00 0. -1.
        -12    1    4    4    0    0  0.22522789990E+02  0.93509716204E+02  0.23708182522E+02  0.99062712521E+02  0.00000000000E+00 0.  1.
</event>
<event>
12    1  0.8331241E-002  0.2203802E+03  0.7818608E-02  0.1133868E+00
         21   -1    0    0  501  502  0.00000000000E+00  0.00000000000E+00  0.27120035274E+03  0.27120035274E+03  0.00000000000E+00 0. -1.
         21   -1    0    0  502  503 -0.00000000000E+00 -0.00000000000E+00 -0.24901580414E+03  0.24901580414E+03  0.00000000000E+00 0. -1.
         -6    2    1    2    0  503 -0.97045026773E+02  0.95149076481E+02  0.15005245977E+03  0.26542679122E+03  0.17165243033E+03 0.  0.
        -24    2    3    3    0    0 -0.94475412723E+02  0.13349473092E+03  0.11515407031E+03  0.21330213566E+03  0.74100569338E+02 0.  0.
          6    2    1    2  501    0  0.97045026773E+02 -0.95149076481E+02 -0.12786791116E+03  0.25478936566E+03  0.17348295066E+03 0.  0.
         24    2    5    5    0    0  0.25902491039E+02 -0.89332208806E+02 -0.17708234763E+02  0.12344119991E+03  0.79202056068E+02 0.  0.
          5    1    5    5  501    0  0.71142535734E+02 -0.58168676753E+01 -0.11015967640E+03  0.13134816575E+03  0.47000000000E+01 0. -1.
        -13    1    6    6    0    0  0.39437967543E+02 -0.33995847438E+02  0.19275440892E+02  0.55521289146E+02  0.00000000000E+00 0.  1.
         14    1    6    6    0    0 -0.13535476504E+02 -0.55336361368E+02 -0.36983675655E+02  0.67919910767E+02  0.00000000000E+00 0. -1.
         -5    1    3    3    0  503 -0.25696140502E+01 -0.38345654438E+02  0.34898389460E+02  0.52124655563E+02  0.47000000000E+01 0.  1.
         13    1    4    4    0    0 -0.22794135499E+01  0.36912085065E+02  0.51977650867E-03  0.36982397844E+02  0.00000000000E+00 0. -1.
        -14    1    4    4    0    0 -0.92195999173E+02  0.96582645854E+02  0.11515355053E+03  0.17631973782E+03  0.00000000000E+00 0.  1.
</event>
<event>
12    1  0.8331241E-002  0.2470794E+03  0.7818608E-02  0.1115242E+00
         21   -1    0    0  503  502  0.00000000000E+00  0.00000000000E+00  0.28914988593E+03  0.28914988593E+03  0.00000000000E+00 0. -1.
         21   -1    0    0  501  503 -0.00000000000E+00 -0.00000000000E+00 -0.24838590905E+03  0.24838590905E+03  0.00000000000E+00 0.  1.
          6    2    1    2  501    0  0.16338788368E+03  0.65825280102E+02 -0.84299529261E+02  0.26060781889E+03  0.17257304714E+03 0.  0.
         24    2    3    3    0    0  0.88557623657E+02 -0.30495874422E+02 -0.58494668644E+02  0.13584679351E+03  0.79121893189E+02 0.  0.
         -6    2    1    2    0  502 -0.16338788368E+03 -0.65825280102E+02  0.12506350614E+03  0.27692797609E+03  0.17326181155E+03 0.  0.
        -24    2    5    5    0    0 -0.12227548248E+03 -0.94328554549E+02  0.14110284576E+03  0.22418315073E+03  0.80615768758E+02 0.  0.
          5    1    3    3  501    0  0.74830260019E+02  0.96321154523E+02 -0.25804860616E+02  0.12476102538E+03  0.47000000000E+01 0. -1.
        -11    1    4    4    0    0  0.64920868358E+02  0.17318557938E+02 -0.44871747659E+02  0.80796815132E+02  0.00000000000E+00 0.  1.
         12    1    4    4    0    0  0.23636755299E+02 -0.47814432360E+02 -0.13622920986E+02  0.55049978376E+02  0.00000000000E+00 0. -1.
         -5    1    5    5    0  502 -0.41112401196E+02  0.28503274447E+02 -0.16039339620E+02  0.52744825355E+02  0.47000000000E+01 0.  1.
         11    1    6    6    0    0 -0.64336957933E+02 -0.90674749208E+02  0.66129176267E+02  0.12936082194E+03  0.00000000000E+00 0. -1.
        -12    1    6    6    0    0 -0.57938524547E+02 -0.36538053410E+01  0.74973669493E+02  0.94822328791E+02  0.00000000000E+00 0.  1.
</event>
<event>
12    1  0.8331241E-002  0.1854168E+03  0.7818608E-02  0.1163212E+00
         21   -1    0    0  503  502  0.00000000000E+00  0.00000000000E+00  0.20283639585E+03  0.20283639585E+03  0.00000000000E+00 0. -1.
         21   -1    0    0  501  503 -0.00000000000E+00 -0.00000000000E+00 -0.29224435582E+03  0.29224435582E+03  0.00000000000E+00 0. -1.
          6    2    1    2  501    0  0.60860444002E+02 -0.37984549436E+02 -0.20668928199E+03  0.27766857277E+03  0.17097531217E+03 0.  0.
         24    2    3    3    0    0  0.21061356251E+02 -0.40636021381E+01 -0.20893034092E+03  0.22511659472E+03  0.81027774706E+02 0.  0.
         -6    2    1    2    0  502 -0.60860444002E+02  0.37984549436E+02  0.11728132202E+03  0.21741217890E+03  0.16842306077E+03 0.  0.
        -24    2    5    5    0    0  0.18720159002E+02 -0.11196339043E+02  0.73553701723E+02  0.11403893796E+03  0.84373751680E+02 0.  0.
          5    1    3    3  501    0  0.39799087751E+02 -0.33920947298E+02  0.22410589236E+01  0.52551978046E+02  0.47000000000E+01 0. -1.
        -13    1    4    4    0    0 -0.15745688167E+02  0.16011770218E+02 -0.15725875957E+02  0.27415445573E+02  0.00000000000E+00 0.  1.
         14    1    4    4    0    0  0.36807044418E+02 -0.20075372356E+02 -0.19320446496E+03  0.19770114915E+03  0.00000000000E+00 0. -1.
         -5    1    5    5    0  502 -0.79580603003E+02  0.49180888479E+02  0.43727620299E+02  0.10337324094E+03  0.47000000000E+01 0.  1.
         13    1    6    6    0    0  0.48766591557E+02  0.40253539055E+01  0.25007383364E+02  0.54952280652E+02  0.00000000000E+00 0. -1.
        -14    1    6    6    0    0 -0.30046432555E+02 -0.15221692949E+02  0.48546318359E+02  0.59086657307E+02  0.00000000000E+00 0.  1.
</event>
<event>
12    1  0.8331241E-002  0.2078531E+03  0.7818608E-02  0.1143352E+00
         21   -1    0    0  503  502  0.00000000000E+00  0.00000000000E+00  0.40591383495E+03  0.40591383495E+03  0.00000000000E+00 0. -1.
         21   -1    0    0  501  503 -0.00000000000E+00 -0.00000000000E+00 -0.11726491460E+03  0.11726491460E+03  0.00000000000E+00 0. -1.
          6    2    1    2  501    0  0.11530848329E+03  0.20477629826E+02  0.22440381812E+03  0.30562332638E+03  0.17126927453E+03 0.  0.
         24    2    3    3    0    0  0.11766632463E+03  0.18952606474E+02  0.83209901874E+02  0.16432330126E+03  0.76640030816E+02 0.  0.
         -6    2    1    2    0  502 -0.11530848329E+03 -0.20477629826E+02  0.64245102224E+02  0.21755542317E+03  0.17171939131E+03 0.  0.
        -24    2    5    5    0    0 -0.12330103844E+03 -0.28672320046E+02 -0.25477181637E+01  0.14962601319E+03  0.79725810995E+02 0.  0.
          5    1    3    3  501    0 -0.23578413447E+01  0.15250233515E+01  0.14119391625E+03  0.14130002511E+03  0.47000000000E+01 0. -1.
        -11    1    4    4    0    0  0.15467995195E+02 -0.25431578596E+01 -0.14465443210E+02  0.21330156458E+02  0.00000000000E+00 0.  1.
         12    1    4    4    0    0  0.10219832944E+03  0.21495764334E+02  0.97675345084E+02  0.14299314480E+03  0.00000000000E+00 0. -1.
         -5    1    5    5    0  502  0.79925551486E+01  0.81946902205E+01  0.66792820388E+02  0.67929409985E+02  0.47000000000E+01 0.  1.
         11    1    6    6    0    0 -0.61206424097E+02  0.17186425332E+02 -0.26392120542E+02  0.68834174601E+02  0.00000000000E+00 0. -1.
        -12    1    6    6    0    0 -0.62094614339E+02 -0.45858745378E+02  0.23844402378E+02  0.80791838587E+02  0.00000000000E+00 0.  1.
</event>
<event>
12    1  0.8331241E-002  0.2336721E+03  0.7818608E-02  0.1124668E+00
         21   -1    0    0  503  502  0.00000000000E+00  0.00000000000E+00  0.57834329906E+02  0.57834329906E+02  0.00000000000E+00 0.  1.
         21   -1    0    0  501  503 -0.00000000000E+00 -0.00000000000E+00 -0.13568238594E+04  0.13568238594E+04  0.00000000000E+00 0.  1.
          6    2    1    2  501    0  0.12329853617E+03  0.91740905054E+02 -0.10492001876E+04  0.10749063539E+04  0.17602191147E+03 0.  0.
         24    2    3    3    0    0  0.13069030849E+03  0.64688349626E+02 -0.10215442775E+04  0.10352400153E+04  0.83094158080E+02 0.  0.
         -6    2    1    2    0  502 -0.12329853617E+03 -0.91740905054E+02 -0.24978934189E+03  0.33975183540E+03  0.17151580585E+03 0.  0.
        -24    2    5    5    0    0 -0.70456096002E+02 -0.11159030289E+02 -0.20457893893E+03  0.23320685636E+03  0.86280415958E+02 0.  0.
          5    1    3    3  501    0 -0.73917723220E+01  0.27052555429E+02 -0.27655910098E+02  0.39666338584E+02  0.47000000000E+01 0. -1.
        -11    1    4    4    0    0  0.75359846229E+01 -0.32383141813E+01 -0.30022073510E+03  0.30033276132E+03  0.00000000000E+00 0.  1.
         12    1    4    4    0    0  0.12315432387E+03  0.67926663807E+02 -0.72132354243E+03  0.73490725402E+03  0.00000000000E+00 0. -1.
         -5    1    5    5    0  502 -0.52842440168E+02 -0.80581874765E+02 -0.45210402960E+02  0.10654497904E+03  0.47000000000E+01 0.  1.
         11    1    6    6    0    0 -0.14196261481E+02  0.21350520617E+02 -0.13730010790E+03  0.13967354152E+03  0.00000000000E+00 0. -1.
        -12    1    6    6    0    0 -0.56259834521E+02 -0.32509550906E+02 -0.67278831033E+02  0.93533314844E+02  0.00000000000E+00 0.  1.
</event>
<event>
12    1  0.8331241E-002  0.1739138E+03  0.7818608E-02  0.1174053E+00
         21   -1    0    0  501  502  0.00000000000E+00  0.00000000000E+00  0.73713054685E+03  0.73713054685E+03  0.00000000000E+00 0. -1.
         21   -1    0    0  502  503 -0.00000000000E+00 -0.00000000000E+00 -0.11506281302E+03  0.11506281302E+03  0.00000000000E+00 0. -1.
         -6    2    1    2    0  503  0.19846554474E+02  0.10904114026E+02 -0.30946941474E+02  0.17664578331E+03  0.17243327447E+03 0.  0.
        -24    2    3    3    0    0  0.13958713634E+02  0.74216971006E+02 -0.87179682097E+01  0.10912244081E+03  0.78286011828E+02 0.  0.
          6    2    1    2  501    0 -0.19846554474E+02 -0.10904114026E+02  0.65301467531E+03  0.67554757657E+03  0.17153301901E+03 0.  0.
         24    2    5    5    0    0  0.20036803778E+02  0.49796664699E+02  0.45146358898E+03  0.46125759266E+03  0.77833240265E+02 0.  0.
          5    1    5    5  501    0 -0.39883358252E+02 -0.60700778725E+02  0.20155108633E+03  0.21428998391E+03  0.47000000000E+01 0. -1.
        -11    1    6    6    0    0 -0.22912365908E+02  0.38554649029E+02  0.30289898854E+03  0.30620129773E+03  0.00000000000E+00 0.  1.
         12    1    6    6    0    0  0.42949169686E+02  0.11242015670E+02  0.14856460044E+03  0.15505629493E+03  0.00000000000E+00 0. -1.
         -5    1    3    3    0  503  0.58878408400E+01 -0.63312856980E+02 -0.22228973264E+02  0.67523342491E+02  0.47000000000E+01 0.  1.
         11    1    4    4    0    0  0.40049001662E+02  0.69175792394E+02  0.32061586525E+01  0.79996826442E+02  0.00000000000E+00 0. -1.
        -12    1    4    4    0    0 -0.26090288028E+02  0.50411786119E+01 -0.11924126862E+02  0.29125614373E+02  0.00000000000E+00 0.  1.
</event>
<event>
12    1  0.8331241E-002  0.2286020E+03  0.7818608E-02  0.1127917E+00
         21   -1    0    0  503  502  0.00000000000E+00  0.00000000000E+00  0.20863639677E+03  0.20863639677E+03  0.00000000000E+00 0.  1.
         21   -1    0    0  501  503 -0.00000000000E+00 -0.00000000000E+00 -0.30447760494E+03  0.30447760494E+03  0.00000000000E+00 0.  1.
          6    2    1    2  501    0 -0.14774959195E+03  0.16108048845E+02 -0.15759054958E+03  0.27631904325E+03  0.17154597397E+03 0.  0.
         24    2    3    3    0    0 -0.93847386802E+02 -0.45925214141E+02 -0.13900397480E+03  0.19193228956E+03  0.81236946405E+02 0.  0.
         -6    2    1    2    0  502  0.14774959195E+03 -0.16108048845E+02  0.61749341416E+02  0.23679495846E+03  0.17369358085E+03 0.  0.
        -24    2    5    5    0    0  0.12453546704E+03  0.31128553701E+02 -0.52844983764E+01  0.15143795586E+03  0.80171435974E+02 0.  0.
          5    1    3    3  501    0 -0.53902205145E+02  0.62033262986E+02 -0.18586574786E+02  0.84386753691E+02  0.47000000000E+01 0. -1.
        -11    1    4    4    0    0 -0.49266769999E+02 -0.47008908518E+02 -0.12953640129E+03  0.14634456384E+03  0.00000000000E+00 0.  1.
         12    1    4    4    0    0 -0.44580616804E+02  0.10836943770E+01 -0.94675735109E+01  0.45587725720E+02  0.00000000000E+00 0. -1.
         -5    1    5    5    0  502  0.23214124904E+02 -0.47236602546E+02  0.67033839793E+02  0.85357002598E+02  0.47000000000E+01 0.  1.
         11    1    6    6    0    0  0.10341238694E+02 -0.20921832496E+02 -0.11021457135E+02  0.25809626307E+02  0.00000000000E+00 0. -1.
        -12    1    6    6    0    0  0.11419422835E+03  0.52050386197E+02  0.57369587590E+01  0.12562832956E+03  0.00000000000E+00 0.  1.
</event>
<event>
12    1  0.8331241E-002  0.2568572E+03  0.7818608E-02  0.1109240E+00
         21   -1    0    0  501  502  0.00000000000E+00  0.00000000000E+00  0.18631840967E+03  0.18631840967E+03  0.00000000000E+00 0. -1.
         21   -1    0    0  502  503 -0.00000000000E+00 -0.00000000000E+00 -0.40842972829E+03  0.40842972829E+03  0.00000000000E+00 0. -1.
         -6    2    1    2    0  503 -0.62902570645E+02 -0.17817907734E+03 -0.22147716970E+03  0.33915744484E+03  0.17398597270E+03 0.  0.
        -24    2    3    3    0    0 -0.46074449854E+02 -0.20230565578E+03 -0.17224696494E+03  0.28161632479E+03  0.81168369260E+02 0.  0.
          6    2    1    2  501    0  0.62902570645E+02  0.17817907734E+03 -0.63414891962E+00  0.25559069312E+03  0.17210950953E+03 0.  0.
         24    2    5    5    0    0  0.89538261477E+02  0.72564512506E+02  0.26986500306E+02  0.14312342413E+03  0.80457035688E+02 0.  0.
          5    1    5    5  501    0 -0.26635690831E+02  0.10561456484E+03 -0.27620649226E+02  0.11246726900E+03  0.47000000000E+01 0. -1.
        -11    1    6    6    0    0  0.49142275286E+02  0.88210276546E+01  0.43099074495E+02  0.65956834153E+02  0.00000000000E+00 0.  1.
         12    1    6    6    0    0  0.40395986190E+02  0.63743484852E+02 -0.16112574188E+02  0.77166589974E+02  0.00000000000E+00 0. -1.
         -5    1    3    3    0  503 -0.16828120791E+02  0.24126578434E+02 -0.49230204758E+02  0.57541120052E+02  0.47000000000E+01 0.  1.
         11    1    4    4    0    0 -0.11089780897E+02 -0.13378478161E+03 -0.15048846131E+03  0.20166340278E+03  0.00000000000E+00 0. -1.
        -12    1    4    4    0    0 -0.34984668957E+02 -0.68520874163E+02 -0.21758503628E+02  0.79952922012E+02  0.00000000000E+00 0.  1.
</event>
<event>
12    1  0.8331241E-002  0.1864525E+03  0.7818608E-02  0.1162654E+00
         21   -1    0    0  501  502  0.00000000000E+00  0.00000000000E+00  0.38926465753E+03  0.38926465753E+03  0.00000000000E+00 0. -1.
         21   -1    0    0  502  503 -0.00000000000E+00 -0.00000000000E+00 -0.16153460847E+03  0.16153460847E+03  0.00000000000E+00 0. -1.
         -6    2    1    2    0  503 -0.18967381024E+02  0.59252769340E+02 -0.72061061244E+02  0.19989329895E+03  0.17576655598E+03 0.  0.
        -24    2    3    3    0    0 -0.31907462048E+02  0.21496482006E+02 -0.11348000594E+03  0.14218193170E+03  0.76536299095E+02 0.  0.
          6    2    1    2  501    0  0.18967381024E+02 -0.59252769340E+02  0.29979111031E+03  0.35090596706E+03  0.17143405636E+03 0.  0.
         24    2    5    5    0    0  0.46189464215E+02  0.19807338480E+02  0.19735336594E+03  0.21859147831E+03  0.79423460511E+02 0.  0.
          5    1    5    5  501    0 -0.27222083191E+02 -0.79060107820E+02  0.10243774437E+03  0.13231448875E+03  0.47000000000E+01 0. -1.
        -11    1    6    6    0    0  0.13048870512E+02 -0.16942596715E+02  0.14493592074E+03  0.14650510477E+03  0.00000000000E+00 0.  1.
         12    1    6    6    0    0  0.33140593703E+02  0.36749935195E+02  0.52417445202E+02  0.72086373535E+02  0.00000000000E+00 0. -1.
         -5    1    3    3    0  503  0.12940081025E+02  0.37756287334E+02  0.41418944699E+02  0.57711367252E+02  0.47000000000E+01 0.  1.
         13    1    4    4    0    0  0.12396108914E+02  0.28298112695E+02 -0.15780278388E+02  0.34690976987E+02  0.00000000000E+00 0. -1.
        -14    1    4    4    0    0 -0.44303570962E+02 -0.68016306890E+01 -0.97699727555E+02  0.10749095471E+03  0.00000000000E+00 0.  1.
</event>
<event>
12    1  0.8331241E-002  0.1878698E+03  0.7818608E-02  0.1160846E+00
         21   -1    0    0  501  502  0.00000000000E+00  0.00000000000E+00  0.11212587046E+03  0.11212587046E+03  0.00000000000E+00 0.  1.
         21   -1    0    0  502  503 -0.00000000000E+00 -0.00000000000E+00 -0.46814409641E+03  0.46814409641E+03  0.00000000000E+00 0.  1.
         -6    2    1    2    0  503  0.37248186706E+02 -0.66050708700E+02 -0.34644345566E+03  0.39410422431E+03  0.17188643960E+03 0.  0.
        -24    2    3    3    0    0  0.65194992511E+02 -0.27529683974E+02 -0.32435311153E+03  0.34142627252E+03  0.79741382385E+02 0.  0.
          6    2    1    2  501    0 -0.37248186706E+02  0.66050708700E+02 -0.95747702936E+01  0.18616574255E+03  0.16975241955E+03 0.  0.
         24    2    5    5    0    0 -0.16350511242E+02  0.44469955433E+01  0.52774106376E+02  0.95937128820E+02  0.78305245005E+02 0.  0.
          5    1    5    5  501    0 -0.20897675464E+02  0.61603713156E+02 -0.62348876669E+02  0.90228613734E+02  0.47000000000E+01 0. -1.
        -11    1    6    6    0    0 -0.41942043088E+02  0.10841798033E+02  0.81219748265E+01  0.44075458455E+02  0.00000000000E+00 0.  1.
         12    1    6    6    0    0  0.25591531846E+02 -0.63948024893E+01  0.44652131549E+02  0.51861670365E+02  0.00000000000E+00 0. -1.
         -5    1    3    3    0  503 -0.27946805806E+02 -0.38521024726E+02 -0.22090344136E+02  0.52677951789E+02  0.47000000000E+01 0.  1.
         13    1    4    4    0    0  0.14360839838E+02 -0.29232572078E+01 -0.27614966814E+01  0.14913249729E+02  0.00000000000E+00 0. -1.
        -14    1    4    4    0    0  0.50834152673E+02 -0.24606426766E+02 -0.32159161484E+03  0.32651302279E+03  0.00000000000E+00 0.  1.
</event>
<event>
12    1  0.8331241E-002  0.2851466E+03  0.7818608E-02  0.1092973E+00
         21   -1    0    0  503  502  0.00000000000E+00  0.00000000000E+00  0.66707942963E+03  0.66707942963E+03  0.00000000000E+00 0. -1.
         21   -1    0    0  501  503 -0.00000000000E+00 -0.00000000000E+00 -0.12475134400E+03  0.12475134400E+03  0.00000000000E+00 0.  1.
          6    2    1    2  501    0  0.69849728690E+02  0.21615521066E+03  0.20933012779E+03  0.35373388424E+03  0.17235573318E+03 0.  0.
         24    2    3    3    0    0 -0.17403546950E+02  0.12531895882E+03  0.66066488960E+02  0.16291743062E+03  0.78546695352E+02 0.  0.
         -6    2    1    2    0  502 -0.69849728690E+02 -0.21615521066E+03  0.33299795784E+03  0.43809688940E+03  0.17157850937E+03 0.  0.
        -24    2    5    5    0    0  0.29071384106E+01 -0.37289508166E+02  0.73904596049E+02  0.11492826257E+03  0.79672186783E+02 0.  0.
          5    1    3    3  501    0  0.87253275640E+02  0.90836251841E+02  0.14326363883E+03  0.19081645362E+03  0.47000000000E+01 0. -1.
        -11    1    4    4    0    0 -0.22933383681E+01  0.88515568527E+02  0.33030176106E+01  0.88606857510E+02  0.00000000000E+00 0.  1.
         12    1    4    4    0    0 -0.15110208582E+02  0.36803390296E+02  0.62763471349E+02  0.74310573114E+02  0.00000000000E+00 0. -1.
         -5    1    5    5    0  502 -0.72756867101E+02 -0.17886570250E+03  0.25909336179E+03  0.32316862683E+03  0.47000000000E+01 0.  1.
         13    1    6    6    0    0  0.15952813716E+02 -0.58249569779E+02  0.38000215409E+02  0.71354894829E+02  0.00000000000E+00 0. -1.
        -14    1    6    6    0    0 -0.13045675306E+02  0.20960061613E+02  0.35904380640E+02  0.43573367739E+02  0.00000000000E+00 0.  1.
</event>
<event>
12    1  0.8331241E-002  0.2609099E+03  0.7818608E-02  0.1106729E+00
         21   -1    0    0  503  502  0.00000000000E+00  0.00000000000E+00  0.19646581330E+03  0.19646581330E+03  0.00000000000E+00 0.  1.
         21   -1    0    0  501  503 -0.00000000000E+00 -0.00000000000E+00 -0.40528566684E+03  0.40528566684E+03  0.00000000000E+00 0. -1.
          6    2    1    2  501    0  0.13107937866E+03  0.14518274999E+03  0.11160995882E+02  0.26114850525E+03  0.17266771429E+03 0.  0.
         24    2    3    3    0    0  0.12963118051E+03  0.10249595245E+03  0.62988731884E+02  0.19382492705E+03  0.79314934113E+02 0.  0.
         -6    2    1    2    0  502 -0.13107937866E+03 -0.14518274999E+03 -0.21998084943E+03  0.34060297489E+03  0.17134461762E+03 0.  0.
        -24    2    5    5    0    0 -0.12822784904E+02 -0.10065378797E+03 -0.77866632658E+02  0.15037681730E+03  0.79084548763E+02 0.  0.
          5    1    3    3  501    0  0.14481981525E+01  0.42686797540E+02 -0.51827736002E+02  0.67323578197E+02  0.47000000000E+01 0. -1.
        -13    1    4    4    0    0  0.46347419021E+02  0.77925798143E+02  0.56322903318E+02  0.10673697909E+03  0.00000000000E+00 0.  1.
         14    1    4    4    0    0  0.83283761490E+02  0.24570154306E+02  0.66658285655E+01  0.87087947966E+02  0.00000000000E+00 0. -1.
         -5    1    5    5    0  502 -0.11825659376E+03 -0.44528962018E+02 -0.14211421677E+03  0.19022615760E+03  0.47000000000E+01 0.  1.
         13    1    6    6    0    0  0.29987208915E+02 -0.24884859664E+02 -0.38778155303E+02  0.54974851229E+02  0.00000000000E+00 0. -1.
        -14    1    6    6    0    0 -0.42809993818E+02 -0.75768928306E+02 -0.39088477355E+02  0.95401966067E+02  0.00000000000E+00 0.  1.
</event>
<event>
12    1  0.8331241E-002  0.2558030E+03  0.7818608E-02  0.1110089E+00
         21   -1    0    0  503  502  0.00000000000E+00  0.00000000000E+00  0.18835855090E+03  0.18835855090E+03  0.00000000000E+00 0.  1.
         21   -1    0    0  501  503 -0.00000000000E+00 -0.00000000000E+00 -0.44555336398E+03  0.44555336398E+03  0.00000000000E+00 0. -1.
          6    2    1    2  501    0  0.60342228301E+01  0.18938305553E+03 -0.27948210543E+03  0.37713987163E+03  0.16799369615E+03 0.  0.
         24    2    3    3    0    0  0.21089985956E+02  0.13203972393E+03 -0.27685029368E+03  0.31760878634E+03  0.79686760796E+02 0.  0.
         -6    2    1    2    0  502 -0.60342228301E+01 -0.18938305553E+03  0.22287292352E+02  0.25677204326E+03  0.17185111357E+03 0.  0.
        -24    2    5    5    0    0 -0.44065225249E+02 -0.93609437215E+02 -0.39716774280E+02  0.13641616518E+03  0.79545440800E+02 0.  0.
          5    1    3    3  501    0 -0.15055763126E+02  0.57343331599E+02 -0.26318117520E+01  0.59531085285E+02  0.47000000000E+01 0. -1.
        -11    1    4    4    0    0  0.29479053326E+02  0.11082630698E+02 -0.85100523272E+02  0.90741051071E+02  0.00000000000E+00 0.  1.
         12    1    4    4    0    0 -0.83890673698E+01  0.12095709323E+03 -0.19174977041E+03  0.22686773527E+03  0.00000000000E+00 0. -1.
         -5    1    5    5    0  502  0.38031002419E+02 -0.95773618314E+02  0.62004066632E+02  0.12035587808E+03  0.47000000000E+01 0.  1.
         11    1    6    6    0    0 -0.91947607485E+01 -0.16281640110E+02 -0.47681253808E+02  0.51216573437E+02  0.00000000000E+00 0. -1.
        -12    1    6    6    0    0 -0.34870464500E+02 -0.77327797105E+02  0.79644795280E+01  0.85199591746E+02  0.00000000000E+00 0.  1.
</event>
<event>
12    1  0.8331241E-002  0.2658055E+03  0.7818608E-02  0.1103708E+00
         21   -1    0    0  501  502  0.00000000000E+00  0.00000000000E+00  0.22286963962E+03  0.22286963962E+03  0.00000000000E+00 0. -1.
         21   -1    0    0  502  503 -0.00000000000E+00 -0.00000000000E+00 -0.73896772272E+03  0.73896772272E+03  0.00000000000E+00 0. -1.
         -6    2    1    2    0  503 -0.16972637508E+03  0.11104145034E+03 -0.62146251550E+03  0.67591041371E+03  0.17176141330E+03 0.  0.
        -24    2    3    3    0    0 -0.19766714344E+03  0.10043585857E+03 -0.54018085905E+03  0.58918116381E+03  0.78609299828E+02 0.  0.
          6    2    1    2  501    0  0.16972637508E+03 -0.11104145034E+03  0.10536443240E+03  0.28592694863E+03  0.17180020446E+03 0.  0.
         24    2    5    5    0    0  0.26019938179E+02 -0.26498505192E+01  0.53358048392E+02  0.98504877111E+02  0.78562526663E+02 0.  0.
          5    1    5    5  501    0  0.14370643690E+03 -0.10839159982E+03  0.52006384003E+02  0.18742207152E+03  0.47000000000E+01 0. -1.
        -13    1    6    6    0    0  0.28450907577E+02  0.29270351576E+02  0.58770690322E+01  0.41240120802E+02  0.00000000000E+00 0.  1.
         14    1    6    6    0    0 -0.24309693987E+01 -0.31920202096E+02  0.47480979360E+02  0.57264756308E+02  0.00000000000E+00 0. -1.
         -5    1    3    3    0  503  0.27940768362E+02  0.10605591763E+02 -0.81281656447E+02  0.86729249899E+02  0.47000000000E+01 0.  1.
         13    1    4    4    0    0 -0.90533358266E+02  0.24558695976E+02 -0.14439129297E+03  0.17218671259E+03  0.00000000000E+00 0. -1.
        -14    1    4    4    0    0 -0.10713378517E+03  0.75877162596E+02 -0.39578956608E+03  0.41699445122E+03  0.00000000000E+00 0.  1.
</event>
<event>
12    1  0.8331241E-002  0.1771518E+03  0.7818608E-02  0.1172107E+00
         21   -1    0    0  501  502  0.00000000000E+00  0.00000000000E+00  0.10281333067E+03  0.10281333067E+03  0.00000000000E+00 0. -1.
         21   -1    0    0  502  503 -0.00000000000E+00 -0.00000000000E+00 -0.32494703575E+03  0.32494703575E+03  0.00000000000E+00 0. -1.
         -6    2    1    2    0  503  0.17013527953E+02 -0.25564203242E+02 -0.17781069585E+03  0.25099684464E+03  0.17447000842E+03 0.  0.
        -24    2    3    3    0    0  0.28544145836E+02 -0.82948145908E+02 -0.11734914775E+03  0.16671421996E+03  0.79546498896E+02 0.  0.
          6    2    1    2  501    0 -0.17013527953E+02  0.25564203242E+02 -0.44323009231E+02  0.17676352179E+03  0.16833842362E+03 0.  0.
         24    2    5    5    0    0  0.56093779048E+02  0.20647443770E+01 -0.12320581544E+02  0.93437965795E+02  0.73675514963E+02 0.  0.
          5    1    5    5  501    0 -0.73107307002E+02  0.23499458865E+02 -0.32002427686E+02  0.83325555995E+02  0.47000000000E+01 0. -1.
        -11    1    6    6    0    0  0.22948345914E+02  0.23035170808E+02 -0.35289410548E+02  0.47985291197E+02  0.00000000000E+00 0.  1.
         12    1    6    6    0    0  0.33145433134E+02 -0.20970426431E+02  0.22968829004E+02  0.45452674599E+02  0.00000000000E+00 0. -1.
         -5    1    3    3    0  503 -0.11530617882E+02  0.57383942665E+02 -0.60461548096E+02  0.84282624679E+02  0.47000000000E+01 0.  1.
         11    1    4    4    0    0  0.52061903376E+02 -0.30160516826E+02 -0.52499525272E+02  0.79851729550E+02  0.00000000000E+00 0. -1.
        -12    1    4    4    0    0 -0.23517757540E+02 -0.52787629082E+02 -0.64849622482E+02  0.86862490408E+02  0.00000000000E+00 0.  1.
</event>
<event>
12    1  0.8331241E-002  0.1794781E+03  0.7818608E-02  0.1168649E+00
         21   -1    0    0  501  502  0.00000000000E+00  0.00000000000E+00  0.10208352334E+04  0.10208352334E+04  0.00000000000E+00 0.  1.
         21   -1    0    0  502  503 -0.00000000000E+00 -0.00000000000E+00 -0.34154542106E+02  0.34154542106E+02  0.00000000000E+00 0.  1.
         -6    2    1    2    0  503  0.41910268382E+02 -0.22409361578E+02  0.64732341591E+03  0.67174398873E+03  0.17307146363E+03 0.  0.
        -24    2    3    3    0    0  0.22593015327E+02  0.52462567438E+02  0.43107768984E+03  0.44204142874E+03  0.79434782831E+02 0.  0.
          6    2    1    2  501    0 -0.41910268382E+02  0.22409361578E+02  0.33935727541E+03  0.38324578680E+03  0.17162553029E+03 0.  0.
         24    2    5    5    0    0  0.21326619464E+02  0.21189875698E+02  0.29209278696E+03  0.30414829633E+03  0.79272658828E+02 0.  0.
          5    1    5    5  501    0 -0.63236887845E+02  0.12194858802E+01  0.47264488445E+02  0.79097490467E+02  0.47000000000E+01 0. -1.
        -13    1    6    6    0    0  0.11542191400E+02  0.15407798616E+02  0.97552528384E+01  0.21582108295E+02  0.00000000000E+00 0.  1.
         14    1    6    6    0    0  0.97844280637E+01  0.57820770819E+01  0.28233753412E+03  0.28256618804E+03  0.00000000000E+00 0. -1.
         -5    1    3    3    0  503  0.19317253055E+02 -0.74871929016E+02  0.21624572607E+03  0.22970255998E+03  0.47000000000E+01 0.  1.
         11    1    4    4    0    0  0.44934266781E+02  0.34393940396E+02  0.16534576872E+03  0.17476056392E+03  0.00000000000E+00 0. -1.
        -12    1    4    4    0    0 -0.22341251454E+02  0.18068627042E+02  0.26573192112E+03  0.26728086482E+03  0.00000000000E+00 0.  1.
</event>
<event>
12    1  0.8331241E-002  0.1812224E+03  0.7818608E-02  0.1166650E+00
         21   -1    0    0  501  502  0.00000000000E+00  0.00000000000E+00  0.28637599368E+03  0.28637599368E+03  0.00000000000E+00 0.  1.
         21   -1    0    0  502  503 -0.00000000000E+00 -0.00000000000E+00 -0.12692928554E+03  0.12692928554E+03  0.00000000000E+00 0.  1.
         -6    2    1    2    0  503 -0.44481713761E+02  0.40942646572E+02  0.14407299652E+03  0.23143189809E+03  0.17073011438E+03 0.  0.
        -24    2    3    3    0    0 -0.92048789243E+02  0.50160107586E+01  0.10263624361E+03  0.15868271031E+03  0.78408316414E+02 0.  0.
          6    2    1    2  501    0  0.44481713761E+02 -0.40942646572E+02  0.15373711620E+02  0.18187338113E+03  0.17084101553E+03 0.  0.
         24    2    5    5    0    0  0.76729262986E+02 -0.63864764448E+01  0.51360088963E+02  0.12228191631E+03  0.79917716680E+02 0.  0.
          5    1    5    5  501    0 -0.32247549226E+02 -0.34556170127E+02 -0.35986377343E+02  0.59591464818E+02  0.47000000000E+01 0. -1.
        -11    1    6    6    0    0 -0.99273757287E+01 -0.60150282053E+01 -0.10626323737E+02  0.15736966332E+02  0.00000000000E+00 0.  1.
         12    1    6    6    0    0  0.86656638715E+02 -0.37144823956E+00  0.61986412700E+02  0.10654494998E+03  0.00000000000E+00 0. -1.
         -5    1    3    3    0  503  0.47567075482E+02  0.35926635813E+02  0.41436752910E+02  0.72749187779E+02  0.47000000000E+01 0.  1.
         13    1    4    4    0    0  0.33172485360E+01 -0.20122748130E+02  0.29661559963E+02  0.35996350782E+02  0.00000000000E+00 0. -1.
        -14    1    4    4    0    0 -0.95366037779E+02  0.25138758889E+02  0.72974683650E+02  0.12268635953E+03  0.00000000000E+00 0.  1.
</event>
<event>
12    1  0.8331241E-002  0.2391141E+03  0.7818608E-02  0.1120756E+00
         21   -1    0    0  501  502  0.00000000000E+00  0.00000000000E+00  0.16522590706E+03  0.16522590706E+03  0.00000000000E+00 0.  1.
         21   -1    0    0  502  503 -0.00000000000E+00 -0.00000000000E+00 -0.34359094471E+03  0.34359094471E+03  0.00000000000E+00 0.  1.
         -6    2    1    2    0  503  0.16595139496E+03 -0.57873134616E+01 -0.77849575296E+02  0.25146789883E+03  0.17205286770E+03 0.  0.
        -24    2    3    3    0    0  0.12955985617E+03 -0.21752204701E+02 -0.11879068908E+03  0.19421856132E+03  0.79691323307E+02 0.  0.
          6    2    1    2  501    0 -0.16595139496E+03  0.57873134616E+01 -0.10051546235E+03  0.25734895294E+03  0.16897268100E+03 0.  0.
         24    2    5    5    0    0 -0.14642419859E+03 -0.36394794866E+02 -0.11750626974E+03  0.20763558254E+03  0.80871408321E+02 0.  0.
          5    1    5    5  501    0 -0.19527196364E+02  0.42182108327E+02  0.16990807388E+02  0.49713370399E+02  0.47000000000E+01 0. -1.
        -13    1    6    6    0    0 -0.93723761045E+02 -0.51680570686E+01 -0.25791795429E+02  0.97345102135E+02  0.00000000000E+00 0.  1.
         14    1    6    6    0    0 -0.52700437549E+02 -0.31226737797E+02 -0.91714474307E+02  0.11029048041E+03  0.00000000000E+00 0. -1.
         -5    1    3    3    0  503  0.36391538789E+02  0.15964891239E+02  0.40941113780E+02  0.57249337509E+02  0.47000000000E+01 0.  1.
         11    1    4    4    0    0  0.13922834099E+01 -0.24732724883E+02 -0.12841722512E+02  0.27902615833E+02  0.00000000000E+00 0. -1.
        -12    1    4    4    0    0  0.12816757276E+03  0.29805201825E+01 -0.10594896656E+03  0.16631594549E+03  0.00000000000E+00 0.  1.
</event>
<event>
12    1  0.8331241E-002  0.1939990E+03  0.7818608E-02  0.1157843E+00
         21   -1    0    0  503  502  0.00000000000E+00  0.00000000000E+00  0.79512760340E+02  0.79512760340E+02  0.00000000000E+00 0. -1.
         21   -1    0    0  501  503 -0.00000000000E+00 -0.00000000000E+00 -0.53614798356E+03  0.53614798356E+03  0.00000000000E+00 0. -1.
          6    2    1    2  501    0  0.66147993534E+02  0.21443980399E+02 -0.93139839840E+02  0.20363587926E+03  0.16720388815E+03 0.  0.
         24    2    3    3    0    0 -0.21620257623E+02  0.26395458610E+02 -0.73765899170E+02  0.11349586248E+03  0.79219613382E+02 0.  0.
         -6    2    1    2    0  502 -0.66147993534E+02 -0.21443980399E+02 -0.36349538338E+03  0.41202486465E+03  0.18110823836E+03 0.  0.
        -24    2    5    5    0    0 -0.99334604996E+02  0.31328355328E+02 -0.23228769120E+03  0.26668450863E+03  0.79462104581E+02 0.  0.
          5    1    3    3  501    0  0.87768251157E+02 -0.49514782105E+01 -0.19373940670E+02  0.90140016778E+02  0.47000000000E+01 0. -1.
        -11    1    4    4    0    0 -0.87631703118E+01  0.27173927217E+02 -0.89045730330E+02  0.93511269718E+02  0.00000000000E+00 0.  1.
         12    1    4    4    0    0 -0.12857087311E+02 -0.77846860778E+00  0.15279831160E+02  0.19984592760E+02  0.00000000000E+00 0. -1.
         -5    1    5    5    0  502  0.33186611462E+02 -0.52772335727E+02 -0.13120769218E+03  0.14534035601E+03  0.47000000000E+01 0.  1.
         11    1    6    6    0    0 -0.55224045229E+02  0.35709710593E+02 -0.60808906051E+02  0.89568977092E+02  0.00000000000E+00 0. -1.
        -12    1    6    6    0    0 -0.44110559766E+02 -0.43813552655E+01 -0.17147878515E+03  0.17711553154E+03  0.00000000000E+00 0.  1.
</event>
<event>
12    1  0.8331241E-002  0.1879342E+03  0.7818608E-02  0.1160521E+00
         21   -1    0    0  501  502  0.00000000000E+00  0.00000000000E+00  0.12680507198E+04  0.12680507198E+04  0.00000000000E+00 0. -1.
         21   -1    0    0  502  503 -0.00000000000E+00 -0.00000000000E+00 -0.33560100660E+02  0.33560100660E+02  0.00000000000E+00 0. -1.
         -6    2    1    2    0  503  0.31093368781E+02  0.66688873439E+02  0.34719116009E+03  0.39479232359E+03  0.17293083502E+03 0.  0.
        -24    2    3    3    0    0  0.26700535610E+02  0.61285486701E+02  0.36391288423E+03  0.37607870209E+03  0.67333300658E+02 0.  0.
          6    2    1    2  501    0 -0.31093368781E+02 -0.66688873439E+02  0.88729945907E+03  0.90681849689E+03  0.17206177032E+03 0.  0.
         24    2    5    5    0    0 -0.70175609913E+02 -0.61497536468E+02  0.41106786419E+03  0.42893462657E+03  0.79382376374E+02 0.  0.
          5    1    5    5  501    0  0.39082241132E+02 -0.51913369706E+01  0.47623159488E+03  0.47788387032E+03  0.47000000000E+01 0. -1.
        -11    1    6    6    0    0 -0.45084269192E+02  0.98742318196E+01  0.13408834812E+03  0.14180894501E+03  0.00000000000E+00 0.  1.
         12    1    6    6    0    0 -0.25091340721E+02 -0.71371768288E+02  0.27697951608E+03  0.28712568156E+03  0.00000000000E+00 0. -1.
         -5    1    3    3    0  503  0.43928331706E+01  0.54033867383E+01 -0.16721724139E+02  0.18713621501E+02  0.47000000000E+01 0.  1.
         11    1    4    4    0    0  0.44556746647E+02  0.30669835688E+02  0.15468252320E+03  0.16386770725E+03  0.00000000000E+00 0. -1.
        -12    1    4    4    0    0 -0.17856211037E+02  0.30615651012E+02  0.20923036103E+03  0.21221099485E+03  0.00000000000E+00 0.  1.
</event>
<event>
12    1  0.8331241E-002  0.1845425E+03  0.7818608E-02  0.1163576E+00
         21   -1    0    0  503  502  0.00000000000E+00  0.00000000000E+00  0.58058427361E+02  0.58058427361E+02  0.00000000000E+00 0.  1.
         21   -1    0    0  501  503 -0.00000000000E+00 -0.00000000000E+00 -0.63968445602E+03  0.63968445602E+03  0.00000000000E+00 0.  1.
          6    2    1    2  501    0  0.48182602510E+02 -0.47062698671E+02 -0.39287815247E+03  0.43406125973E+03  0.17181232120E+03 0.  0.
         24    2    3    3    0    0  0.20723220467E+02 -0.44868964994E+02 -0.39488763376E+03  0.40604415523E+03  0.80578761557E+02 0.  0.
         -6    2    1    2    0  502 -0.48182602510E+02  0.47062698671E+02 -0.18874787618E+03  0.26368162365E+03  0.17136445692E+03 0.  0.
        -24    2    5    5    0    0 -0.84659448469E+02 -0.52986879873E+01 -0.90853922256E+02  0.14673038886E+03  0.77974826164E+02 0.  0.
          5    1    3    3  501    0  0.27459382043E+02 -0.21937336769E+01  0.20094812838E+01  0.28017104501E+02  0.47000000000E+01 0. -1.
        -11    1    4    4    0    0 -0.28542216045E+02 -0.10711654988E+01 -0.11357790214E+03  0.11711424058E+03  0.00000000000E+00 0.  1.
         12    1    4    4    0    0  0.49265436512E+02 -0.43797799496E+02 -0.28130973161E+03  0.28892991464E+03  0.00000000000E+00 0. -1.
         -5    1    5    5    0  502  0.36476845959E+02  0.52361386659E+02 -0.97893953926E+02  0.11695123479E+03  0.47000000000E+01 0.  1.
         11    1    6    6    0    0 -0.22984026173E+02 -0.36796638965E+02 -0.50503292316E+02  0.66579581202E+02  0.00000000000E+00 0. -1.
        -12    1    6    6    0    0 -0.61675422296E+02  0.31497950978E+02 -0.40350629940E+02  0.80150807655E+02  0.00000000000E+00 0.  1.
</event>
<event>
12    1  0.8331241E-002  0.1891239E+03  0.7818608E-02  0.1159491E+00
         21   -1    0    0  501  502  0.00000000000E+00  0.00000000000E+00  0.10108938351E+04  0.10108938351E+04  0.00000000000E+00 0. -1.
         21   -1    0    0  502  503 -0.00000000000E+00 -0.00000000000E+00 -0.50958923693E+02  0.50958923693E+02  0.00000000000E+00 0. -1.
         -6    2    1    2    0  503 -0.60386926316E+02  0.51599687107E+02  0.18368954757E+03  0.26290050195E+03  0.17048670170E+03 0.  0.
        -24    2    3    3    0    0 -0.38621986085E+02  0.33777064109E+02  0.20498590815E+02  0.97235970800E+02  0.80013085949E+02 0.  0.
          6    2    1    2  501    0  0.60386926316E+02 -0.51599687107E+02  0.77624536386E+03  0.79895225686E+03  0.17163547204E+03 0.  0.
         24    2    5    5    0    0  0.16300938494E+02  0.27246196456E+02  0.53356690012E+03  0.53996350337E+03  0.76543270430E+02 0.  0.
          5    1    5    5  501    0  0.44085987822E+02 -0.78845883563E+02  0.24267846373E+03  0.25898875350E+03  0.47000000000E+01 0. -1.
        -11    1    6    6    0    0  0.11323447177E+02 -0.15441046803E+02  0.38039746508E+03  0.38087908556E+03  0.00000000000E+00 0.  1.
         12    1    6    6    0    0  0.49774913178E+01  0.42687243258E+02  0.15316943504E+03  0.15908441781E+03  0.00000000000E+00 0. -1.
         -5    1    3    3    0  503 -0.21764940231E+02  0.17822622998E+02  0.16319095675E+03  0.16566453115E+03  0.47000000000E+01 0.  1.
         11    1    4    4    0    0 -0.32571145514E+02  0.49987382218E+02  0.39487360271E+02  0.71546275390E+02  0.00000000000E+00 0. -1.
        -12    1    4    4    0    0 -0.60508405708E+01 -0.16210318109E+02 -0.18988769456E+02  0.25689695410E+02  0.00000000000E+00 0.  1.
</event>
<event>
12    1  0.8331241E-002  0.2170137E+03  0.7818608E-02  0.1136860E+00
         21   -1    0    0  503  502  0.00000000000E+00  0.00000000000E+00  0.21541440073E+03  0.21541440073E+03  0.00000000000E+00 0.  1.
         21   -1    0    0  501  503 -0.00000000000E+00 -0.00000000000E+00 -0.27420395839E+03  0.27420395839E+03  0.00000000000E+00 0.  1.
          6    2    1    2  501    0  0.12061042366E+03 -0.35603450572E+02 -0.14313631331E+03  0.25678937594E+03  0.17215777479E+03 0.  0.
         24    2    3    3    0    0  0.69873266517E+02 -0.76370004806E+02 -0.43390780520E+02  0.13759444161E+03  0.79591579453E+02 0.  0.
         -6    2    1    2    0  502 -0.12061042366E+03  0.35603450572E+02  0.84346755656E+02  0.23282898318E+03  0.17686288540E+03 0.  0.
        -24    2    5    5    0    0 -0.39103394245E+02  0.44578311350E+02 -0.19573646751E+02  0.10036961580E+03  0.78578819316E+02 0.  0.
          5    1    3    3  501    0  0.50737157142E+02  0.40766554234E+02 -0.99745532789E+02  0.11919493433E+03  0.47000000000E+01 0. -1.
        -11    1    4    4    0    0  0.16600530812E+02  0.94785940166E+00 -0.40360936453E+02  0.43651818428E+02  0.00000000000E+00 0.  1.
         12    1    4    4    0    0  0.53272735705E+02 -0.77317864207E+02 -0.30298440669E+01  0.93942623181E+02  0.00000000000E+00 0. -1.
         -5    1    5    5    0  502 -0.81507029415E+02 -0.89748607785E+01  0.10392040241E+03  0.13245936738E+03  0.47000000000E+01 0.  1.
         11    1    6    6    0    0  0.21661603071E+02  0.26697573964E+02 -0.11329619607E+01  0.34398678840E+02  0.00000000000E+00 0. -1.
        -12    1    6    6    0    0 -0.60764997316E+02  0.17880737387E+02 -0.18440684791E+02  0.65970936963E+02  0.00000000000E+00 0.  1.
</event>
<event>
12    1  0.8331241E-002  0.2415838E+03  0.7818608E-02  0.1118861E+00
         21   -1    0    0  503  502  0.00000000000E+00  0.00000000000E+00  0.51395220674E+02  0.51395220674E+02  0.00000000000E+00 0. -1.
         21   -1    0    0  501  503 -0.00000000000E+00 -0.00000000000E+00 -0.12499394811E+04  0.12499394811E+04  0.00000000000E+00 0. -1.
          6    2    1    2  501    0  0.11578494588E+03  0.12490226985E+03 -0.39874581330E+03  0.46584664780E+03  0.17031777634E+03 0.  0.
         24    2    3    3    0    0  0.61341805055E+02  0.11623642689E+03 -0.37182093387E+03  0.40431461103E+03  0.89139070247E+02 0.  0.
         -6    2    1    2    0  502 -0.11578494588E+03 -0.12490226985E+03 -0.79979844713E+03  0.83548805398E+03  0.17133593202E+03 0.  0.
        -24    2    5    5    0    0 -0.25572252455E+02 -0.12048731358E+03 -0.56284380846E+03  0.58185956054E+03  0.81217378962E+02 0.  0.
          5    1    3    3  501    0  0.54443140824E+02  0.86658429608E+01 -0.26924879434E+02  0.61532036773E+02  0.47000000000E+01 0. -1.
        -13    1    4    4    0    0  0.37629158500E+01 -0.27485077685E+01 -0.11839760154E+03  0.11848926484E+03  0.00000000000E+00 0.  1.
         14    1    4    4    0    0  0.57578889205E+02  0.11898493466E+03 -0.25342333232E+03  0.28582534619E+03  0.00000000000E+00 0. -1.
         -5    1    5    5    0  502 -0.90212693423E+02 -0.44149562690E+01 -0.23695463867E+03  0.25362849343E+03  0.47000000000E+01 0.  1.
         13    1    6    6    0    0 -0.50139461028E+02 -0.75249314968E+02 -0.27605333025E+03  0.29048556952E+03  0.00000000000E+00 0. -1.
        -14    1    6    6    0    0  0.24567208573E+02 -0.45237998616E+02 -0.28679047821E+03  0.29137399103E+03  0.00000000000E+00 0.  1.
</event>
<event>
12    1  0.8331241E-002  0.1993608E+03  0.7818608E-02  0.1151337E+00
         21   -1    0    0  501  502  0.00000000000E+00  0.00000000000E+00  0.29014138358E+03  0.29014138358E+03  0.00000000000E+00 0. -1.
         21   -1    0    0  502  503 -0.00000000000E+00 -0.00000000000E+00 -0.13451181667E+03  0.13451181667E+03  0.00000000000E+00 0.  1.
         -6    2    1    2    0  503 -0.33670468776E+02  0.92040863639E+02  0.61494104063E+02  0.20862943666E+03  0.17360730388E+03 0.  0.
        -24    2    3    3    0    0 -0.79149792995E+02  0.50380308376E+02  0.77450126518E+02  0.14474942845E+03  0.78428373288E+02 0.  0.
          6    2    1    2  501    0  0.33670468776E+02 -0.92040863639E+02  0.94135462839E+02  0.21602376359E+03  0.16792724622E+03 0.  0.
         24    2    5    5    0    0  0.63526013941E+02 -0.11319515449E+02  0.78193516266E+02  0.12836804335E+03  0.78742889770E+02 0.  0.
          5    1    5    5  501    0 -0.29855545165E+02 -0.80721348190E+02  0.15941946574E+02  0.87655720243E+02  0.47000000000E+01 0. -1.
        -13    1    6    6    0    0  0.45679691376E+01 -0.30938960860E+02  0.39023821233E+01  0.31516887971E+02  0.00000000000E+00 0.  1.
         14    1    6    6    0    0  0.58958044804E+02  0.19619445411E+02  0.74291134142E+02  0.96851155375E+02  0.00000000000E+00 0. -1.
         -5    1    3    3    0  503  0.45479324219E+02  0.41660555264E+02 -0.15956022455E+02  0.63880008209E+02  0.47000000000E+01 0.  1.
         11    1    4    4    0    0 -0.32395809628E+02  0.49119188019E+02  0.78332376406E+02  0.97970119458E+02  0.00000000000E+00 0. -1.
        -12    1    4    4    0    0 -0.46753983366E+02  0.12611203566E+01 -0.88224988789E+00  0.46779308995E+02  0.00000000000E+00 0.  1.
</event>
<event>
12    1  0.8331241E-002  0.2314562E+03  0.7818608E-02  0.1126460E+00
         21   -1    0    0  503  502  0.00000000000E+00  0.00000000000E+00  0.11853517474E+04  0.11853517474E+04  0.00000000000E+00 0.  1.
         21   -1    0    0  501  503 -0.00000000000E+00 -0.00000000000E+00 -0.67888017314E+02  0.67888017314E+02  0.00000000000E+00 0. -1.
          6    2    1    2  501    0 -0.41462824048E+02 -0.14766065975E+03  0.18535438537E+03  0.29282328728E+03  0.16693230120E+03 0.  0.
         24    2    3    3    0    0  0.19219275663E+01 -0.10585616114E+02  0.31445477578E+02  0.82153293790E+02  0.75130530055E+02 0.  0.
         -6    2    1    2    0  502  0.41462824048E+02  0.14766065975E+03  0.93210934472E+03  0.96041647744E+03  0.17334688749E+03 0.  0.
        -24    2    5    5    0    0  0.62420479690E+02  0.75284574949E+02  0.33092080646E+03  0.35450619569E+03  0.81252563836E+02 0.  0.
          5    1    3    3  501    0 -0.43384751614E+02 -0.13707504363E+03  0.15390890779E+03  0.21066999349E+03  0.47000000000E+01 0. -1.
        -11    1    4    4    0    0  0.31947697828E+02 -0.16172526461E+02  0.36573957447E+02  0.51184571621E+02  0.00000000000E+00 0.  1.
         12    1    4    4    0    0 -0.30025770262E+02  0.55869103471E+01 -0.51284798697E+01  0.30968722169E+02  0.00000000000E+00 0. -1.
         -5    1    5    5    0  502 -0.20957655642E+02  0.72376084800E+02  0.60118853827E+03  0.60591028175E+03  0.47000000000E+01 0.  1.
         11    1    6    6    0    0  0.75630625341E+02  0.33567805990E+02  0.23287412449E+03  0.24713791078E+03  0.00000000000E+00 0. -1.
        -12    1    6    6    0    0 -0.13210145651E+02  0.41716768959E+02  0.98046681964E+02  0.10736828491E+03  0.00000000000E+00 0.  1.
</event>
<event>
12    1  0.8331241E-002  0.1965502E+03  0.7818608E-02  0.1153035E+00
         21   -1    0    0  503  502  0.00000000000E+00  0.00000000000E+00  0.82215650566E+02  0.82215650566E+02  0.00000000000E+00 0.  1.
         21   -1    0    0  501  503 -0.00000000000E+00 -0.00000000000E+00 -0.66165989238E+03  0.66165989238E+03  0.00000000000E+00 0.  1.
          6    2    1    2  501    0  0.24031813324E+01  0.95494427437E+02 -0.49281936422E+03  0.53056845757E+03  0.17177602122E+03 0.  0.
         24    2    3    3    0    0 -0.92542646724E+01  0.68883210932E+02 -0.48808866095E+03  0.50076036396E+03  0.87748863259E+02 0.  0.
         -6    2    1    2    0  502 -0.24031813324E+01 -0.95494427437E+02 -0.86624877590E+02  0.21330708537E+03  0.16991492666E+03 0.  0.
        -24    2    5    5    0    0 -0.58878434943E+02 -0.96672442688E+02 -0.69379358689E+02  0.15405896378E+03  0.78156494494E+02 0.  0.
          5    1    3    3  501    0  0.11657446005E+02  0.26611216505E+02 -0.47307032723E+01  0.29808093610E+02  0.47000000000E+01 0. -1.
        -11    1    4    4    0    0  0.33322040163E+02  0.23034688626E+02 -0.10403473702E+03  0.11164309986E+03  0.00000000000E+00 0.  1.
         12    1    4    4    0    0 -0.42576304835E+02  0.45848522306E+02 -0.38405392393E+03  0.38911726410E+03  0.00000000000E+00 0. -1.
         -5    1    5    5    0  502  0.56475253611E+02  0.11780152512E+01 -0.17245518901E+02  0.59248121595E+02  0.47000000000E+01 0.  1.
         11    1    6    6    0    0 -0.10221771496E+02 -0.26700997507E+02 -0.62290595042E+02  0.68538646843E+02  0.00000000000E+00 0. -1.
        -12    1    6    6    0    0 -0.48656663448E+02 -0.69971445182E+02 -0.70887636471E+01  0.85520316935E+02  0.00000000000E+00 0.  1.
</event>
<event>
12    1  0.8331241E-002  0.1960412E+03  0.7818608E-02  0.1153325E+00
         21   -1    0    0  501  502  0.00000000000E+00  0.00000000000E+00  0.27556671276E+03  0.27556671276E+03  0.00000000000E+00 0.  1.
         21   -1    0    0  502  503 -0.00000000000E+00 -0.00000000000E+00 -0.34208893911E+03  0.34208893911E+03  0.00000000000E+00 0.  1.
         -6    2    1    2    0  503  0.34502096415E+02 -0.88032813013E+02 -0.27129567532E+03  0.33416963582E+03  0.17066877638E+03 0.  0.
        -24    2    3    3    0    0  0.38131275213E+02  0.74720158614E+00 -0.20707289948E+03  0.22443487894E+03  0.77699914581E+02 0.  0.
          6    2    1    2  501    0 -0.34502096415E+02  0.88032813013E+02  0.20477344897E+03  0.28348601605E+03  0.17173230643E+03 0.  0.
         24    2    5    5    0    0 -0.72699712659E+02  0.28989649675E+02  0.16548078282E+03  0.20279427771E+03  0.87269591382E+02 0.  0.
          5    1    5    5  501    0  0.38197616245E+02  0.59043163338E+02  0.39292666151E+02  0.80691738344E+02  0.47000000000E+01 0. -1.
        -13    1    6    6    0    0  0.19189639564E+02 -0.24374177332E+01  0.19547388796E+02  0.27500612367E+02  0.00000000000E+00 0.  1.
         14    1    6    6    0    0 -0.91889352224E+02  0.31427067408E+02  0.14593339402E+03  0.17529366534E+03  0.00000000000E+00 0. -1.
         -5    1    3    3    0  503 -0.36291787982E+01 -0.88780014600E+02 -0.64222775842E+02  0.10973475688E+03  0.47000000000E+01 0.  1.
         11    1    4    4    0    0  0.44652491211E+02  0.10654703092E+02 -0.53883582498E+02  0.70787061898E+02  0.00000000000E+00 0. -1.
        -12    1    4    4    0    0 -0.65212159982E+01 -0.99075015057E+01 -0.15318931698E+03  0.15364781704E+03  0.00000000000E+00 0.  1.
</event>
<event>
12    1  0.8331241E-002  0.2112191E+03  0.7818608E-02  0.1140638E+00
         21   -1    0    0  503  502  0.00000000000E+00  0.00000000000E+00  0.45241196259E+03  0.45241196259E+03  0.00000000000E+00 0. -1.
         21   -1    0    0  501  503 -0.00000000000E+00 -0.00000000000E+00 -0.12704297259E+03  0.12704297259E+03  0.00000000000E+00 0. -1.
          6    2    1    2  501    0 -0.50476727843E+02 -0.11051076372E+03  0.25385106450E+02  0.21257100120E+03  0.17257316700E+03 0.  0.
         24    2    3    3    0    0 -0.74680130944E+01 -0.12240037596E+03 -0.21577048765E+02  0.14761989308E+03  0.79299688162E+02 0.  0.
         -6    2    1    2    0  502  0.50476727843E+02  0.11051076372E+03  0.29998388354E+03  0.36688393398E+03  0.17278009630E+03 0.  0.
        -24    2    5    5    0    0  0.45282176199E+02  0.13255449304E+02  0.22724047894E+03  0.24523167358E+03  0.79209570379E+02 0.  0.
          5    1    3    3  501    0 -0.43008714748E+02  0.11889612246E+02  0.46962155215E+02  0.64951108121E+02  0.47000000000E+01 0. -1.
        -13    1    4    4    0    0 -0.16412674500E+02  0.45283069030E+01  0.47612784042E+01  0.17679118182E+02  0.00000000000E+00 0.  1.
         14    1    4    4    0    0  0.89446614052E+01 -0.12692868287E+03 -0.26338327169E+02  0.12994077489E+03  0.00000000000E+00 0. -1.
         -5    1    5    5    0  502  0.51945516442E+01  0.97255314414E+02  0.72743404605E+02  0.12165226041E+03  0.47000000000E+01 0.  1.
         13    1    6    6    0    0  0.58616769936E+02  0.69782292146E+01  0.92787722850E+02  0.10997355551E+03  0.00000000000E+00 0. -1.
        -14    1    6    6    0    0 -0.13334593737E+02  0.62772200892E+01  0.13445275609E+03  0.13525811806E+03  0.00000000000E+00 0.  1.
</event>
<event>
12    1  0.8331241E-002  0.1877756E+03  0.7818608E-02  0.1160721E+00
         21   -1    0    0  503  502  0.00000000000E+00  0.00000000000E+00  0.54870854134E+02  0.54870854134E+02  0.00000000000E+00 0. -1.
         21   -1    0    0  501  503 -0.00000000000E+00 -0.00000000000E+00 -0.67818448606E+03  0.67818448606E+03  0.00000000000E+00 0. -1.
          6    2    1    2  501    0 -0.70132655293E+02  0.26674957435E+02 -0.40051033183E+03  0.44234397841E+03  0.17213229402E+03 0.  0.
         24    2    3    3    0    0 -0.94640368856E+02  0.47788174183E+02 -0.20875773383E+03  0.24782522666E+03  0.81222180007E+02 0.  0.
         -6    2    1    2    0  502  0.70132655293E+02 -0.26674957435E+02 -0.22280330010E+03  0.29071136178E+03  0.17100187906E+03 0.  0.
        -24    2    5    5    0    0 -0.16109462960E+02 -0.51574781591E+02 -0.13266431860E+03  0.16341316781E+03  0.78642031320E+02 0.  0.
          5    1    3    3  501    0  0.24507713563E+02 -0.21113216748E+02 -0.19175259799E+03  0.19451875175E+03  0.47000000000E+01 0. -1.
        -11    1    4    4    0    0 -0.31920218542E+02 -0.99844470581E+01 -0.16056917343E+02  0.37100055652E+02  0.00000000000E+00 0.  1.
         12    1    4    4    0    0 -0.62720150314E+02  0.57772621241E+02 -0.19270081649E+03  0.21072517101E+03  0.00000000000E+00 0. -1.
         -5    1    5    5    0  502  0.86242118253E+02  0.24899824156E+02 -0.90138981497E+02  0.12729819397E+03  0.47000000000E+01 0.  1.
         11    1    6    6    0    0 -0.12023950158E+02  0.16153210091E+02 -0.83744975594E+01  0.21809029850E+02  0.00000000000E+00 0. -1.
        -12    1    6    6    0    0 -0.40855128025E+01 -0.67727991682E+02 -0.12428982104E+03  0.14160413796E+03  0.00000000000E+00 0.  1.
</event>
<event>
12    1  0.8331241E-002  0.2235968E+03  0.7818608E-02  0.1131340E+00
         21   -1    0    0  503  502  0.00000000000E+00  0.00000000000E+00  0.31683249120E+03  0.31683249120E+03  0.00000000000E+00 0. -1.
         21   -1    0    0  501  503 -0.00000000000E+00 -0.00000000000E+00 -0.23903630488E+03  0.23903630488E+03  0.00000000000E+00 0.  1.
          6    2    1    2  501    0 -0.14320852189E+03 -0.36992481106E+01  0.20138588452E+03  0.30091825920E+03  0.17167748559E+03 0.  0.
         24    2    3    3    0    0 -0.99423774187E+02 -0.67828313138E+02  0.14573166951E+03  0.20526721236E+03  0.80069607445E+02 0.  0.
         -6    2    1    2    0  502  0.14320852189E+03  0.36992481106E+01 -0.12358969819E+03  0.25495053688E+03  0.17088884568E+03 0.  0.
        -24    2    5    5    0    0  0.56368313483E+01  0.23764807892E+02 -0.46703517517E+02  0.96009757006E+02  0.80250326666E+02 0.  0.
          5    1    3    3  501    0 -0.43784747707E+02  0.64129065027E+02  0.55654215011E+02  0.95651046840E+02  0.47000000000E+01 0. -1.
        -13    1    4    4    0    0 -0.18947751836E+02 -0.60795758424E+02  0.67943348745E+02  0.93120567978E+02  0.00000000000E+00 0.  1.
         14    1    4    4    0    0 -0.80476022351E+02 -0.70325547143E+01  0.77788320762E+02  0.11214664438E+03  0.00000000000E+00 0. -1.
         -5    1    5    5    0  502  0.13757169055E+03 -0.20065559782E+02 -0.76886180672E+02  0.15894077988E+03  0.47000000000E+01 0.  1.
         11    1    6    6    0    0 -0.19959413165E+01  0.44763585091E+02 -0.63900555477E+00  0.44812617196E+02  0.00000000000E+00 0. -1.
        -12    1    6    6    0    0  0.76327726648E+01 -0.20998777198E+02 -0.46064511962E+02  0.51197139809E+02  0.00000000000E+00 0.  1.
</event>
<event>
12    1  0.8331241E-002  0.2086487E+03  0.7818608E-02  0.1143417E+00
         21   -1    0    0  503  502  0.00000000000E+00  0.00000000000E+00  0.91636561313E+03  0.91636561313E+03  0.00000000000E+00 0.  1.
         21   -1    0    0  501  503 -0.00000000000E+00 -0.00000000000E+00 -0.47530998324E+02  0.47530998324E+02  0.00000000000E+00 0. -1.
          6    2    1    2  501    0 -0.10447138965E+03  0.36482927529E+02  0.49660450162E+03  0.53717710357E+03  0.17233088614E+03 0.  0.
         24    2    3    3    0    0  0.10442575935E+02 -0.20256207386E+01  0.21381929657E+03  0.22947970357E+03  0.82638321812E+02 0.  0.
         -6    2    1    2    0  502  0.10447138965E+03 -0.36482927529E+02  0.37223011319E+03  0.42671950788E+03  0.17688698648E+03 0.  0.
        -24    2    5    5    0    0  0.59062179952E+02  0.46504236575E+02  0.21755131945E+03  0.24534562618E+03  0.84940653230E+02 0.  0.
          5    1    3    3  501    0 -0.11491396558E+03  0.38508548267E+02  0.28278520505E+03  0.30769740000E+03  0.47000000000E+01 0. -1.
        -11    1    4    4    0    0  0.95504769987E+01 -0.41584298266E+02  0.12927258950E+03  0.13613180330E+03  0.00000000000E+00 0.  1.
         12    1    4    4    0    0  0.89209893596E+00  0.39558677527E+02  0.84546707074E+02  0.93347900272E+02  0.00000000000E+00 0. -1.
         -5    1    5    5    0  502  0.45409209697E+02 -0.82987164104E+02  0.15467879374E+03  0.18137388170E+03  0.47000000000E+01 0.  1.
         13    1    6    6    0    0 -0.93484876982E+01 -0.50947466512E+01 -0.90491865504E+00  0.10685014902E+02  0.00000000000E+00 0. -1.
        -14    1    6    6    0    0  0.68410667650E+02  0.51598983227E+02  0.21845623810E+03  0.23466061128E+03  0.00000000000E+00 0.  1.
</event>
<event>
12    1  0.8331241E-002  0.2542509E+03  0.7818608E-02  0.1110783E+00
         21   -1    0    0  503  502  0.00000000000E+00  0.00000000000E+00  0.13664494222E+03  0.13664494222E+03  0.00000000000E+00 0. -1.
         21   -1    0    0  501  503 -0.00000000000E+00 -0.00000000000E+00 -0.48107391321E+03  0.48107391321E+03  0.00000000000E+00 0.  1.
          6    2    1    2  501    0  0.13863315955E+03  0.12532944794E+03 -0.21561908530E+03  0.33270046639E+03  0.17108882764E+03 0.  0.
         24    2    3    3    0    0  0.41051548634E+02  0.10590461574E+03 -0.17506574397E+03  0.22515439074E+03  0.84530868187E+02 0.  0.
         -6    2    1    2    0  502 -0.13863315955E+03 -0.12532944794E+03 -0.12880988569E+03  0.28501838904E+03  0.17238582306E+03 0.  0.
        -24    2    5    5    0    0 -0.22184131824E+02 -0.10720407455E+03 -0.69900484803E+02  0.15318018239E+03  0.81198775838E+02 0.  0.
          5    1    3    3  501    0  0.97581610920E+02  0.19424832200E+02 -0.40553341329E+02  0.10754607565E+03  0.47000000000E+01 0. -1.
        -13    1    4    4    0    0  0.30478825047E+01  0.39210777953E+02 -0.13071078231E+03  0.13649938940E+03  0.00000000000E+00 0.  1.
         14    1    4    4    0    0  0.38003666130E+02  0.66693837786E+02 -0.44354961663E+02  0.88655001337E+02  0.00000000000E+00 0. -1.
         -5    1    5    5    0  502 -0.11644902773E+03 -0.18125373391E+02 -0.58909400890E+02  0.13183820665E+03  0.47000000000E+01 0.  1.
         11    1    6    6    0    0  0.36135474461E+01 -0.13803657113E+02  0.17575373987E+02  0.22638295997E+02  0.00000000000E+00 0. -1.
        -12    1    6    6    0    0 -0.25797679270E+02 -0.93400417434E+02 -0.87475858790E+02  0.13054188639E+03  0.00000000000E+00 0.  1.
</event>
<event>
12    1  0.8331241E-002  0.1896637E+03  0.7818608E-02  0.1159014E+00
         21   -1    0    0  501  502  0.00000000000E+00  0.00000000000E+00  0.46341722047E+02  0.46341722047E+02  0.00000000000E+00 0. -1.
         21   -1    0    0  502  503 -0.00000000000E+00 -0.00000000000E+00 -0.79292507182E+03  0.79292507182E+03  0.00000000000E+00 0. -1.
         -6    2    1    2    0  503  0.71993567193E+02  0.34988470431E+02 -0.44293311193E+03  0.48183198469E+03  0.17194491282E+03 0.  0.
        -24    2    3    3    0    0  0.61285836672E+02  0.79672258562E+02 -0.22693445198E+03  0.26095009879E+03  0.80573482027E+02 0.  0.
          6    2    1    2  501    0 -0.71993567193E+02 -0.34988470431E+02 -0.30365023784E+03  0.35743480917E+03  0.17073051599E+03 0.  0.
         24    2    5    5    0    0 -0.98875692900E+02  0.10886191842E+02 -0.16427286934E+03  0.20818577510E+03  0.80379285485E+02 0.  0.
          5    1    5    5  501    0  0.26882125708E+02 -0.45874662273E+02 -0.13937736850E+03  0.14924903407E+03  0.47000000000E+01 0. -1.
        -13    1    6    6    0    0 -0.16318916359E+01  0.28035786205E+02 -0.25974129549E+02  0.38253415328E+02  0.00000000000E+00 0.  1.
         14    1    6    6    0    0 -0.97243801264E+02 -0.17149594363E+02 -0.13829873979E+03  0.16993235978E+03  0.00000000000E+00 0. -1.
         -5    1    3    3    0  503  0.10707730521E+02 -0.44683788131E+02 -0.21599865996E+03  0.22088188590E+03  0.47000000000E+01 0.  1.
         13    1    4    4    0    0  0.69194648163E+02  0.73417499388E+02 -0.22937027500E+03  0.25057683772E+03  0.00000000000E+00 0. -1.
        -14    1    4    4    0    0 -0.79088114916E+01  0.62547591737E+01  0.24358230182E+01  0.10373261074E+02  0.00000000000E+00 0.  1.
</event>
<event>
12    1  0.8331241E-002  0.1952933E+03  0.7818608E-02  0.1153822E+00
         21   -1    0    0  503  502  0.00000000000E+00  0.00000000000E+00  0.52563498007E+03  0.52563498007E+03  0.00000000000E+00 0. -1.
         21   -1    0    0  501  503 -0.00000000000E+00 -0.00000000000E+00 -0.82064124744E+02  0.82064124744E+02  0.00000000000E+00 0. -1.
          6    2    1    2  501    0 -0.13535866676E+02 -0.90935740049E+02  0.11779726589E+03  0.22787296596E+03  0.17203884521E+03 0.  0.
         24    2    3    3    0    0  0.40621136883E+01 -0.86680658970E+02  0.15009538606E+03  0.19054933813E+03  0.79059395000E+02 0.  0.
         -6    2    1    2    0  502  0.13535866676E+02  0.90935740049E+02  0.32577358944E+03  0.37982613885E+03  0.17229897178E+03 0.  0.
        -24    2    5    5    0    0 -0.27946236541E+02  0.99236738995E+01  0.73019308487E+02  0.11114317273E+03  0.78367812214E+02 0.  0.
          5    1    3    3  501    0 -0.17597980364E+02 -0.42550810786E+01 -0.32298120171E+02  0.37323627831E+02  0.47000000000E+01 0. -1.
        -11    1    4    4    0    0 -0.16535841691E+02 -0.44774328639E+02  0.18976994436E+02  0.51364393147E+02  0.00000000000E+00 0.  1.
         12    1    4    4    0    0  0.20597955379E+02 -0.41906330331E+02  0.13111839163E+03  0.13918494498E+03  0.00000000000E+00 0. -1.
         -5    1    5    5    0  502  0.41482103217E+02  0.81012066149E+02  0.25275428095E+03  0.26868296613E+03  0.47000000000E+01 0.  1.
         13    1    6    6    0    0 -0.40786826453E+02  0.33700685755E+02  0.63126358659E+02  0.82366489485E+02  0.00000000000E+00 0. -1.
        -14    1    6    6    0    0  0.12840589912E+02 -0.23777011855E+02  0.98929498273E+01  0.28776683241E+02  0.00000000000E+00 0.  1.
</event>
<event>
12    1  0.8331241E-002  0.2956557E+03  0.7818608E-02  0.1088463E+00
         21   -1    0    0  501  502  0.00000000000E+00  0.00000000000E+00  0.41222946200E+03  0.41222946200E+03  0.00000000000E+00 0. -1.
         21   -1    0    0  502  503 -0.00000000000E+00 -0.00000000000E+00 -0.21788750505E+03  0.21788750505E+03  0.00000000000E+00 0.  1.
         -6    2    1    2    0  503  0.14860605440E+03 -0.17249873722E+03  0.25986830725E+02  0.29679559509E+03  0.18860735974E+03 0.  0.
        -24    2    3    3    0    0 -0.71297784876E+01 -0.45536008198E+02 -0.70350331766E+01  0.93115164755E+02  0.80601367431E+02 0.  0.
          6    2    1    2  501    0 -0.14860605440E+03  0.17249873722E+03  0.16835512623E+03  0.33332137196E+03  0.17584116336E+03 0.  0.
         24    2    5    5    0    0 -0.15431475540E+03  0.10933967028E+03  0.17450739147E+03  0.26943399159E+03  0.79835073214E+02 0.  0.
          5    1    5    5  501    0  0.57087009982E+01  0.63159066940E+02 -0.61522652380E+01  0.63887380376E+02  0.47000000000E+01 0. -1.
        -11    1    6    6    0    0 -0.94020532698E+02  0.34243379380E+02  0.49515102066E+02  0.11164324849E+03  0.00000000000E+00 0.  1.
         12    1    6    6    0    0 -0.60294222700E+02  0.75096290898E+02  0.12499228940E+03  0.15779074310E+03  0.00000000000E+00 0. -1.
         -5    1    3    3    0  503  0.15573583289E+03 -0.12696272902E+03  0.33021863902E+02  0.20368043033E+03  0.47000000000E+01 0.  1.
         13    1    4    4    0    0 -0.34275245338E+02 -0.17476672991E+02 -0.29128195384E+02  0.48256381010E+02  0.00000000000E+00 0. -1.
        -14    1    4    4    0    0  0.27145466851E+02 -0.28059335206E+02  0.22093162208E+02  0.44858783745E+02  0.00000000000E+00 0.  1.
</event>
<event>
12    1  0.8331241E-002  0.1851270E+03  0.7818608E-02  0.1162997E+00
         21   -1    0    0  503  502  0.00000000000E+00  0.00000000000E+00  0.31178077571E+03  0.31178077571E+03  0.00000000000E+00 0.  1.
         21   -1    0    0  501  503 -0.00000000000E+00 -0.00000000000E+00 -0.16824799539E+03  0.16824799539E+03  0.00000000000E+00 0.  1.
          6    2    1    2  501    0 -0.57386377718E+02 -0.35974644197E+02  0.21324659587E+03  0.28221060346E+03  0.17199227507E+03 0.  0.
         24    2    3    3    0    0 -0.16429492126E+02 -0.61991360131E+02  0.21018991506E+03  0.23336626620E+03  0.78531247684E+02 0.  0.
         -6    2    1    2    0  502  0.57386377718E+02  0.35974644197E+02 -0.69713815561E+02  0.19781816763E+03  0.17229230973E+03 0.  0.
        -24    2    5    5    0    0 -0.10724552864E+02  0.75860733964E+01  0.17985571977E+02  0.83108610964E+02  0.80068694715E+02 0.  0.
          5    1    3    3  501    0 -0.40956885591E+02  0.26016715934E+02  0.30566808098E+01  0.48844337265E+02  0.47000000000E+01 0. -1.
        -11    1    4    4    0    0  0.17477383606E+02  0.10310756039E+02  0.58833227099E+02  0.62234389518E+02  0.00000000000E+00 0.  1.
         12    1    4    4    0    0 -0.33906875733E+02 -0.72302116171E+02  0.15135668797E+03  0.17113187668E+03  0.00000000000E+00 0. -1.
         -5    1    5    5    0  502  0.68110930581E+02  0.28388570801E+02 -0.87699387538E+02  0.11470955667E+03  0.47000000000E+01 0.  1.
         11    1    6    6    0    0  0.14555797781E+02 -0.29137799833E+02  0.20445925124E+02  0.38456709198E+02  0.00000000000E+00 0. -1.
        -12    1    6    6    0    0 -0.25280350644E+02  0.36723873230E+02 -0.24603531475E+01  0.44651901766E+02  0.00000000000E+00 0.  1.
</event>
<event>
12    1  0.8331241E-002  0.2155653E+03  0.7818608E-02  0.1137263E+00
         21   -1    0    0  503  502  0.00000000000E+00  0.00000000000E+00  0.31415468620E+03  0.31415468620E+03  0.00000000000E+00 0. -1.
         21   -1    0    0  501  503 -0.00000000000E+00 -0.00000000000E+00 -0.15294116546E+03  0.15294116546E+03  0.00000000000E+00 0. -1.
          6    2    1    2  501    0 -0.12858281491E+03 -0.17470125399E+02  0.37852328059E+02  0.21886342522E+03  0.17213266566E+03 0.  0.
         24    2    3    3    0    0 -0.65930325648E+02  0.48544568703E+02  0.54047716655E+02  0.12630179785E+03  0.79546247398E+02 0.  0.
         -6    2    1    2    0  502  0.12858281491E+03  0.17470125399E+02  0.12336119268E+03  0.24823242644E+03  0.17193780302E+03 0.  0.
        -24    2    5    5    0    0  0.14974260309E+03  0.37473538677E+01  0.13812157246E+03  0.21863496193E+03  0.79289267619E+02 0.  0.
          5    1    3    3  501    0 -0.62652489260E+02 -0.66014694102E+02 -0.16195388596E+02  0.92561627361E+02  0.47000000000E+01 0. -1.
        -13    1    4    4    0    0 -0.10166977813E+02 -0.20147279774E+02  0.23798431058E+02  0.32797037076E+02  0.00000000000E+00 0.  1.
         14    1    4    4    0    0 -0.55763347835E+02  0.68691848478E+02  0.30249285597E+02  0.93504760778E+02  0.00000000000E+00 0. -1.
         -5    1    5    5    0  502 -0.21159788185E+02  0.13722771531E+02 -0.14760379772E+02  0.29597464511E+02  0.47000000000E+01 0.  1.
         13    1    6    6    0    0  0.81017316194E+02 -0.26088192034E+02  0.37064583209E+02  0.92834167284E+02  0.00000000000E+00 0. -1.
        -14    1    6    6    0    0  0.68725286900E+02  0.29835545901E+02  0.10105698925E+03  0.12580079465E+03  0.00000000000E+00 0.  1.
</event>
<event>
12    1  0.8331241E-002  0.2177224E+03  0.7818608E-02  0.1135634E+00
         21   -1    0    0  501  502  0.00000000000E+00  0.00000000000E+00  0.10129293938E+04  0.10129293938E+04  0.00000000000E+00 0. -1.
         21   -1    0    0  502  503 -0.00000000000E+00 -0.00000000000E+00 -0.48277948841E+02  0.48277948841E+02  0.00000000000E+00 0.  1.
         -6    2    1    2    0  503  0.82694741070E+02  0.10405693889E+03  0.57646385459E+03  0.61613135531E+03  0.17216563136E+03 0.  0.
        -24    2    3    3    0    0  0.23483747310E+02  0.81535892067E+02  0.51321120697E+03  0.52648690896E+03  0.81259671781E+02 0.  0.
          6    2    1    2  501    0 -0.82694741070E+02 -0.10405693889E+03  0.38818759041E+03  0.44507598736E+03  0.17244350510E+03 0.  0.
         24    2    5    5    0    0 -0.73565351614E+02 -0.19195954452E+02  0.12003938019E+03  0.16363276916E+03  0.81153464014E+02 0.  0.
          5    1    5    5  501    0 -0.91293894560E+01 -0.84860984436E+02  0.26814821021E+03  0.28144321820E+03  0.47000000000E+01 0. -1.
        -11    1    6    6    0    0 -0.57012352432E+02 -0.41952040623E+02  0.45978564521E+02  0.84406222742E+02  0.00000000000E+00 0.  1.
         12    1    6    6    0    0 -0.16552999182E+02  0.22756086171E+02  0.74060815672E+02  0.79226546421E+02  0.00000000000E+00 0. -1.
         -5    1    3    3    0  503  0.59210993760E+02  0.22521046820E+02  0.63252647619E+02  0.89644446358E+02  0.47000000000E+01 0.  1.
         11    1    4    4    0    0  0.71127774431E+01 -0.15140003357E+02  0.12360386629E+03  0.12473061800E+03  0.00000000000E+00 0. -1.
        -12    1    4    4    0    0  0.16370969867E+02  0.96675895424E+02  0.38960734068E+03  0.40175629095E+03  0.00000000000E+00 0.  1.
</event>
<event>
12    1  0.8331241E-002  0.3431910E+03  0.7818608E-02  0.1065473E+00
         21   -1    0    0  503  502  0.00000000000E+00  0.00000000000E+00  0.30962223855E+04  0.30962223855E+04  0.00000000000E+00 0.  1.
         21   -1    0    0  501  503 -0.00000000000E+00 -0.00000000000E+00 -0.39078543021E+02  0.39078543021E+02  0.00000000000E+00 0.  1.
          6    2    1    2  501    0 -0.27952073616E+02  0.29598584636E+03  0.12700105033E+04  0.13155632717E+04  0.17143833749E+03 0.  0.
         24    2    3    3    0    0  0.40606555360E+02  0.14012270783E+03  0.50267493909E+03  0.52954828346E+03  0.80349390403E+02 0.  0.
         -6    2    1    2    0  502  0.27952073616E+02 -0.29598584636E+03  0.17871333391E+04  0.18197376568E+04  0.17091117040E+03 0.  0.
        -24    2    5    5    0    0  0.73974158313E+01 -0.11045139398E+03  0.10732762334E+04  0.10818626102E+04  0.79060749138E+02 0.  0.
          5    1    3    3  501    0 -0.68558628977E+02  0.15586313853E+03  0.76733556424E+03  0.78601498822E+03  0.47000000000E+01 0. -1.
        -11    1    4    4    0    0 -0.10831673864E+02 -0.12211336583E+01  0.83409594775E+02  0.84118825638E+02  0.00000000000E+00 0.  1.
         12    1    4    4    0    0  0.51438229224E+02  0.14134384148E+03  0.41926534431E+03  0.44542945782E+03  0.00000000000E+00 0. -1.
         -5    1    5    5    0  502  0.20554657785E+02 -0.18553445238E+03  0.71385710577E+03  0.73787504662E+03  0.47000000000E+01 0.  1.
         13    1    6    6    0    0  0.41559073919E+02 -0.53130555266E+02  0.62837061376E+03  0.63198072816E+03  0.00000000000E+00 0. -1.
        -14    1    6    6    0    0 -0.34161658088E+02 -0.57320838714E+02  0.44490561959E+03  0.44988188203E+03  0.00000000000E+00 0.  1.
</event>
<event>
12    1  0.8331241E-002  0.2607170E+03  0.7818608E-02  0.1107170E+00
         21   -1    0    0  503  502  0.00000000000E+00  0.00000000000E+00  0.73256401677E+02  0.73256401677E+02  0.00000000000E+00 0. -1.
         21   -1    0    0  501  503 -0.00000000000E+00 -0.00000000000E+00 -0.92743903140E+03  0.92743903140E+03  0.00000000000E+00 0. -1.
          6    2    1    2  501    0  0.11204143077E+03  0.15863500995E+03 -0.47741295314E+03  0.54251563513E+03  0.16935683613E+03 0.  0.
         24    2    3    3    0    0  0.62029870381E+01  0.90665673868E+02 -0.17400573651E+03  0.21403483520E+03  0.85288761712E+02 0.  0.
         -6    2    1    2    0  502 -0.11204143077E+03 -0.15863500995E+03 -0.37676967658E+03  0.45817979795E+03  0.17393961441E+03 0.  0.
        -24    2    5    5    0    0 -0.12744772336E+03 -0.88801048578E+02 -0.18794696669E+03  0.25621385581E+03  0.78695166324E+02 0.  0.
          5    1    3    3  501    0  0.10583844373E+03  0.67969336085E+02 -0.30340721663E+03  0.32848079993E+03  0.47000000000E+01 0. -1.
        -11    1    4    4    0    0 -0.48027983519E+00 -0.16219526287E+02 -0.34830899538E+02  0.38425190491E+02  0.00000000000E+00 0.  1.
         12    1    4    4    0    0  0.66832668733E+01  0.10688520015E+03 -0.13917483697E+03  0.17560964471E+03  0.00000000000E+00 0. -1.
         -5    1    5    5    0  502  0.15406292586E+02 -0.69833961376E+02 -0.18882270989E+03  0.20196594214E+03  0.47000000000E+01 0.  1.
         13    1    6    6    0    0 -0.12663187384E+03 -0.10092776156E+03 -0.17331047558E+03  0.23718888142E+03  0.00000000000E+00 0. -1.
        -14    1    6    6    0    0 -0.81584951670E+00  0.12126712984E+02 -0.14636491111E+02  0.19024974383E+02  0.00000000000E+00 0.  1.
</event>
<event>
12    1  0.8331241E-002  0.2480162E+03  0.7818608E-02  0.1115009E+00
         21   -1    0    0  503  502  0.00000000000E+00  0.00000000000E+00  0.93798283861E+02  0.93798283861E+02  0.00000000000E+00 0. -1.
         21   -1    0    0  501  503 -0.00000000000E+00 -0.00000000000E+00 -0.71135907270E+03  0.71135907270E+03  0.00000000000E+00 0. -1.
          6    2    1    2  501    0 -0.16772532228E+03  0.66923176775E+02 -0.43002126218E+03  0.49641750578E+03  0.17000458463E+03 0.  0.
         24    2    3    3    0    0 -0.25066028711E+02  0.15658344640E+02 -0.71869401911E+02  0.10747714780E+03  0.74247133382E+02 0.  0.
         -6    2    1    2    0  502  0.16772532228E+03 -0.66923176775E+02 -0.18753952667E+03  0.30873985078E+03  0.16594796195E+03 0.  0.
        -24    2    5    5    0    0  0.19054200961E+03 -0.60482168583E+02 -0.14475448442E+03  0.25959987065E+03  0.80460437129E+02 0.  0.
          5    1    3    3  501    0 -0.14265929357E+03  0.51264832135E+02 -0.35815186027E+03  0.38894035798E+03  0.47000000000E+01 0. -1.
        -13    1    4    4    0    0  0.63800489271E+01  0.17987603652E+02 -0.73465904164E+02  0.75904532039E+02  0.00000000000E+00 0.  1.
         14    1    4    4    0    0 -0.31446077638E+02 -0.23292590122E+01  0.15965022533E+01  0.31572615758E+02  0.00000000000E+00 0. -1.
         -5    1    5    5    0  502 -0.22816687326E+02 -0.64410081924E+01 -0.42785042250E+02  0.49139980132E+02  0.47000000000E+01 0.  1.
         13    1    6    6    0    0  0.19188240618E+02 -0.18273458440E+02  0.63775944086E+01  0.27254019370E+02  0.00000000000E+00 0. -1.
        -14    1    6    6    0    0  0.17135376899E+03 -0.42208710142E+02 -0.15113207882E+03  0.23234585128E+03  0.00000000000E+00 0.  1.
</event>
<event>
12    1  0.8331241E-002  0.2574525E+03  0.7818608E-02  0.1109302E+00
         21   -1    0    0  501  502  0.00000000000E+00  0.00000000000E+00  0.37989863215E+03  0.37989863215E+03  0.00000000000E+00 0. -1.
         21   -1    0    0  502  503 -0.00000000000E+00 -0.00000000000E+00 -0.21267440620E+03  0.21267440620E+03  0.00000000000E+00 0.  1.
         -6    2    1    2    0  503 -0.54361419302E+02  0.18350706968E+03 -0.46889372329E+02  0.25772021437E+03  0.16610565049E+03 0.  0.
        -24    2    3    3    0    0 -0.65698857876E+02  0.19990795892E+03 -0.61739456332E+02  0.23241919312E+03  0.76989537567E+02 0.  0.
          6    2    1    2  501    0  0.54361419302E+02 -0.18350706968E+03  0.21411359828E+03  0.33485282399E+03  0.17219689960E+03 0.  0.
         24    2    5    5    0    0  0.48745808824E+02 -0.14407595962E+03  0.23379442029E+03  0.29017875682E+03  0.80061500938E+02 0.  0.
          5    1    5    5  501    0  0.56156104786E+01 -0.39431110062E+02 -0.19680822017E+02  0.44674067165E+02  0.47000000000E+01 0. -1.
        -13    1    6    6    0    0  0.18663201169E+02 -0.78986070658E+02  0.56381358409E+02  0.98822932621E+02  0.00000000000E+00 0.  1.
         14    1    6    6    0    0  0.30082607655E+02 -0.65089888960E+02  0.17741306188E+03  0.19135582420E+03  0.00000000000E+00 0. -1.
         -5    1    3    3    0  503  0.11337438574E+02 -0.16400889242E+02  0.14850084003E+02  0.25301021249E+02  0.47000000000E+01 0.  1.
         13    1    4    4    0    0 -0.56407398902E+02  0.54912144859E+02 -0.24134022864E+02  0.82338261844E+02  0.00000000000E+00 0. -1.
        -14    1    4    4    0    0 -0.92914589744E+01  0.14499581406E+03 -0.37605433468E+02  0.15008093127E+03  0.00000000000E+00 0.  1.
</event>
<event>
12    1  0.8331241E-002  0.1939223E+03  0.7818608E-02  0.1155086E+00
         21   -1    0    0  503  502  0.00000000000E+00  0.00000000000E+00  0.15413554864E+03  0.15413554864E+03  0.00000000000E+00 0.  1.
         21   -1    0    0  501  503 -0.00000000000E+00 -0.00000000000E+00 -0.31329621058E+03  0.31329621058E+03  0.00000000000E+00 0.  1.
          6    2    1    2  501    0 -0.16335710338E+02  0.86593072400E+02 -0.18995306273E+03  0.27107991224E+03  0.17215381830E+03 0.  0.
         24    2    3    3    0    0 -0.64609507175E+02  0.10213486715E+03 -0.13355967858E+03  0.19509168538E+03  0.74944369067E+02 0.  0.
         -6    2    1    2    0  502  0.16335710338E+02 -0.86593072400E+02  0.30792400797E+02  0.19635184698E+03  0.17274449412E+03 0.  0.
        -24    2    5    5    0    0 -0.25958181554E+02  0.14279057101E+02  0.81880687264E+01  0.84561840142E+02  0.78777799395E+02 0.  0.
          5    1    3    3  501    0  0.48273796837E+02 -0.15541794753E+02 -0.56393384152E+02  0.75988226859E+02  0.47000000000E+01 0. -1.
        -13    1    4    4    0    0 -0.10969554217E+02  0.60655185940E+02 -0.10449021324E+03  0.12131606391E+03  0.00000000000E+00 0.  1.
         14    1    4    4    0    0 -0.53639952958E+02  0.41479681213E+02 -0.29069465343E+02  0.73775621463E+02  0.00000000000E+00 0. -1.
         -5    1    5    5    0  502  0.42293891892E+02 -0.10087212950E+03  0.22604332071E+02  0.11179000684E+03  0.47000000000E+01 0.  1.
         11    1    6    6    0    0  0.27116662933E+02 -0.16699942934E+01 -0.49283008848E+01  0.27611418638E+02  0.00000000000E+00 0. -1.
        -12    1    6    6    0    0 -0.53074844487E+02  0.15949051395E+02  0.13116369611E+02  0.56950421504E+02  0.00000000000E+00 0.  1.
</event>
<event>
12    1  0.8331241E-002  0.2003218E+03  0.7818608E-02  0.1149867E+00
         21   -1    0    0  501  502  0.00000000000E+00  0.00000000000E+00  0.34128518605E+02  0.34128518605E+02  0.00000000000E+00 0. -1.
         21   -1    0    0  502  503 -0.00000000000E+00 -0.00000000000E+00 -0.12873231552E+04  0.12873231552E+04  0.00000000000E+00 0.  1.
         -6    2    1    2    0  503  0.79157681628E+02  0.63572501913E+02 -0.83313466672E+03  0.85687933925E+03  0.17268881717E+03 0.  0.
        -24    2    3    3    0    0  0.10239885874E+03  0.93836553993E+02 -0.62849995770E+03  0.64866425983E+03  0.80388432072E+02 0.  0.
          6    2    1    2  501    0 -0.79157681628E+02 -0.63572501913E+02 -0.42005996984E+03  0.46457233452E+03  0.17049831138E+03 0.  0.
         24    2    5    5    0    0 -0.10193627730E+03  0.36045107282E+00 -0.26412492686E+03  0.29444263539E+03  0.80891000675E+02 0.  0.
          5    1    5    5  501    0  0.22778595675E+02 -0.63932952986E+02 -0.15593504297E+03  0.17012969913E+03  0.47000000000E+01 0. -1.
        -11    1    6    6    0    0 -0.28240564779E+02 -0.16614661597E+02 -0.17275797277E+03  0.17583769116E+03  0.00000000000E+00 0.  1.
         12    1    6    6    0    0 -0.73695712524E+02  0.16975112670E+02 -0.91366954098E+02  0.11860494423E+03  0.00000000000E+00 0. -1.
         -5    1    3    3    0  503 -0.23241177112E+02 -0.30264052080E+02 -0.20463470902E+03  0.20821507942E+03  0.47000000000E+01 0.  1.
         11    1    4    4    0    0  0.40266001444E+02 -0.76968271748E+00 -0.93201952172E+02  0.10153101582E+03  0.00000000000E+00 0. -1.
        -12    1    4    4    0    0  0.62132857296E+02  0.94606236710E+02 -0.53529800553E+03  0.54713324401E+03  0.00000000000E+00 0.  1.
</event>
<event>
12    1  0.8331241E-002  0.2266871E+03  0.7818608E-02  0.1129182E+00
         21   -1    0    0  503  502  0.00000000000E+00  0.00000000000E+00  0.11239204623E+03  0.11239204623E+03  0.00000000000E+00 0.  1.
         21   -1    0    0  501  503 -0.00000000000E+00 -0.00000000000E+00 -0.49440408462E+03  0.49440408462E+03  0.00000000000E+00 0. -1.
          6    2    1    2  501    0  0.13396465839E+02 -0.14498937666E+03 -0.10505713620E+03  0.24889799211E+03  0.17237118080E+03 0.  0.
         24    2    3    3    0    0 -0.47143491840E+02 -0.12871716691E+03 -0.96072094459E+02  0.18539450984E+03  0.79691022477E+02 0.  0.
         -6    2    1    2    0  502 -0.13396465839E+02  0.14498937666E+03 -0.27695490219E+03  0.35789813875E+03  0.17374025218E+03 0.  0.
        -24    2    5    5    0    0  0.38829027699E+02  0.14842626366E+02 -0.69716486519E+02  0.10762722610E+03  0.70676971889E+02 0.  0.
          5    1    3    3  501    0  0.60539957679E+02 -0.16272209751E+02 -0.89850417392E+01  0.63503482275E+02  0.47000000000E+01 0. -1.
        -13    1    4    4    0    0 -0.66468413083E+01 -0.76154003957E+02 -0.10577846987E+02  0.77171909818E+02  0.00000000000E+00 0.  1.
         14    1    4    4    0    0 -0.40496650532E+02 -0.52563162953E+02 -0.85494247472E+02  0.10822260002E+03  0.00000000000E+00 0. -1.
         -5    1    5    5    0  502 -0.52225493538E+02  0.13014675030E+03 -0.20723841567E+03  0.25027091265E+03  0.47000000000E+01 0.  1.
         11    1    6    6    0    0  0.53738434982E+02  0.29161711583E+02 -0.48904293169E+02  0.78293388656E+02  0.00000000000E+00 0. -1.
        -12    1    6    6    0    0 -0.14909407284E+02 -0.14319085218E+02 -0.20812193350E+02  0.29333837442E+02  0.00000000000E+00 0.  1.
</event>
<event>
12    1  0.8331241E-002  0.1919655E+03  0.7818608E-02  0.1157399E+00
         21   -1    0    0  503  502  0.00000000000E+00  0.00000000000E+00  0.48805652156E+03  0.48805652156E+03  0.00000000000E+00 0. -1.
         21   -1    0    0  501  503 -0.00000000000E+00 -0.00000000000E+00 -0.75355726123E+02  0.75355726123E+02  0.00000000000E+00 0. -1.
          6    2    1    2  501    0  0.81191416224E+02 -0.95549599024E+01  0.17444326696E+03  0.25938622390E+03  0.17368769799E+03 0.  0.
         24    2    3    3    0    0  0.92499570298E+02  0.45003861501E+01  0.19591918831E+03  0.23094800491E+03  0.79851290823E+02 0.  0.
         -6    2    1    2    0  502 -0.81191416224E+02  0.95549599024E+01  0.23825752848E+03  0.30402602379E+03  0.17024050616E+03 0.  0.
        -24    2    5    5    0    0 -0.91170232268E+02  0.59450102360E+02  0.19538239993E+03  0.23732168616E+03  0.79378678479E+02 0.  0.
          5    1    3    3  501    0 -0.11308154074E+02 -0.14055346052E+02 -0.21475921347E+02  0.28438218983E+02  0.47000000000E+01 0. -1.
        -13    1    4    4    0    0 -0.27810404156E+01 -0.50614280587E+01  0.81675491321E+02  0.81879412079E+02  0.00000000000E+00 0.  1.
         14    1    4    4    0    0  0.95280610714E+02  0.95618142089E+01  0.11424369699E+03  0.14906859284E+03  0.00000000000E+00 0. -1.
         -5    1    5    5    0  502  0.99788160432E+01 -0.49895142458E+02  0.42875128554E+02  0.66704337633E+02  0.47000000000E+01 0.  1.
         13    1    6    6    0    0  0.87784521144E+01  0.28891116960E+02  0.43498919016E+02  0.52951995394E+02  0.00000000000E+00 0. -1.
        -14    1    6    6    0    0 -0.99948684382E+02  0.30558985400E+02  0.15188348091E+03  0.18436969076E+03  0.00000000000E+00 0.  1.
</event>
<event>
12    1  0.8331241E-002  0.3182597E+03  0.7818608E-02  0.1077812E+00
         21   -1    0    0  501  502  0.00000000000E+00  0.00000000000E+00  0.23085180833E+04  0.23085180833E+04  0.00000000000E+00 0. -1.
         21   -1    0    0  502  503 -0.00000000000E+00 -0.00000000000E+00 -0.52052335186E+02  0.52052335186E+02  0.00000000000E+00 0.  1.
         -6    2    1    2    0  503 -0.26339443874E+01  0.26779143981E+03  0.63441877979E+03  0.70977208979E+03  0.17195940915E+03 0.  0.
        -24    2    3    3    0    0  0.30954687111E+02  0.24958553969E+03  0.60949497630E+03  0.66391429933E+03  0.77762050153E+02 0.  0.
          6    2    1    2  501    0  0.26339443874E+01 -0.26779143981E+03  0.16220469683E+04  0.16507983287E+04  0.14959800024E+03 0.  0.
         24    2    5    5    0    0 -0.28934359129E+02 -0.11179159726E+03  0.58061813605E+03  0.59726683351E+03  0.79219266226E+02 0.  0.
          5    1    5    5  501    0  0.31568303516E+02 -0.15599984255E+03  0.10414288323E+04  0.10535314952E+04  0.47000000000E+01 0. -1.
        -13    1    6    6    0    0 -0.60321917729E+01 -0.11607136897E+03  0.46321040754E+03  0.47756971396E+03  0.00000000000E+00 0.  1.
         14    1    6    6    0    0 -0.22902167356E+02  0.42797717121E+01  0.11740772851E+03  0.11969711955E+03  0.00000000000E+00 0. -1.
         -5    1    3    3    0  503 -0.33588631499E+02  0.18205900120E+02  0.24923803486E+02  0.45857790454E+02  0.47000000000E+01 0.  1.
         11    1    4    4    0    0 -0.25531135488E+01  0.75853503050E+02  0.27777773442E+03  0.28795961879E+03  0.00000000000E+00 0. -1.
        -12    1    4    4    0    0  0.33507800660E+02  0.17373203664E+03  0.33171724188E+03  0.37595468054E+03  0.00000000000E+00 0.  1.
</event>
<event>
12    1  0.8331241E-002  0.2016662E+03  0.7818608E-02  0.1149921E+00
         21   -1    0    0  503  502  0.00000000000E+00  0.00000000000E+00  0.87571492986E+02  0.87571492986E+02  0.00000000000E+00 0. -1.
         21   -1    0    0  501  503 -0.00000000000E+00 -0.00000000000E+00 -0.75219438348E+03  0.75219438348E+03  0.00000000000E+00 0.  1.
          6    2    1    2  501    0  0.51530353670E+02  0.76389823053E+02 -0.60323333890E+03  0.63605010168E+03  0.17938363435E+03 0.  0.
         24    2    3    3    0    0  0.23753664353E+02  0.64157390322E+02 -0.59507145368E+03  0.60427144138E+03  0.79709049577E+02 0.  0.
         -6    2    1    2    0  502 -0.51530353670E+02 -0.76389823053E+02 -0.61389551596E+02  0.20371577479E+03  0.17099899835E+03 0.  0.
        -24    2    5    5    0    0 -0.99638122477E+02 -0.65535880186E+02 -0.41308037749E+02  0.15025997348E+03  0.81541391969E+02 0.  0.
          5    1    3    3  501    0  0.27776689317E+02  0.12232432731E+02 -0.81618852212E+01  0.31778660297E+02  0.47000000000E+01 0. -1.
        -13    1    4    4    0    0 -0.98374686042E+01  0.46595394901E+02 -0.14529170618E+03  0.15289730704E+03  0.00000000000E+00 0.  1.
         14    1    4    4    0    0  0.33591132957E+02  0.17561995421E+02 -0.44977974749E+03  0.45137413434E+03  0.00000000000E+00 0. -1.
         -5    1    5    5    0  502  0.48107768807E+02 -0.10853942867E+02 -0.20081513847E+02  0.53455801311E+02  0.47000000000E+01 0.  1.
         13    1    6    6    0    0 -0.77200257974E+02 -0.72444401843E+02 -0.37090548525E+01  0.10593313116E+03  0.00000000000E+00 0. -1.
        -14    1    6    6    0    0 -0.22437864504E+02  0.69085216564E+01 -0.37598982896E+02  0.44326842317E+02  0.00000000000E+00 0.  1.
</event>
<event>
12    1  0.8331241E-002  0.2019107E+03  0.7818608E-02  0.1148386E+00
         21   -1    0    0  501  502  0.00000000000E+00  0.00000000000E+00  0.14262451123E+03  0.14262451123E+03  0.00000000000E+00 0. -1.
         21   -1    0    0  502  503 -0.00000000000E+00 -0.00000000000E+00 -0.52364509764E+03  0.52364509764E+03  0.00000000000E+00 0. -1.
         -6    2    1    2    0  503 -0.42092606427E+02  0.96249361337E+02 -0.41610895234E+03  0.46250900546E+03  0.17243025500E+03 0.  0.
        -24    2    3    3    0    0  0.20552479691E+02 -0.32564605071E+01 -0.19212045375E+03  0.20948973170E+03  0.80886772589E+02 0.  0.
          6    2    1    2  501    0  0.42092606427E+02 -0.96249361337E+02  0.35088365923E+02  0.20376060342E+03  0.17103059086E+03 0.  0.
         24    2    5    5    0    0  0.27809586832E+02  0.12699426184E+02  0.39424474494E+02  0.93693647484E+02  0.79306757875E+02 0.  0.
          5    1    5    5  501    0  0.14283019595E+02 -0.10894878752E+03 -0.43361085714E+01  0.11006695593E+03  0.47000000000E+01 0. -1.
        -13    1    6    6    0    0  0.52720824502E+02 -0.42907695697E+01  0.34471024126E+02  0.63135944944E+02  0.00000000000E+00 0.  1.
         14    1    6    6    0    0 -0.24911237670E+02  0.16990195753E+02  0.49534503675E+01  0.30557702540E+02  0.00000000000E+00 0. -1.
         -5    1    3    3    0  503 -0.62645086118E+02  0.99505821844E+02 -0.22398849859E+03  0.25301927376E+03  0.47000000000E+01 0.  1.
         11    1    4    4    0    0  0.12756833687E+02 -0.30745336152E+02 -0.17034042971E+03  0.17356230724E+03  0.00000000000E+00 0. -1.
        -12    1    4    4    0    0  0.77956460044E+01  0.27488875645E+02 -0.21780024044E+02  0.35927424458E+02  0.00000000000E+00 0.  1.
</event>
<event>
12    1  0.8331241E-002  0.1841109E+03  0.7818608E-02  0.1164042E+00
         21   -1    0    0  501  502  0.00000000000E+00  0.00000000000E+00  0.38385813906E+03  0.38385813906E+03  0.00000000000E+00 0.  1.
         21   -1    0    0  502  503 -0.00000000000E+00 -0.00000000000E+00 -0.16200697714E+03  0.16200697714E+03  0.00000000000E+00 0.  1.
         -6    2    1    2    0  503 -0.44048275953E+02 -0.29743301055E+02 -0.73677064541E+02  0.19767873072E+03  0.17556667157E+03 0.  0.
        -24    2    3    3    0    0 -0.88654660248E+02 -0.52626210486E+02 -0.42424053369E+02  0.13841493257E+03  0.82034909884E+02 0.  0.
          6    2    1    2  501    0  0.44048275953E+02  0.29743301055E+02  0.29552822646E+03  0.34818638548E+03  0.17627226618E+03 0.  0.
         24    2    5    5    0    0  0.80057049905E+02  0.30746703514E+02  0.11592065129E+03  0.16494171386E+03  0.80085457847E+02 0.  0.
          5    1    5    5  501    0 -0.36008773951E+02 -0.10034024592E+01  0.17960757517E+03  0.18324467162E+03  0.47000000000E+01 0. -1.
        -11    1    6    6    0    0  0.46706179055E+00 -0.12171447972E+02  0.53979746592E+02  0.55336925597E+02  0.00000000000E+00 0.  1.
         12    1    6    6    0    0  0.79589988114E+02  0.42918151486E+02  0.61940904699E+02  0.10960478826E+03  0.00000000000E+00 0. -1.
         -5    1    3    3    0  503  0.44606384295E+02  0.22882909431E+02 -0.31253011172E+02  0.59263798150E+02  0.47000000000E+01 0.  1.
         11    1    4    4    0    0 -0.36407492825E+02 -0.59474571586E+02  0.15985194884E+01  0.69751598288E+02  0.00000000000E+00 0. -1.
        -12    1    4    4    0    0 -0.52247167423E+02  0.68483611001E+01 -0.44022572857E+02  0.68663334280E+02  0.00000000000E+00 0.  1.
</event>
<event>
12    1  0.8331241E-002  0.2678300E+03  0.7818608E-02  0.1102896E+00
         21   -1    0    0  503  502  0.00000000000E+00  0.00000000000E+00  0.32481687023E+03  0.32481687023E+03  0.00000000000E+00 0.  1.
         21   -1    0    0  501  503 -0.00000000000E+00 -0.00000000000E+00 -0.38136546446E+03  0.38136546446E+03  0.00000000000E+00 0.  1.
          6    2    1    2  501    0 -0.18757494372E+03  0.82932239423E+02 -0.25891129283E+03  0.37251569772E+03  0.17225205847E+03 0.  0.
         24    2    3    3    0    0 -0.14195986027E+03  0.28714684350E+02 -0.25169130279E+03  0.30113994993E+03  0.79747241466E+02 0.  0.
         -6    2    1    2    0  502  0.18757494372E+03 -0.82932239423E+02  0.20236269861E+03  0.33366663697E+03  0.16828739403E+03 0.  0.
        -24    2    5    5    0    0  0.53430290297E+02  0.14541860887E+02  0.49470941508E+02  0.10806972284E+03  0.78520247723E+02 0.  0.
          5    1    3    3  501    0 -0.45615083450E+02  0.54217555074E+02 -0.72199900458E+01  0.71375747790E+02  0.47000000000E+01 0. -1.
        -13    1    4    4    0    0 -0.92251262692E+02  0.74397203785E+01 -0.84141553000E+02  0.12508175666E+03  0.00000000000E+00 0.  1.
         14    1    4    4    0    0 -0.49708597578E+02  0.21274963971E+02 -0.16754974979E+03  0.17605819327E+03  0.00000000000E+00 0. -1.
         -5    1    5    5    0  502  0.13414465342E+03 -0.97474100310E+02  0.15289175710E+03  0.22559691412E+03  0.47000000000E+01 0.  1.
         13    1    6    6    0    0 -0.46976568358E+01 -0.13000530434E+01 -0.17394908605E+02  0.18064909716E+02  0.00000000000E+00 0. -1.
        -14    1    6    6    0    0  0.58127947132E+02  0.15841913930E+02  0.66865850113E+02  0.90004813127E+02  0.00000000000E+00 0.  1.
</event>
<event>
12    1  0.8331241E-002  0.1850503E+03  0.7818608E-02  0.1163047E+00
         21   -1    0    0  503  502  0.00000000000E+00  0.00000000000E+00  0.11656789174E+04  0.11656789174E+04  0.00000000000E+00 0. -1.
         21   -1    0    0  501  503 -0.00000000000E+00 -0.00000000000E+00 -0.71569386113E+02  0.71569386113E+02  0.00000000000E+00 0. -1.
          6    2    1    2  501    0  0.61788136993E+02  0.29825806904E+02  0.71785252441E+02  0.19831108886E+03  0.17165900171E+03 0.  0.
         24    2    3    3    0    0  0.29603677164E+02 -0.49201861141E+02  0.26623393031E+02  0.10165243526E+03  0.79543772206E+02 0.  0.
         -6    2    1    2    0  502 -0.61788136993E+02 -0.29825806904E+02  0.10223242788E+04  0.10389372146E+04  0.17186114230E+03 0.  0.
        -24    2    5    5    0    0  0.12586393118E+02  0.30702369199E+02  0.55363702974E+03  0.56051788152E+03  0.81026428057E+02 0.  0.
          5    1    3    3  501    0  0.32184459828E+02  0.79027668044E+02  0.45161859410E+02  0.96658653603E+02  0.47000000000E+01 0. -1.
        -13    1    4    4    0    0 -0.90695712857E+01  0.11794091359E+02  0.25379480039E+02  0.29418968734E+02  0.00000000000E+00 0.  1.
         14    1    4    4    0    0  0.38673248450E+02 -0.60995952500E+02  0.12439129913E+01  0.72233466527E+02  0.00000000000E+00 0. -1.
         -5    1    5    5    0  502 -0.74374530111E+02 -0.60528176103E+02  0.46868724910E+03  0.47841933312E+03  0.47000000000E+01 0.  1.
         11    1    6    6    0    0  0.11185699723E+02 -0.21543524489E+02  0.32842616684E+03  0.32932201626E+03  0.00000000000E+00 0. -1.
        -12    1    6    6    0    0  0.14006933944E+01  0.52245893688E+02  0.22521086289E+03  0.23119586526E+03  0.00000000000E+00 0.  1.
</event>
<event>
12    1  0.8331241E-002  0.1766244E+03  0.7818608E-02  0.1171389E+00
         21   -1    0    0  501  502  0.00000000000E+00  0.00000000000E+00  0.28920586775E+03  0.28920586775E+03  0.00000000000E+00 0.  1.
         21   -1    0    0  502  503 -0.00000000000E+00 -0.00000000000E+00 -0.10941474966E+03  0.10941474966E+03  0.00000000000E+00 0.  1.
         -6    2    1    2    0  503 -0.36577012908E+02 -0.48432215922E+01  0.61733230582E+02  0.18710207034E+03  0.17272769986E+03 0.  0.
        -24    2    3    3    0    0 -0.38639748381E+02 -0.40132401623E+02  0.88450404292E+02  0.14254336214E+03  0.96909732519E+02 0.  0.
          6    2    1    2  501    0  0.36577012908E+02  0.48432215922E+01  0.11805788751E+03  0.21151854707E+03  0.17158407933E+03 0.  0.
         24    2    5    5    0    0  0.64219317561E+02  0.23834209376E+02  0.18671309723E+02  0.10652075438E+03  0.79409464318E+02 0.  0.
          5    1    5    5  501    0 -0.27642304653E+02 -0.18990987784E+02  0.99386577791E+02  0.10499779268E+03  0.47000000000E+01 0. -1.
        -11    1    6    6    0    0  0.30816426011E+02 -0.26629598548E+01 -0.29115110082E+02  0.42478619356E+02  0.00000000000E+00 0.  1.
         12    1    6    6    0    0  0.33402891551E+02  0.26497169231E+02  0.47786419806E+02  0.64042135029E+02  0.00000000000E+00 0. -1.
         -5    1    3    3    0  503  0.20627354726E+01  0.35289180031E+02 -0.26717173710E+02  0.44558708194E+02  0.47000000000E+01 0.  1.
         11    1    4    4    0    0 -0.15177219667E+02 -0.57902958652E+02  0.12583629180E+02  0.61167379712E+02  0.00000000000E+00 0. -1.
        -12    1    4    4    0    0 -0.23462528714E+02  0.17770557029E+02  0.75866775112E+02  0.81375982432E+02  0.00000000000E+00 0.  1.
</event>
<event>
12    1  0.8331241E-002  0.2192761E+03  0.7818608E-02  0.1134496E+00
         21   -1    0    0  501  502  0.00000000000E+00  0.00000000000E+00  0.16785820292E+03  0.16785820292E+03  0.00000000000E+00 0.  1.
         21   -1    0    0  502  503 -0.00000000000E+00 -0.00000000000E+00 -0.28617582504E+03  0.28617582504E+03  0.00000000000E+00 0.  1.
         -6    2    1    2    0  503  0.97220399794E+02  0.93511645725E+02 -0.52596564134E+02  0.22512083889E+03  0.17238549685E+03 0.  0.
        -24    2    3    3    0    0  0.36723381532E+02  0.14218543647E+02 -0.81273301357E+02  0.12123758464E+03  0.80885280997E+02 0.  0.
          6    2    1    2  501    0 -0.97220399794E+02 -0.93511645725E+02 -0.65721057987E+02  0.22891318907E+03  0.17287497403E+03 0.  0.
         24    2    5    5    0    0 -0.40045544414E+02 -0.95712703319E+02 -0.94316725448E+02  0.16477575118E+03  0.86549617400E+02 0.  0.
          5    1    5    5  501    0 -0.57174855380E+02  0.22010575940E+01  0.28595667461E+02  0.64137437895E+02  0.47000000000E+01 0. -1.
        -13    1    6    6    0    0 -0.21767585146E+02 -0.30487058335E+02  0.11454942756E+02  0.39172748213E+02  0.00000000000E+00 0.  1.
         14    1    6    6    0    0 -0.18277959268E+02 -0.65225644984E+02 -0.10577166820E+03  0.12560300296E+03  0.00000000000E+00 0. -1.
         -5    1    3    3    0  503  0.60497018263E+02  0.79293102079E+02  0.28676737223E+02  0.10388325425E+03  0.47000000000E+01 0.  1.
         13    1    4    4    0    0 -0.16371111498E+01 -0.25667715242E+02 -0.53408484869E+02  0.59278815733E+02  0.00000000000E+00 0. -1.
        -14    1    4    4    0    0  0.38360492682E+02  0.39886258888E+02 -0.27864816488E+02  0.61958768910E+02  0.00000000000E+00 0.  1.
</event>
<event>
12    1  0.8331241E-002  0.3805077E+03  0.7818608E-02  0.1050820E+00
         21   -1    0    0  503  502  0.00000000000E+00  0.00000000000E+00  0.61625069130E+03  0.61625069130E+03  0.00000000000E+00 0.  1.
         21   -1    0    0  501  503 -0.00000000000E+00 -0.00000000000E+00 -0.38154428187E+03  0.38154428187E+03  0.00000000000E+00 0.  1.
          6    2    1    2  501    0  0.30157596368E+03 -0.15415964140E+03 -0.19233378592E+03  0.42635478216E+03  0.17341527660E+03 0.  0.
         24    2    3    3    0    0  0.10349181971E+03 -0.11523490896E+03 -0.58629021277E+02  0.18417402947E+03  0.80579588010E+02 0.  0.
         -6    2    1    2    0  502 -0.30157596368E+03  0.15415964140E+03  0.42704019534E+03  0.57144019101E+03  0.17166043970E+03 0.  0.
        -24    2    5    5    0    0 -0.28224400568E+03  0.83087409800E+02  0.32967432232E+03  0.44926331131E+03  0.81161368161E+02 0.  0.
          5    1    3    3  501    0  0.19808414396E+03 -0.38924732435E+02 -0.13370476464E+03  0.24218075269E+03  0.47000000000E+01 0. -1.
        -13    1    4    4    0    0  0.10049715513E+03 -0.64923455911E+02 -0.21468076352E+02  0.12155497365E+03  0.00000000000E+00 0.  1.
         14    1    4    4    0    0  0.29946645840E+01 -0.50311453051E+02 -0.37160944925E+02  0.62619055820E+02  0.00000000000E+00 0. -1.
         -5    1    5    5    0  502 -0.19331957999E+02  0.71072231597E+02  0.97365873020E+02  0.12217687970E+03  0.47000000000E+01 0.  1.
         11    1    6    6    0    0 -0.44915646086E+02 -0.35431608508E+01  0.19179358905E+02  0.48967510250E+02  0.00000000000E+00 0. -1.
        -12    1    6    6    0    0 -0.23732835959E+03  0.86630570651E+02  0.31049496342E+03  0.40029580106E+03  0.00000000000E+00 0.  1.
</event>
<event>
12    1  0.8331241E-002  0.1882670E+03  0.7818608E-02  0.1160113E+00
         21   -1    0    0  503  502  0.00000000000E+00  0.00000000000E+00  0.16250814221E+02  0.16250814221E+02  0.00000000000E+00 0.  1.
         21   -1    0    0  501  503 -0.00000000000E+00 -0.00000000000E+00 -0.21780645687E+04  0.21780645687E+04  0.00000000000E+00 0.  1.
          6    2    1    2  501    0  0.74448957030E+02 -0.19411986569E+02 -0.11033279141E+04  0.11192168982E+04  0.17144826277E+03 0.  0.
         24    2    3    3    0    0  0.60314280941E+02 -0.62681477532E+02 -0.98711343801E+03  0.99431720899E+03  0.81896230000E+02 0.  0.
         -6    2    1    2    0  502 -0.74448957030E+02  0.19411986569E+02 -0.10584858404E+04  0.10750984848E+04  0.17182841761E+03 0.  0.
        -24    2    5    5    0    0  0.27430687926E+01 -0.26293367171E+02 -0.72272675686E+03  0.72753001608E+03  0.79164977366E+02 0.  0.
          5    1    3    3  501    0  0.14134676089E+02  0.43269490962E+02 -0.11621447608E+03  0.12489968922E+03  0.47000000000E+01 0. -1.
        -13    1    4    4    0    0  0.41805726262E+02  0.11211497098E+02 -0.35031850886E+03  0.35298225744E+03  0.00000000000E+00 0.  1.
         14    1    4    4    0    0  0.18508554680E+02 -0.73892974629E+02 -0.63679492915E+03  0.64133495156E+03  0.00000000000E+00 0. -1.
         -5    1    5    5    0  502 -0.77192025823E+02  0.45705353740E+02 -0.33575908358E+03  0.34756846867E+03  0.47000000000E+01 0.  1.
         11    1    6    6    0    0  0.15260437251E+02  0.23716842989E+02 -0.16182613967E+03  0.16426523999E+03  0.00000000000E+00 0. -1.
        -12    1    6    6    0    0 -0.12517368458E+02 -0.50010210160E+02 -0.56090061718E+03  0.56326477609E+03  0.00000000000E+00 0.  1.
</event>
<event>
12    1  0.8331241E-002  0.1897193E+03  0.7818608E-02  0.1158928E+00
         21   -1    0    0  503  502  0.00000000000E+00  0.00000000000E+00  0.90716991820E+03  0.90716991820E+03  0.00000000000E+00 0.  1.
         21   -1    0    0  501  503 -0.00000000000E+00 -0.00000000000E+00 -0.47684633788E+02  0.47684633788E+02  0.00000000000E+00 0.  1.
          6    2    1    2  501    0  0.76009265689E+02  0.13329058624E+02  0.23259295328E+03  0.30015478794E+03  0.17331573078E+03 0.  0.
         24    2    3    3    0    0  0.11559403644E+02  0.42786083495E+01  0.27868356106E+02  0.85282858516E+02  0.79652962170E+02 0.  0.
         -6    2    1    2    0  502 -0.76009265689E+02 -0.13329058624E+02  0.62689233113E+03  0.65469976404E+03  0.17228672014E+03 0.  0.
        -24    2    5    5    0    0  0.77883467149E+01  0.31596820967E+02  0.39180871203E+03  0.40107253272E+03  0.79284880257E+02 0.  0.
          5    1    3    3  501    0  0.64449862045E+02  0.90504502748E+01  0.20472459717E+03  0.21487192943E+03  0.47000000000E+01 0. -1.
        -11    1    4    4    0    0  0.22648717913E+02  0.37688303553E+02  0.23369225196E+02  0.49794511083E+02  0.00000000000E+00 0.  1.
         12    1    4    4    0    0 -0.11089314268E+02 -0.33409695203E+02  0.44991309106E+01  0.35488347432E+02  0.00000000000E+00 0. -1.
         -5    1    5    5    0  502 -0.83797612404E+02 -0.44925879591E+02  0.23508361910E+03  0.25362723133E+03  0.47000000000E+01 0.  1.
         11    1    6    6    0    0  0.61118499288E+01  0.27439258656E+02  0.38166953474E+02  0.47402362416E+02  0.00000000000E+00 0. -1.
        -12    1    6    6    0    0  0.16764967861E+01  0.41575623109E+01  0.35364175856E+03  0.35367017030E+03  0.00000000000E+00 0.  1.
</event>
<event>
12    1  0.8331241E-002  0.1827847E+03  0.7818608E-02  0.1166300E+00
         21   -1    0    0  503  502  0.00000000000E+00  0.00000000000E+00  0.38895013316E+02  0.38895013316E+02  0.00000000000E+00 0. -1.
         21   -1    0    0  501  503 -0.00000000000E+00 -0.00000000000E+00 -0.94387689799E+03  0.94387689799E+03  0.00000000000E+00 0. -1.
          6    2    1    2  501    0 -0.27562765797E+02  0.29401486286E+02 -0.61292669580E+03  0.63823386426E+03  0.17331813988E+03 0.  0.
         24    2    3    3    0    0 -0.48327815593E+02 -0.22012461196E+02 -0.19886099151E+03  0.22044554614E+03  0.78933001088E+02 0.  0.
         -6    2    1    2    0  502  0.27562765797E+02 -0.29401486286E+02 -0.29205518887E+03  0.34453804705E+03  0.17828650835E+03 0.  0.
        -24    2    5    5    0    0  0.81644442168E+02 -0.49385265539E+02 -0.18550505868E+03  0.22329779220E+03  0.79655871180E+02 0.  0.
          5    1    3    3  501    0  0.20765049797E+02  0.51413947482E+02 -0.41406570429E+03  0.41778831812E+03  0.47000000000E+01 0. -1.
        -13    1    4    4    0    0 -0.10243383731E+01 -0.10553303950E+02  0.43696221457E+01  0.11468002924E+02  0.00000000000E+00 0.  1.
         14    1    4    4    0    0 -0.47303477220E+02 -0.11459157246E+02 -0.20323061365E+03  0.20897754321E+03  0.00000000000E+00 0. -1.
         -5    1    5    5    0  502 -0.54081676371E+02  0.19983779253E+02 -0.10655013019E+03  0.12124025485E+03  0.47000000000E+01 0.  1.
         11    1    6    6    0    0  0.32575399974E+02 -0.25406053779E+02 -0.14498332375E+02  0.43781570252E+02  0.00000000000E+00 0. -1.
        -12    1    6    6    0    0  0.49069042194E+02 -0.23979211759E+02 -0.17100672631E+03  0.17951622195E+03  0.00000000000E+00 0.  1.
</event>
<event>
12    1  0.8331241E-002  0.1807937E+03  0.7818608E-02  0.1169801E+00
         21   -1    0    0  503  502  0.00000000000E+00  0.00000000000E+00  0.21927979107E+03  0.21927979107E+03  0.00000000000E+00 0. -1.
         21   -1    0    0  501  503 -0.00000000000E+00 -0.00000000000E+00 -0.15194588937E+03  0.15194588937E+03  0.00000000000E+00 0. -1.
          6    2    1    2  501    0 -0.26861366641E+02  0.47432815497E+02 -0.19238703307E+02  0.17077324377E+03  0.16069215314E+03 0.  0.
         24    2    3    3    0    0  0.12546657375E+02  0.74883640177E+02  0.12459278138E+02  0.11303770740E+03  0.82808885428E+02 0.  0.
         -6    2    1    2    0  502  0.26861366641E+02 -0.47432815497E+02  0.86572605003E+02  0.20045243666E+03  0.17238027272E+03 0.  0.
        -24    2    5    5    0    0 -0.17081348913E+02 -0.88198197303E+02  0.49190929598E+02  0.12965513262E+03  0.79498499175E+02 0.  0.
          5    1    3    3  501    0 -0.39408024017E+02 -0.27450824680E+02 -0.31697981445E+02  0.57735536372E+02  0.47000000000E+01 0. -1.
        -11    1    4    4    0    0 -0.31101300163E+02  0.88962081105E+01  0.10088572447E+02  0.33885287140E+02  0.00000000000E+00 0.  1.
         12    1    4    4    0    0  0.43647957538E+02  0.65987432066E+02  0.23707056910E+01  0.79152420263E+02  0.00000000000E+00 0. -1.
         -5    1    5    5    0  502  0.43942715554E+02  0.40765381806E+02  0.37381675405E+02  0.70797304045E+02  0.47000000000E+01 0.  1.
         11    1    6    6    0    0  0.83873723404E+01 -0.85819883629E+02  0.56452975076E+02  0.10306473129E+03  0.00000000000E+00 0. -1.
        -12    1    6    6    0    0 -0.25468721253E+02 -0.23783136734E+01 -0.72620454779E+01  0.26590401327E+02  0.00000000000E+00 0.  1.
</event>
<event>
12    1  0.8331241E-002  0.1798403E+03  0.7818608E-02  0.1168773E+00
         21   -1    0    0  501  502  0.00000000000E+00  0.00000000000E+00  0.10078941537E+03  0.10078941537E+03  0.00000000000E+00 0. -1.
         21   -1    0    0  502  503 -0.00000000000E+00 -0.00000000000E+00 -0.73653025480E+03  0.73653025480E+03  0.00000000000E+00 0. -1.
         -6    2    1    2    0  503 -0.41419208324E+02 -0.14063782045E+02 -0.63586724649E+03  0.66080986414E+03  0.17443961878E+03 0.  0.
        -24    2    3    3    0    0 -0.11601300301E+02 -0.69582193334E+02 -0.27214059477E+03  0.29163433841E+03  0.77548773140E+02 0.  0.
          6    2    1    2  501    0  0.41419208324E+02  0.14063782045E+02  0.12640706736E+00  0.17650980603E+03  0.17100396154E+03 0.  0.
         24    2    5    5    0    0  0.69325341559E+02  0.12110561931E+02 -0.54252221112E+02  0.11517716755E+03  0.73278971990E+02 0.  0.
          5    1    5    5  501    0 -0.27906133235E+02  0.19532201144E+01  0.54378628179E+02  0.61332638485E+02  0.47000000000E+01 0. -1.
        -11    1    6    6    0    0  0.34773794878E+02  0.34897533128E+02 -0.54925584883E+02  0.73782616539E+02  0.00000000000E+00 0.  1.
         12    1    6    6    0    0  0.34551546680E+02 -0.22786971197E+02  0.67336377091E+00  0.41394551007E+02  0.00000000000E+00 0. -1.
         -5    1    3    3    0  503 -0.29817908023E+02  0.55518411288E+02 -0.36372665172E+03  0.36917552573E+03  0.47000000000E+01 0.  1.
         11    1    4    4    0    0  0.10067940560E+02 -0.30929900912E+02 -0.22342460123E+03  0.22577992522E+03  0.00000000000E+00 0. -1.
        -12    1    4    4    0    0 -0.21669240861E+02 -0.38652292422E+02 -0.48715993542E+02  0.65854413183E+02  0.00000000000E+00 0.  1.
</event>
<event>
12    1  0.8331241E-002  0.1780466E+03  0.7818608E-02  0.1170232E+00
         21   -1    0    0  503  502  0.00000000000E+00  0.00000000000E+00  0.93488582780E+02  0.93488582780E+02  0.00000000000E+00 0. -1.
         21   -1    0    0  501  503 -0.00000000000E+00 -0.00000000000E+00 -0.33516954567E+03  0.33516954567E+03  0.00000000000E+00 0. -1.
          6    2    1    2  501    0 -0.34329058037E+02 -0.21875091649E+02 -0.11607407429E+03  0.21076435456E+03  0.17114735924E+03 0.  0.
         24    2    3    3    0    0 -0.84714108936E+02 -0.79881117980E+01 -0.10744575836E+03  0.15758504092E+03  0.77769942465E+02 0.  0.
         -6    2    1    2    0  502  0.34329058037E+02  0.21875091649E+02 -0.12560688861E+03  0.21789377389E+03  0.17333090426E+03 0.  0.
        -24    2    5    5    0    0  0.25422358471E+02 -0.22057989305E+02 -0.14458616398E+03  0.16898827529E+03  0.80740492744E+02 0.  0.
          5    1    3    3  501    0  0.50385050899E+02 -0.13886979851E+02 -0.86283159269E+01  0.53179313640E+02  0.47000000000E+01 0. -1.
        -11    1    4    4    0    0  0.41505002256E+01 -0.16745064467E+02 -0.46169486530E+02  0.49287374880E+02  0.00000000000E+00 0.  1.
         12    1    4    4    0    0 -0.88864609161E+02  0.87569526693E+01 -0.61276271830E+02  0.10829766605E+03  0.00000000000E+00 0. -1.
         -5    1    5    5    0  502  0.89066995659E+01  0.43933080954E+02  0.18979275374E+02  0.48905498597E+02  0.47000000000E+01 0.  1.
         11    1    6    6    0    0 -0.28625292408E+02 -0.16724996229E+02 -0.53468360037E+02  0.62912625040E+02  0.00000000000E+00 0. -1.
        -12    1    6    6    0    0  0.54047650879E+02 -0.53329930759E+01 -0.91117803942E+02  0.10607565025E+03  0.00000000000E+00 0.  1.
</event>
<event>
12    1  0.8331241E-002  0.2192251E+03  0.7818608E-02  0.1135033E+00
         21   -1    0    0  503  502  0.00000000000E+00  0.00000000000E+00  0.48133950707E+03  0.48133950707E+03  0.00000000000E+00 0.  1.
         21   -1    0    0  501  503 -0.00000000000E+00 -0.00000000000E+00 -0.30255167164E+03  0.30255167164E+03  0.00000000000E+00 0.  1.
          6    2    1    2  501    0 -0.32979027214E+01  0.13052881266E+03 -0.23230542811E+03  0.31941421467E+03  0.17609935124E+03 0.  0.
         24    2    3    3    0    0  0.11569067678E+02  0.15896269339E+03 -0.15946727246E+03  0.23968342199E+03  0.81334805442E+02 0.  0.
         -6    2    1    2    0  502  0.32979027214E+01 -0.13052881266E+03  0.41109326354E+03  0.46447696405E+03  0.17231521033E+03 0.  0.
        -24    2    5    5    0    0  0.53237615016E+02 -0.25034264095E+02  0.16819179612E+03  0.19494721149E+03  0.79088412262E+02 0.  0.
          5    1    3    3  501    0 -0.14866970400E+02 -0.28433880732E+02 -0.72838155649E+02  0.79730792676E+02  0.47000000000E+01 0. -1.
        -11    1    4    4    0    0 -0.91767212432E+01  0.15612944896E+03 -0.15000079610E+03  0.21670453589E+03  0.00000000000E+00 0.  1.
         12    1    4    4    0    0  0.20745788922E+02  0.28332444356E+01 -0.94664763591E+01  0.22978886106E+02  0.00000000000E+00 0. -1.
         -5    1    5    5    0  502 -0.49939712295E+02 -0.10549454856E+03  0.24290146742E+03  0.26952975256E+03  0.47000000000E+01 0.  1.
         11    1    6    6    0    0  0.16671733885E+02  0.10287938280E+02  0.12972120977E+03  0.13119215163E+03  0.00000000000E+00 0. -1.
        -12    1    6    6    0    0  0.36565881131E+02 -0.35322202375E+02  0.38470586344E+02  0.63755059856E+02  0.00000000000E+00 0.  1.
</event>
<event>
12    1  0.8331241E-002  0.1725048E+03  0.7818608E-02  0.1175834E+00
         21   -1    0    0  503  502  0.00000000000E+00  0.00000000000E+00  0.16498789989E+03  0.16498789989E+03  0.00000000000E+00 0.  1.
         21   -1    0    0  501  503 -0.00000000000E+00 -0.00000000000E+00 -0.17858964570E+03  0.17858964570E+03  0.00000000000E+00 0.  1.
          6    2    1    2  501    0  0.66619308835E+01 -0.32110912885E+01  0.27388449259E+01  0.17030057436E+03  0.17011787656E+03 0.  0.
         24    2    3    3    0    0  0.99577319542E+01  0.60491186499E+02 -0.19305502174E+02  0.10264788972E+03  0.80034659870E+02 0.  0.
         -6    2    1    2    0  502 -0.66619308835E+01  0.32110912885E+01 -0.16340590732E+02  0.17327697123E+03  0.17234616742E+03 0.  0.
        -24    2    5    5    0    0  0.23931598877E+02  0.62985550989E+02 -0.12682447043E+02  0.10586464216E+03  0.80663355615E+02 0.  0.
          5    1    3    3  501    0 -0.32958010706E+01 -0.63702277787E+02  0.22044347099E+02  0.67652684640E+02  0.47000000000E+01 0. -1.
        -11    1    4    4    0    0  0.37025109341E+02  0.44722782539E+02 -0.34809600437E+02  0.67695600170E+02  0.00000000000E+00 0.  1.
         12    1    4    4    0    0 -0.27067377387E+02  0.15768403959E+02  0.15504098263E+02  0.34952289553E+02  0.00000000000E+00 0. -1.
         -5    1    5    5    0  502 -0.30593529760E+02 -0.59774459700E+02 -0.36581436897E+01  0.67412329072E+02  0.47000000000E+01 0.  1.
         13    1    6    6    0    0 -0.26204664027E+02  0.43693372250E+02 -0.13747407787E+01  0.50967490694E+02  0.00000000000E+00 0. -1.
        -14    1    6    6    0    0  0.50136262904E+02  0.19292178738E+02 -0.11307706264E+02  0.54897151469E+02  0.00000000000E+00 0.  1.
</event>
<event>
12    1  0.8331241E-002  0.1962930E+03  0.7818608E-02  0.1153213E+00
         21   -1    0    0  503  502  0.00000000000E+00  0.00000000000E+00  0.11137381910E+03  0.11137381910E+03  0.00000000000E+00 0. -1.
         21   -1    0    0  501  503 -0.00000000000E+00 -0.00000000000E+00 -0.53425336618E+03  0.53425336618E+03  0.00000000000E+00 0.  1.
          6    2    1    2  501    0 -0.62590023030E+02  0.71758022209E+02 -0.40484178167E+03  0.44991977420E+03  0.17165142088E+03 0.  0.
         24    2    3    3    0    0 -0.15157922231E+02  0.52523119496E+02 -0.38127254209E+03  0.39337435243E+03  0.79913635300E+02 0.  0.
         -6    2    1    2    0  502  0.62590023030E+02 -0.71758022209E+02 -0.18037765414E+02  0.19570741108E+03  0.17002736555E+03 0.  0.
        -24    2    5    5    0    0  0.10326730489E+03 -0.39833276218E+02 -0.35858647789E+02  0.14081201496E+03  0.79318060889E+02 0.  0.
          5    1    3    3  501    0 -0.47432100799E+02  0.19234902712E+02 -0.23569239580E+02  0.56545421768E+02  0.47000000000E+01 0. -1.
        -13    1    4    4    0    0 -0.33020108092E+02  0.26542632179E+02 -0.33321652288E+03  0.33589892822E+03  0.00000000000E+00 0.  1.
         14    1    4    4    0    0  0.17862185861E+02  0.25980487317E+02 -0.48056019212E+02  0.57475424204E+02  0.00000000000E+00 0. -1.
         -5    1    5    5    0  502 -0.40677281862E+02 -0.31924745991E+02  0.17820882375E+02  0.54895396118E+02  0.47000000000E+01 0.  1.
         11    1    6    6    0    0  0.30269022190E+02 -0.51087421971E+02 -0.30502556352E+02  0.66757354142E+02  0.00000000000E+00 0. -1.
        -12    1    6    6    0    0  0.72998282702E+02  0.11254145754E+02 -0.53560914371E+01  0.74054660823E+02  0.00000000000E+00 0.  1.
</event>
<event>
12    1  0.8331241E-002  0.2331445E+03  0.7818608E-02  0.1124458E+00
         21   -1    0    0  503  502  0.00000000000E+00  0.00000000000E+00  0.62185205337E+03  0.62185205337E+03  0.00000000000E+00 0.  1.
         21   -1    0    0  501  503 -0.00000000000E+00 -0.00000000000E+00 -0.89444274293E+02  0.89444274293E+02  0.00000000000E+00 0.  1.
          6    2    1    2  501    0  0.47160106019E+02  0.14998517875E+03  0.21218041141E+03  0.31518782699E+03  0.17205583354E+03 0.  0.
         24    2    3    3    0    0  0.63159104277E+02  0.12229816657E+03  0.22890291711E+03  0.27879729546E+03  0.79909151506E+02 0.  0.
         -6    2    1    2    0  502 -0.47160106019E+02 -0.14998517875E+03  0.32022736767E+03  0.39610850067E+03  0.17215326851E+03 0.  0.
        -24    2    5    5    0    0 -0.96247525889E+02 -0.97049685586E+02  0.25351980946E+03  0.29770255803E+03  0.75314617153E+02 0.  0.
          5    1    3    3  501    0 -0.15998998257E+02  0.27687012174E+02 -0.16722505699E+02  0.36390531532E+02  0.47000000000E+01 0. -1.
        -11    1    4    4    0    0 -0.17163970565E+02  0.70266683269E+01  0.30226201008E+02  0.35462644864E+02  0.00000000000E+00 0.  1.
         12    1    4    4    0    0  0.80323074842E+02  0.11527149825E+03  0.19867671610E+03  0.24333465060E+03  0.00000000000E+00 0. -1.
         -5    1    5    5    0  502  0.49087419870E+02 -0.52935493160E+02  0.66707558213E+02  0.98405942647E+02  0.47000000000E+01 0.  1.
         13    1    6    6    0    0 -0.35748569053E+02 -0.16835483325E+01  0.27841018156E+02  0.45342218917E+02  0.00000000000E+00 0. -1.
        -14    1    6    6    0    0 -0.60498956836E+02 -0.95366137254E+02  0.22567879130E+03  0.25236033911E+03  0.00000000000E+00 0.  1.
</event>
<event>
12    1  0.8331241E-002  0.2337323E+03  0.7818608E-02  0.1124281E+00
         21   -1    0    0  501  502  0.00000000000E+00  0.00000000000E+00  0.41829289552E+02  0.41829289552E+02  0.00000000000E+00 0.  1.
         21   -1    0    0  502  503 -0.00000000000E+00 -0.00000000000E+00 -0.21491112582E+04  0.21491112582E+04  0.00000000000E+00 0. -1.
         -6    2    1    2    0  503 -0.11834612106E+03 -0.10313554175E+03 -0.17410166727E+04  0.17564511305E+04  0.17128565348E+03 0.  0.
        -24    2    3    3    0    0 -0.94660834724E+02  0.17650565413E+01 -0.96058961018E+03  0.96863540450E+03  0.80983693512E+02 0.  0.
          6    2    1    2  501    0  0.11834612106E+03  0.10313554175E+03 -0.36626529593E+03  0.43448941717E+03  0.17317055838E+03 0.  0.
         24    2    5    5    0    0  0.77387477517E+01  0.69056147804E+02 -0.10834026748E+03  0.15174782769E+03  0.80381278202E+02 0.  0.
          5    1    5    5  501    0  0.11060737331E+03  0.34079393948E+02 -0.25792502845E+03  0.28274158948E+03  0.47000000000E+01 0. -1.
        -11    1    6    6    0    0  0.41918227467E+02  0.32518210816E+02 -0.37281010339E+02  0.64841696157E+02  0.00000000000E+00 0.  1.
         12    1    6    6    0    0 -0.34179479715E+02  0.36537936988E+02 -0.71059257143E+02  0.86906131537E+02  0.00000000000E+00 0. -1.
         -5    1    3    3    0  503 -0.23685286334E+02 -0.10490059829E+03 -0.78042706250E+03  0.78781572603E+03  0.47000000000E+01 0.  1.
         13    1    4    4    0    0 -0.10238865044E+03 -0.68198263990E+01 -0.66965563498E+03  0.67747222470E+03  0.00000000000E+00 0. -1.
        -14    1    4    4    0    0  0.77278157153E+01  0.85848829404E+01 -0.29093397519E+03  0.29116317980E+03  0.00000000000E+00 0.  1.
</event>
<event>
12    1  0.8331241E-002  0.3514320E+03  0.7818608E-02  0.1062084E+00
         21   -1    0    0  503  502  0.00000000000E+00  0.00000000000E+00  0.48129381792E+03  0.48129381792E+03  0.00000000000E+00 0. -1.
         21   -1    0    0  501  503 -0.00000000000E+00 -0.00000000000E+00 -0.25844600028E+03  0.25844600028E+03  0.00000000000E+00 0.  1.
          6    2    1    2  501    0  0.55238039563E+02 -0.30116738407E+03  0.76948444903E+02  0.35922561490E+03  0.17137369981E+03 0.  0.
         24    2    3    3    0    0 -0.40582641073E+01 -0.11405171997E+03 -0.22458313645E+02  0.13915263377E+03  0.76385962695E+02 0.  0.
         -6    2    1    2    0  502 -0.55238039563E+02  0.30116738407E+03  0.14589937273E+03  0.38051420329E+03  0.17248593479E+03 0.  0.
        -24    2    5    5    0    0 -0.75509385395E+02  0.21171531072E+03  0.16042052651E+03  0.28753272774E+03  0.80095468776E+02 0.  0.
          5    1    3    3  501    0  0.59296303670E+02 -0.18711566410E+03  0.99406758548E+02  0.22007298113E+03  0.47000000000E+01 0. -1.
        -11    1    4    4    0    0  0.25814040414E+02 -0.10171265256E+03 -0.19058848232E+02  0.10665396415E+03  0.00000000000E+00 0.  1.
         12    1    4    4    0    0 -0.29872304521E+02 -0.12339067418E+02 -0.33994654130E+01  0.32498669623E+02  0.00000000000E+00 0. -1.
         -5    1    5    5    0  502  0.20271345833E+02  0.89452073355E+02 -0.14521153782E+02  0.92981475556E+02  0.47000000000E+01 0.  1.
         13    1    6    6    0    0 -0.52745765948E+02  0.19730805707E+03  0.16179562829E+03  0.26055788329E+03  0.00000000000E+00 0. -1.
        -14    1    6    6    0    0 -0.22763619447E+02  0.14407253648E+02 -0.13751017807E+01  0.26974844447E+02  0.00000000000E+00 0.  1.
</event>
<event>
12    1  0.8331241E-002  0.2877006E+03  0.7818608E-02  0.1091628E+00
         21   -1    0    0  501  502  0.00000000000E+00  0.00000000000E+00  0.47659972678E+03  0.47659972678E+03  0.00000000000E+00 0.  1.
         21   -1    0    0  502  503 -0.00000000000E+00 -0.00000000000E+00 -0.18899083302E+03  0.18899083302E+03  0.00000000000E+00 0.  1.
         -6    2    1    2    0  503 -0.31694595051E+02  0.22672724774E+03  0.23968933910E+03  0.37446307972E+03  0.17424645354E+03 0.  0.
        -24    2    3    3    0    0 -0.11244117794E+02  0.71267786716E+02  0.27701370266E+02  0.11074570264E+03  0.79320345002E+02 0.  0.
          6    2    1    2  501    0  0.31694595051E+02 -0.22672724774E+03  0.47919554670E+02  0.29112748008E+03  0.17334685956E+03 0.  0.
         24    2    5    5    0    0  0.13735716643E+02 -0.22783707773E+03  0.79380191759E+02  0.25458141706E+03  0.80075459235E+02 0.  0.
          5    1    5    5  501    0  0.17958878408E+02  0.11098299879E+01 -0.31460637090E+02  0.36546063021E+02  0.47000000000E+01 0. -1.
        -13    1    6    6    0    0  0.29492419990E+02 -0.47001569612E+02  0.41142148274E+02  0.69076962494E+02  0.00000000000E+00 0.  1.
         14    1    6    6    0    0 -0.15756703347E+02 -0.18083550812E+03  0.38238043485E+02  0.18550445457E+03  0.00000000000E+00 0. -1.
         -5    1    3    3    0  503 -0.20450477257E+02  0.15545946102E+03  0.21198796883E+03  0.26371737707E+03  0.47000000000E+01 0.  1.
         13    1    4    4    0    0  0.11634351446E+02  0.74235444774E+02  0.58571905930E+00  0.75143878401E+02  0.00000000000E+00 0. -1.
        -14    1    4    4    0    0 -0.22878469240E+02 -0.29676580576E+01  0.27115651207E+02  0.35601824244E+02  0.00000000000E+00 0.  1.
</event>
<event>
12    1  0.8331241E-002  0.1991568E+03  0.7818608E-02  0.1150601E+00
         21   -1    0    0  503  502  0.00000000000E+00  0.00000000000E+00  0.59187319102E+02  0.59187319102E+02  0.00000000000E+00 0. -1.
         21   -1    0    0  501  503 -0.00000000000E+00 -0.00000000000E+00 -0.88288375275E+03  0.88288375275E+03  0.00000000000E+00 0.  1.
          6    2    1    2  501    0  0.86607785109E+02  0.50881481880E+02 -0.64380182329E+03  0.67369537848E+03  0.17115735939E+03 0.  0.
         24    2    3    3    0    0  0.35147431656E+02  0.92383445216E+02 -0.48996685774E+03  0.50619055000E+03  0.79945658570E+02 0.  0.
         -6    2    1    2    0  502 -0.86607785109E+02 -0.50881481880E+02 -0.17989461036E+03  0.26837569338E+03  0.17196978897E+03 0.  0.
        -24    2    5    5    0    0 -0.33123261787E+02  0.36242601505E+01 -0.18690217688E+02  0.89936862493E+02  0.81418850796E+02 0.  0.
          5    1    3    3  501    0  0.51460353454E+02 -0.41501963336E+02 -0.15383496554E+03  0.16750482847E+03  0.47000000000E+01 0. -1.
        -11    1    4    4    0    0  0.48189041166E+02  0.36605333236E+02 -0.34589270608E+03  0.35114654808E+03  0.00000000000E+00 0.  1.
         12    1    4    4    0    0 -0.13041609511E+02  0.55778111980E+02 -0.14407415166E+03  0.15504400192E+03  0.00000000000E+00 0. -1.
         -5    1    5    5    0  502 -0.53484523323E+02 -0.54505742030E+02 -0.16120439268E+03  0.17843883088E+03  0.47000000000E+01 0.  1.
         13    1    6    6    0    0 -0.50843217334E+02  0.27769922923E+02 -0.10381015861E+02  0.58855474328E+02  0.00000000000E+00 0. -1.
        -14    1    6    6    0    0  0.17719955547E+02 -0.24145662772E+02 -0.83092018268E+01  0.31081388166E+02  0.00000000000E+00 0.  1.
</event>
<event>
12    1  0.8331241E-002  0.1876609E+03  0.7818608E-02  0.1161023E+00
         21   -1    0    0  503  502  0.00000000000E+00  0.00000000000E+00  0.81983652757E+03  0.81983652757E+03  0.00000000000E+00 0.  1.
         21   -1    0    0  501  503 -0.00000000000E+00 -0.00000000000E+00 -0.10995166984E+03  0.10995166984E+03  0.00000000000E+00 0.  1.
          6    2    1    2  501    0 -0.58745604848E+02 -0.43519199498E+02 -0.98085080638E+01  0.18603074667E+03  0.17078133699E+03 0.  0.
         24    2    3    3    0    0  0.15434928752E+02 -0.61147535177E+02  0.18504592527E+02  0.10456154115E+03  0.81323046297E+02 0.  0.
         -6    2    1    2    0  502  0.58745604848E+02  0.43519199498E+02  0.71969336580E+03  0.74375745073E+03  0.17283413418E+03 0.  0.
        -24    2    5    5    0    0 -0.71440204482E+01 -0.32294919957E+02  0.37084209429E+03  0.38070301534E+03  0.79479104838E+02 0.  0.
          5    1    3    3  501    0 -0.74180533600E+02  0.17628335680E+02 -0.28313100591E+02  0.81469205526E+02  0.47000000000E+01 0. -1.
        -11    1    4    4    0    0 -0.23695038807E+02 -0.39405251390E+01 -0.14221054242E+02  0.27914530019E+02  0.00000000000E+00 0.  1.
         12    1    4    4    0    0  0.39129967559E+02 -0.57207010038E+02  0.32725646769E+02  0.76647011130E+02  0.00000000000E+00 0. -1.
         -5    1    5    5    0  502  0.65889625296E+02  0.75814119455E+02  0.34885127151E+03  0.36305443540E+03  0.47000000000E+01 0.  1.
         11    1    6    6    0    0 -0.16498537321E+02  0.21575800042E+02  0.18504477937E+03  0.18702750400E+03  0.00000000000E+00 0. -1.
        -12    1    6    6    0    0  0.93545168726E+01 -0.53870720000E+02  0.18579731492E+03  0.19367551133E+03  0.00000000000E+00 0.  1.
</event>
<event>
12    1  0.8331241E-002  0.2143462E+03  0.7818608E-02  0.1138212E+00
         21   -1    0    0  501  502  0.00000000000E+00  0.00000000000E+00  0.65237259744E+02  0.65237259744E+02  0.00000000000E+00 0. -1.
         21   -1    0    0  502  503 -0.00000000000E+00 -0.00000000000E+00 -0.15705731711E+04  0.15705731711E+04  0.00000000000E+00 0. -1.
         -6    2    1    2    0  503  0.58598414779E+02 -0.11361699557E+03 -0.13605414342E+04  0.13773225014E+04  0.17205139617E+03 0.  0.
        -24    2    3    3    0    0  0.10305057560E+03 -0.10166956098E+03 -0.11214348335E+04  0.11337803238E+04  0.82979612496E+02 0.  0.
          6    2    1    2  501    0 -0.58598414779E+02  0.11361699557E+03 -0.14479447717E+03  0.25848792941E+03  0.17177884950E+03 0.  0.
         24    2    5    5    0    0 -0.25803734922E+02  0.10680597927E+03 -0.16931540942E+03  0.21671177486E+03  0.78885585211E+02 0.  0.
          5    1    5    5  501    0 -0.32794679856E+02  0.68110163010E+01  0.24520932253E+02  0.41776154544E+02  0.47000000000E+01 0. -1.
        -11    1    6    6    0    0  0.98735727083E+01  0.61053831010E+02 -0.36591524781E+02  0.71860958836E+02  0.00000000000E+00 0.  1.
         12    1    6    6    0    0 -0.35677307631E+02  0.45752148257E+02 -0.13272388464E+03  0.14485081603E+03  0.00000000000E+00 0. -1.
         -5    1    3    3    0  503 -0.44452160817E+02 -0.11947434586E+02 -0.23910660063E+03  0.24354217758E+03  0.47000000000E+01 0.  1.
         13    1    4    4    0    0  0.68528812042E+02 -0.20473779928E+02 -0.66982181576E+03  0.67362945201E+03  0.00000000000E+00 0. -1.
        -14    1    4    4    0    0  0.34521763553E+02 -0.81195781054E+02 -0.45161301777E+03  0.46015087182E+03  0.00000000000E+00 0.  1.
</event>
<event>
12    1  0.8331241E-002  0.1942690E+03  0.7818608E-02  0.1155144E+00
         21   -1    0    0  501  502  0.00000000000E+00  0.00000000000E+00  0.22851919068E+03  0.22851919068E+03  0.00000000000E+00 0.  1.
         21   -1    0    0  502  503 -0.00000000000E+00 -0.00000000000E+00 -0.45736053225E+03  0.45736053225E+03  0.00000000000E+00 0.  1.
         -6    2    1    2    0  503 -0.79631309190E+02 -0.40757160636E+02 -0.38962455396E+03  0.43537080649E+03  0.17244754144E+03 0.  0.
        -24    2    3    3    0    0 -0.57527748666E+02  0.33701320321E+02 -0.14822708361E+03  0.18174221688E+03  0.81324929909E+02 0.  0.
          6    2    1    2  501    0  0.79631309190E+02  0.40757160636E+02  0.16078321239E+03  0.25050891644E+03  0.17000348315E+03 0.  0.
         24    2    5    5    0    0  0.11122867062E+03  0.59061503557E+02  0.15079392946E+03  0.21236028616E+03  0.80610195420E+02 0.  0.
          5    1    5    5  501    0 -0.31597361428E+02 -0.18304342921E+02  0.99892829313E+01  0.38148630283E+02  0.47000000000E+01 0. -1.
        -11    1    6    6    0    0  0.51353884941E+02  0.14887892040E+02  0.12085887934E+03  0.13215800976E+03  0.00000000000E+00 0.  1.
         12    1    6    6    0    0  0.59874785677E+02  0.44173611517E+02  0.29935050122E+02  0.80202276402E+02  0.00000000000E+00 0. -1.
         -5    1    3    3    0  503 -0.22103560524E+02 -0.74458480957E+02 -0.24139747035E+03  0.25362858960E+03  0.47000000000E+01 0.  1.
         11    1    4    4    0    0 -0.18951216372E+02 -0.21338472433E+02 -0.14357606697E+02  0.31947141935E+02  0.00000000000E+00 0. -1.
        -12    1    4    4    0    0 -0.38576532294E+02  0.55039792754E+02 -0.13386947691E+03  0.14979507495E+03  0.00000000000E+00 0.  1.
</event>
<event>
12    1  0.8331241E-002  0.1757167E+03  0.7818608E-02  0.1172343E+00
         21   -1    0    0  503  502  0.00000000000E+00  0.00000000000E+00  0.26575620497E+03  0.26575620497E+03  0.00000000000E+00 0. -1.
         21   -1    0    0  501  503 -0.00000000000E+00 -0.00000000000E+00 -0.15664113142E+03  0.15664113142E+03  0.00000000000E+00 0. -1.
          6    2    1    2  501    0  0.31688254827E+02  0.70681384242E+00 -0.54070442736E+02  0.18259349843E+03  0.17149964377E+03 0.  0.
         24    2    3    3    0    0 -0.16603134202E+02  0.30727832696E+02  0.19733539885E+02  0.89306641490E+02  0.79789722711E+02 0.  0.
         -6    2    1    2    0  502 -0.31688254827E+02 -0.70681384242E+00  0.16318551628E+03  0.23980383795E+03  0.17283437995E+03 0.  0.
        -24    2    5    5    0    0 -0.65271178832E+02 -0.42823164677E+02  0.14467445212E+03  0.18265185383E+03  0.79604349093E+02 0.  0.
          5    1    3    3  501    0  0.48291389030E+02 -0.30021018853E+02 -0.73803982621E+02  0.93286856942E+02  0.47000000000E+01 0. -1.
        -13    1    4    4    0    0 -0.38633467449E+02  0.12496139455E+01 -0.12251316663E+02  0.40548749698E+02  0.00000000000E+00 0.  1.
         14    1    4    4    0    0  0.22030333246E+02  0.29478218750E+02  0.31984856547E+02  0.48757891792E+02  0.00000000000E+00 0. -1.
         -5    1    5    5    0  502  0.33582924005E+02  0.42116350834E+02  0.18511064164E+02  0.57151984120E+02  0.47000000000E+01 0.  1.
         13    1    6    6    0    0 -0.10517718271E+02 -0.49989391654E+02  0.97298947041E+02  0.10989379769E+03  0.00000000000E+00 0. -1.
        -14    1    6    6    0    0 -0.54753460562E+02  0.71662269772E+01  0.47375505077E+02  0.72758056144E+02  0.00000000000E+00 0.  1.
</event>
<event>
12    1  0.8331241E-002  0.1753168E+03  0.7818608E-02  0.1173282E+00
         21   -1    0    0  501  502  0.00000000000E+00  0.00000000000E+00  0.27941487311E+02  0.27941487311E+02  0.00000000000E+00 0.  1.
         21   -1    0    0  502  503 -0.00000000000E+00 -0.00000000000E+00 -0.11662809796E+04  0.11662809796E+04  0.00000000000E+00 0.  1.
         -6    2    1    2    0  503  0.84854931625E+01 -0.19589081300E+01 -0.40026518716E+03  0.43561211268E+03  0.17166785297E+03 0.  0.
        -24    2    3    3    0    0  0.23177231684E+02  0.23770785756E+01 -0.41162617719E+03  0.41597006452E+03  0.55246269160E+02 0.  0.
          6    2    1    2  501    0 -0.84854931625E+01  0.19589081300E+01 -0.73807430511E+03  0.75861035422E+03  0.17510039618E+03 0.  0.
         24    2    5    5    0    0 -0.49354319792E+02 -0.52788403939E+02 -0.47123525770E+03  0.48312406347E+03  0.78254253079E+02 0.  0.
          5    1    5    5  501    0  0.40868826630E+02  0.54747312069E+02 -0.26683904741E+03  0.27548629075E+03  0.47000000000E+01 0. -1.
        -13    1    6    6    0    0  0.84550584115E+01 -0.13645561343E+02 -0.26315262618E+03  0.26364179111E+03  0.00000000000E+00 0.  1.
         14    1    6    6    0    0 -0.57809378204E+02 -0.39142842596E+02 -0.20808263153E+03  0.21948227236E+03  0.00000000000E+00 0. -1.
         -5    1    3    3    0  503 -0.14691738521E+02 -0.43359867056E+01  0.11360990030E+02  0.19642048161E+02  0.47000000000E+01 0.  1.
         13    1    4    4    0    0  0.29060924766E+02  0.65164184486E+01 -0.10196975027E+03  0.10623008533E+03  0.00000000000E+00 0. -1.
        -14    1    4    4    0    0 -0.58836930822E+01 -0.41393398730E+01 -0.30965642692E+03  0.30973997919E+03  0.00000000000E+00 0.  1.
</event>
<event>
12    1  0.8331241E-002  0.1797020E+03  0.7818608E-02  0.1168480E+00
         21   -1    0    0  503  502  0.00000000000E+00  0.00000000000E+00  0.48114044204E+02  0.48114044204E+02  0.00000000000E+00 0. -1.
         21   -1    0    0  501  503 -0.00000000000E+00 -0.00000000000E+00 -0.71294371142E+03  0.71294371142E+03  0.00000000000E+00 0.  1.
          6    2    1    2  501    0  0.47098313813E+02  0.86874777090E+01 -0.23260195608E+03  0.29296204133E+03  0.17154988854E+03 0.  0.
         24    2    3    3    0    0  0.33811067174E+02 -0.15053634020E+02 -0.24669388782E+03  0.26196423738E+03  0.79984918696E+02 0.  0.
         -6    2    1    2    0  502 -0.47098313813E+02 -0.86874777090E+01 -0.43222771114E+03  0.46809571430E+03  0.17320242501E+03 0.  0.
        -24    2    5    5    0    0 -0.67122016063E+02 -0.11196286361E+02 -0.13989402651E+03  0.17502862992E+03  0.80211973984E+02 0.  0.
          5    1    3    3  501    0  0.13287246638E+02  0.23741111729E+02  0.14091931745E+02  0.30997803949E+02  0.47000000000E+01 0. -1.
        -11    1    4    4    0    0  0.58544447831E+02 -0.49743900060E+01 -0.13703924673E+03  0.14910382983E+03  0.00000000000E+00 0.  1.
         12    1    4    4    0    0 -0.24733380657E+02 -0.10079244014E+02 -0.10965464109E+03  0.11286040755E+03  0.00000000000E+00 0. -1.
         -5    1    5    5    0  502  0.20023702251E+02  0.25088086522E+01 -0.29233368463E+03  0.29306708437E+03  0.47000000000E+01 0.  1.
         13    1    6    6    0    0  0.32700008213E+01  0.11865017804E+02  0.42049338290E+01  0.13005884106E+02  0.00000000000E+00 0. -1.
        -14    1    6    6    0    0 -0.70392016885E+02 -0.23061304165E+02 -0.14409896034E+03  0.16202274582E+03  0.00000000000E+00 0.  1.
</event>
<event>
12    1  0.8331241E-002  0.2802064E+03  0.7818608E-02  0.1095590E+00
         21   -1    0    0  503  502  0.00000000000E+00  0.00000000000E+00  0.29654906485E+03  0.29654906485E+03  0.00000000000E+00 0. -1.
         21   -1    0    0  501  503 -0.00000000000E+00 -0.00000000000E+00 -0.39576787118E+03  0.39576787118E+03  0.00000000000E+00 0.  1.
          6    2    1    2  501    0 -0.87882543976E+02 -0.20255217781E+03 -0.24883257334E+03  0.37466952100E+03  0.17236262397E+03 0.  0.
         24    2    3    3    0    0 -0.89490201423E+02 -0.94677339401E+02 -0.74916551324E+02  0.16995401588E+03  0.79369913091E+02 0.  0.
         -6    2    1    2    0  502  0.87882543976E+02  0.20255217781E+03  0.14961376702E+03  0.31764741503E+03  0.17252499738E+03 0.  0.
        -24    2    5    5    0    0  0.10242141329E+03  0.12635815234E+03  0.15508842770E+03  0.23974381981E+03  0.83475446484E+02 0.  0.
          5    1    3    3  501    0  0.16076574471E+01 -0.10787483841E+03 -0.17391602201E+03  0.20471550512E+03  0.47000000000E+01 0. -1.
        -11    1    4    4    0    0 -0.48567613707E+02 -0.56133109739E+02 -0.84991250162E+02  0.11284171088E+03  0.00000000000E+00 0.  1.
         12    1    4    4    0    0 -0.40922587717E+02 -0.38544229662E+02  0.10074698837E+02  0.57112304999E+02  0.00000000000E+00 0. -1.
         -5    1    5    5    0  502 -0.14538869312E+02  0.76194025471E+02 -0.54746606856E+01  0.77903595219E+02  0.47000000000E+01 0.  1.
         13    1    6    6    0    0  0.10788831491E+02 -0.81207942089E+01  0.34958468535E+02  0.37475868313E+02  0.00000000000E+00 0. -1.
        -14    1    6    6    0    0  0.91632581798E+02  0.13447894655E+03  0.12012995917E+03  0.20226795150E+03  0.00000000000E+00 0.  1.
</event>
<event>
12    1  0.8331241E-002  0.2945905E+03  0.7818608E-02  0.1088020E+00
         21   -1    0    0  501  502  0.00000000000E+00  0.00000000000E+00  0.19549780407E+03  0.19549780407E+03  0.00000000000E+00 0. -1.
         21   -1    0    0  502  503 -0.00000000000E+00 -0.00000000000E+00 -0.86500085389E+03  0.86500085389E+03  0.00000000000E+00 0.  1.
         -6    2    1    2    0  503  0.18924853622E+02 -0.23800902358E+03 -0.70484170503E+03  0.76379613050E+03  0.17197748231E+03 0.  0.
        -24    2    3    3    0    0 -0.29308214862E+01 -0.31652144229E+02 -0.23492843598E+03  0.25008278376E+03  0.79621484226E+02 0.  0.
          6    2    1    2  501    0 -0.18924853622E+02  0.23800902358E+03  0.35338655214E+02  0.29670252746E+03  0.17256049333E+03 0.  0.
         24    2    5    5    0    0 -0.18661802688E+02  0.16279017163E+03  0.90530035768E+02  0.20328880592E+03  0.79257481525E+02 0.  0.
          5    1    5    5  501    0 -0.26305093422E+00  0.75218851957E+02 -0.55191380554E+02  0.93413721546E+02  0.47000000000E+01 0. -1.
        -13    1    6    6    0    0 -0.20240989670E+02  0.45896265964E+01 -0.50045009158E+00  0.20760847415E+02  0.00000000000E+00 0.  1.
         14    1    6    6    0    0  0.15791869820E+01  0.15820054503E+03  0.91030485860E+02  0.18252795850E+03  0.00000000000E+00 0. -1.
         -5    1    3    3    0  503  0.21855675108E+02 -0.20635687935E+03 -0.46991326905E+03  0.51371334674E+03  0.47000000000E+01 0.  1.
         13    1    4    4    0    0 -0.23230250349E+01 -0.17832114880E+02 -0.35981239187E+01  0.18339227414E+02  0.00000000000E+00 0. -1.
        -14    1    4    4    0    0 -0.60779645124E+00 -0.13820029349E+02 -0.23133031206E+03  0.23174355634E+03  0.00000000000E+00 0.  1.
</event>
<event>
12    1  0.8331241E-002  0.2352492E+03  0.7818608E-02  0.1123194E+00
         21   -1    0    0  501  502  0.00000000000E+00  0.00000000000E+00  0.37168230238E+03  0.37168230238E+03  0.00000000000E+00 0. -1.
         21   -1    0    0  502  503 -0.00000000000E+00 -0.00000000000E+00 -0.21601132210E+03  0.21601132210E+03  0.00000000000E+00 0.  1.
         -6    2    1    2    0  503 -0.12214994764E+03  0.10538666328E+03 -0.86960321979E+02  0.24974078024E+03  0.16965082143E+03 0.  0.
        -24    2    3    3    0    0 -0.12173517625E+03  0.79468126042E+02 -0.68286824966E+01  0.16538965544E+03  0.78565075125E+02 0.  0.
          6    2    1    2  501    0  0.12214994764E+03 -0.10538666328E+03  0.24263130226E+03  0.33795284424E+03  0.17121687297E+03 0.  0.
         24    2    5    5    0    0  0.15012571593E+03 -0.81580885142E+02  0.15769992353E+03  0.24529871440E+03  0.78160232851E+02 0.  0.
          5    1    5    5  501    0 -0.27975768294E+02 -0.23805778142E+02  0.84931378725E+02  0.92654129842E+02  0.47000000000E+01 0. -1.
        -13    1    6    6    0    0  0.81668900605E+02 -0.42364243564E+02  0.33009534637E+02  0.97745423605E+02  0.00000000000E+00 0.  1.
         14    1    6    6    0    0  0.68456815325E+02 -0.39216641578E+02  0.12469038889E+03  0.14755329079E+03  0.00000000000E+00 0. -1.
         -5    1    3    3    0  503 -0.41477138268E+00  0.25918537241E+02 -0.80131639483E+02  0.84351124795E+02  0.47000000000E+01 0.  1.
         11    1    4    4    0    0 -0.74352447177E+02  0.89363002670E+02 -0.11198119739E+02  0.11678797255E+03  0.00000000000E+00 0. -1.
        -12    1    4    4    0    0 -0.47382729075E+02 -0.98948766271E+01  0.43694372420E+01  0.48601682891E+02  0.00000000000E+00 0.  1.
</event>
<event>
12    1  0.8331241E-002  0.1897490E+03  0.7818608E-02  0.1159081E+00
         21   -1    0    0  503  502  0.00000000000E+00  0.00000000000E+00  0.17360040236E+03  0.17360040236E+03  0.00000000000E+00 0. -1.
         21   -1    0    0  501  503 -0.00000000000E+00 -0.00000000000E+00 -0.24267017370E+03  0.24267017370E+03  0.00000000000E+00 0.  1.
          6    2    1    2  501    0 -0.65933506686E+02 -0.46184820480E+02 -0.11611367253E+03  0.22245689295E+03  0.17182671308E+03 0.  0.
         24    2    3    3    0    0 -0.74853895121E+02 -0.31069405462E+01 -0.13477861700E+03  0.17443869618E+03  0.81552586895E+02 0.  0.
         -6    2    1    2    0  502  0.65933506686E+02  0.46184820480E+02  0.47043901189E+02  0.19381368311E+03  0.16991277226E+03 0.  0.
        -24    2    5    5    0    0  0.28440283404E+02 -0.33740324996E+02 -0.32551996956E+01  0.92099081303E+02  0.80773666507E+02 0.  0.
          5    1    3    3  501    0  0.89203884348E+01 -0.43077879933E+02  0.18664944472E+02  0.48018196775E+02  0.47000000000E+01 0. -1.
        -11    1    4    4    0    0 -0.37122648346E+02  0.34878976070E+02 -0.36986908500E+02  0.62949705260E+02  0.00000000000E+00 0.  1.
         12    1    4    4    0    0 -0.37731246775E+02 -0.37985916616E+02 -0.97791708501E+02  0.11148899092E+03  0.00000000000E+00 0. -1.
         -5    1    5    5    0  502  0.37493223282E+02  0.79925145475E+02  0.50299100885E+02  0.10171460181E+03  0.47000000000E+01 0.  1.
         13    1    6    6    0    0  0.33237249968E+02 -0.35679967799E+02  0.30785524735E+02  0.57667351429E+02  0.00000000000E+00 0. -1.
        -14    1    6    6    0    0 -0.47969665644E+01  0.19396428032E+01 -0.34040724430E+02  0.34431729875E+02  0.00000000000E+00 0.  1.
</event>
<event>
12    1  0.8331241E-002  0.1739753E+03  0.7818608E-02  0.1173845E+00
         21   -1    0    0  501  502  0.00000000000E+00  0.00000000000E+00  0.10311564649E+04  0.10311564649E+04  0.00000000000E+00 0. -1.
         21   -1    0    0  502  503 -0.00000000000E+00 -0.00000000000E+00 -0.61132043363E+02  0.61132043363E+02  0.00000000000E+00 0. -1.
         -6    2    1    2    0  503 -0.24085172199E+02  0.34943630232E+01  0.90696447501E+02  0.19591520973E+03  0.17194364694E+03 0.  0.
        -24    2    3    3    0    0  0.32028100070E+02  0.49492446446E+02  0.38128131216E+02  0.10619318969E+03  0.79673946165E+02 0.  0.
          6    2    1    2  501    0  0.24085172199E+02 -0.34943630232E+01  0.87932797399E+03  0.89637329848E+03  0.17226461709E+03 0.  0.
         24    2    5    5    0    0  0.25640928635E+02  0.64349941305E+02  0.46520363400E+03  0.47669922378E+03  0.77648932366E+02 0.  0.
          5    1    5    5  501    0 -0.15557564359E+01 -0.67844304329E+02  0.41412433998E+03  0.41967407470E+03  0.47000000000E+01 0. -1.
        -11    1    6    6    0    0  0.17621808804E+02 -0.78067506603E+01  0.31259001905E+02  0.36723271933E+02  0.00000000000E+00 0.  1.
         12    1    6    6    0    0  0.80191198303E+01  0.72156691966E+02  0.43394463210E+03  0.43997595185E+03  0.00000000000E+00 0. -1.
         -5    1    3    3    0  503 -0.56113272269E+02 -0.45998083423E+02  0.52568316285E+02  0.89722020042E+02  0.47000000000E+01 0.  1.
         13    1    4    4    0    0 -0.23459411165E+02 -0.11844578474E+01  0.13613053788E+02  0.27148888486E+02  0.00000000000E+00 0. -1.
        -14    1    4    4    0    0  0.55487511234E+02  0.50676904294E+02  0.24515077428E+02  0.79044301206E+02  0.00000000000E+00 0.  1.
</event>
<event>
12    1  0.8331241E-002  0.1857409E+03  0.7818608E-02  0.1162583E+00
         21   -1    0    0  501  502  0.00000000000E+00  0.00000000000E+00  0.12912157503E+03  0.12912157503E+03  0.00000000000E+00 0. -1.
         21   -1    0    0  502  503 -0.00000000000E+00 -0.00000000000E+00 -0.67280870678E+03  0.67280870678E+03  0.00000000000E+00 0. -1.
         -6    2    1    2    0  503 -0.70367725172E+01 -0.65910066944E+02 -0.58342342963E+03  0.61198647143E+03  0.17248446271E+03 0.  0.
        -24    2    3    3    0    0  0.52741402663E+02 -0.39427000350E+02 -0.22755181899E+03  0.25012810645E+03  0.80300033618E+02 0.  0.
          6    2    1    2  501    0  0.70367725172E+01  0.65910066944E+02  0.39736297885E+02  0.18994381038E+03  0.17351087759E+03 0.  0.
         24    2    5    5    0    0 -0.41089109759E+02 -0.13128046362E+02  0.31370537609E+01  0.90320928621E+02  0.79292928428E+02 0.  0.
          5    1    5    5  501    0  0.48125882276E+02  0.79038113306E+02  0.36599244124E+02  0.99622881760E+02  0.47000000000E+01 0. -1.
        -11    1    6    6    0    0  0.19725735822E+02 -0.10442480603E+02 -0.14894076397E+02  0.26832509510E+02  0.00000000000E+00 0.  1.
         12    1    6    6    0    0 -0.60814845581E+02 -0.26855657583E+01  0.18031130158E+02  0.63488419112E+02  0.00000000000E+00 0. -1.
         -5    1    3    3    0  503 -0.59778175180E+02 -0.26483066594E+02 -0.35587161064E+03  0.36185836497E+03  0.47000000000E+01 0.  1.
         13    1    4    4    0    0  0.43958740408E+02 -0.62450793844E+02 -0.19406722971E+03  0.20855349951E+03  0.00000000000E+00 0. -1.
        -14    1    4    4    0    0  0.87826622556E+01  0.23023793493E+02 -0.33484589285E+02  0.41574606946E+02  0.00000000000E+00 0.  1.
</event>
<event>
12    1  0.8331241E-002  0.2146472E+03  0.7818608E-02  0.1138023E+00
         21   -1    0    0  503  502  0.00000000000E+00  0.00000000000E+00  0.12009745851E+03  0.12009745851E+03  0.00000000000E+00 0. -1.
         21   -1    0    0  501  503 -0.00000000000E+00 -0.00000000000E+00 -0.39403882778E+03  0.39403882778E+03  0.00000000000E+00 0. -1.
          6    2    1    2  501    0 -0.97375522973E+02  0.80789068952E+02 -0.18016344862E+03  0.27989772780E+03  0.17284387081E+03 0.  0.
         24    2    3    3    0    0 -0.10228671333E+03  0.49498298096E+00 -0.13426467729E+03  0.18716128814E+03  0.80867344945E+02 0.  0.
         -6    2    1    2    0  502  0.97375522973E+02 -0.80789068952E+02 -0.93777920651E+02  0.23423855848E+03  0.17339128508E+03 0.  0.
        -24    2    5    5    0    0  0.31021303567E+02 -0.70348567782E+02  0.10633687462E+02  0.10999782279E+03  0.77943591426E+02 0.  0.
          5    1    3    3  501    0  0.49111903537E+01  0.80294085971E+02 -0.45898771328E+02  0.92736439667E+02  0.47000000000E+01 0. -1.
        -13    1    4    4    0    0 -0.10858634563E+03  0.19516764077E+02 -0.11218511132E+03  0.15734483703E+03  0.00000000000E+00 0.  1.
         14    1    4    4    0    0  0.62996323070E+01 -0.19021781096E+02 -0.22079565968E+02  0.29816451107E+02  0.00000000000E+00 0. -1.
         -5    1    5    5    0  502  0.66354219407E+02 -0.10440501170E+02 -0.10441160811E+03  0.12424073570E+03  0.47000000000E+01 0.  1.
         11    1    6    6    0    0  0.74009005227E+01 -0.78068090272E+02 -0.81599523280E+01  0.78841517421E+02  0.00000000000E+00 0. -1.
        -12    1    6    6    0    0  0.23620403044E+02  0.77195224893E+01  0.18793639790E+02  0.31156305364E+02  0.00000000000E+00 0.  1.
</event>
<event>
12    1  0.8331241E-002  0.2079470E+03  0.7818608E-02  0.1144252E+00
         21   -1    0    0  503  502  0.00000000000E+00  0.00000000000E+00  0.44207099324E+03  0.44207099324E+03  0.00000000000E+00 0. -1.
         21   -1    0    0  501  503 -0.00000000000E+00 -0.00000000000E+00 -0.10324556698E+03  0.10324556698E+03  0.00000000000E+00 0. -1.
          6    2    1    2  501    0 -0.10252678352E+03 -0.52562010797E+02  0.24652552006E+03  0.32251635259E+03  0.17311111846E+03 0.  0.
         24    2    3    3    0    0 -0.97801295857E+02  0.74329406556E+01  0.85623348790E+02  0.15066373215E+03  0.75814644039E+02 0.  0.
         -6    2    1    2    0  502  0.10252678352E+03  0.52562010797E+02  0.92299906198E+02  0.22280020763E+03  0.16687166780E+03 0.  0.
        -24    2    5    5    0    0  0.30182512037E+02 -0.27759740547E+01 -0.10698205316E+02  0.85225910755E+02  0.78932339394E+02 0.  0.
          5    1    3    3  501    0 -0.47254876637E+01 -0.59994951452E+02  0.16090217127E+03  0.17185262044E+03  0.47000000000E+01 0. -1.
        -13    1    4    4    0    0 -0.52104984103E+02 -0.28388280576E+02  0.67423658963E+02  0.89815219369E+02  0.00000000000E+00 0.  1.
         14    1    4    4    0    0 -0.45696311754E+02  0.35821221231E+02  0.18199689827E+02  0.60848512785E+02  0.00000000000E+00 0. -1.
         -5    1    5    5    0  502  0.72344271483E+02  0.55337984851E+02  0.10299811151E+03  0.13757429687E+03  0.47000000000E+01 0.  1.
         13    1    6    6    0    0  0.48220881061E+02  0.21013492876E+02 -0.15834612169E+02  0.54932278268E+02  0.00000000000E+00 0. -1.
        -14    1    6    6    0    0 -0.18038369024E+02 -0.23789466931E+02  0.51364068528E+01  0.30293632487E+02  0.00000000000E+00 0.  1.
</event>
<event>
12    1  0.8331241E-002  0.1743240E+03  0.7818608E-02  0.1174143E+00
         21   -1    0    0  501  502  0.00000000000E+00  0.00000000000E+00  0.10767540214E+03  0.10767540214E+03  0.00000000000E+00 0.  1.
         21   -1    0    0  502  503 -0.00000000000E+00 -0.00000000000E+00 -0.31108916316E+03  0.31108916316E+03  0.00000000000E+00 0.  1.
         -6    2    1    2    0  503 -0.15709698430E+02  0.15249403863E+01 -0.17116225142E+03  0.24430591744E+03  0.17360802090E+03 0.  0.
        -24    2    3    3    0    0  0.20358828530E+02 -0.45889390002E+02 -0.15692559744E+03  0.18287441348E+03  0.79354205682E+02 0.  0.
          6    2    1    2  501    0  0.15709698430E+02 -0.15249403863E+01 -0.32251509602E+02  0.17445864786E+03  0.17072357738E+03 0.  0.
         24    2    5    5    0    0 -0.19991659166E+02  0.17313604335E+02 -0.77032192964E+02  0.11398652781E+03  0.79746739354E+02 0.  0.
          5    1    5    5  501    0  0.35701357595E+02 -0.18838544721E+02  0.44780683362E+02  0.60472120053E+02  0.47000000000E+01 0. -1.
        -11    1    6    6    0    0  0.16221609123E+02 -0.21019408718E+02 -0.45109643105E+02  0.52343443205E+02  0.00000000000E+00 0.  1.
         12    1    6    6    0    0 -0.36213268289E+02  0.38333013053E+02 -0.31922549858E+02  0.61643084603E+02  0.00000000000E+00 0. -1.
         -5    1    3    3    0  503 -0.36068526959E+02  0.47414330389E+02 -0.14236653981E+02  0.61431503968E+02  0.47000000000E+01 0.  1.
         13    1    4    4    0    0 -0.24151117602E+02 -0.39810859753E+02 -0.59200856345E+02  0.75318805273E+02  0.00000000000E+00 0. -1.
        -14    1    4    4    0    0  0.44509946131E+02 -0.60785302490E+01 -0.97724741091E+02  0.10755560820E+03  0.00000000000E+00 0.  1.
</event>
<event>
12    1  0.8331241E-002  0.2030294E+03  0.7818608E-02  0.1147248E+00
         21   -1    0    0  503  502  0.00000000000E+00  0.00000000000E+00  0.78589741210E+03  0.78589741210E+03  0.00000000000E+00 0. -1.
         21   -1    0    0  501  503 -0.00000000000E+00 -0.00000000000E+00 -0.26797436128E+03  0.26797436128E+03  0.00000000000E+00 0. -1.
          6    2    1    2  501    0  0.44678505125E+02 -0.96992208382E+02 -0.21367886754E+03  0.29462061430E+03  0.17244996557E+03 0.  0.
         24    2    3    3    0    0  0.95431180553E+02 -0.72392289914E+02 -0.17139047556E+03  0.22397085740E+03  0.80252700855E+02 0.  0.
         -6    2    1    2    0  502 -0.44678505125E+02  0.96992208382E+02  0.73160191836E+03  0.75925115908E+03  0.17267686099E+03 0.  0.
        -24    2    5    5    0    0 -0.59421707239E+02  0.98156112923E+02  0.73046439553E+03  0.74369157552E+03  0.79582438869E+02 0.  0.
          5    1    3    3  501    0 -0.50752675429E+02 -0.24599918468E+02 -0.42288391988E+02  0.70649756891E+02  0.47000000000E+01 0. -1.
        -11    1    4    4    0    0  0.65418207087E+02  0.41099110908E+00 -0.76178659003E+02  0.10041363861E+03  0.00000000000E+00 0.  1.
         12    1    4    4    0    0  0.30012973466E+02 -0.72803281023E+02 -0.95211816553E+02  0.12355721879E+03  0.00000000000E+00 0. -1.
         -5    1    5    5    0  502  0.14743202115E+02 -0.11639045407E+01  0.11375228277E+01  0.15559583560E+02  0.47000000000E+01 0.  1.
         11    1    6    6    0    0 -0.28681182788E+02  0.89624854456E+02  0.36855409418E+03  0.38037789778E+03  0.00000000000E+00 0. -1.
        -12    1    6    6    0    0 -0.30740524451E+02  0.85312584667E+01  0.36191030135E+03  0.36331367774E+03  0.00000000000E+00 0.  1.
</event>
<event>
12    1  0.8331241E-002  0.1729202E+03  0.7818608E-02  0.1174889E+00
         21   -1    0    0  503  502  0.00000000000E+00  0.00000000000E+00  0.41778490554E+03  0.41778490554E+03  0.00000000000E+00 0.  1.
         21   -1    0    0  501  503 -0.00000000000E+00 -0.00000000000E+00 -0.10050586252E+03  0.10050586252E+03  0.00000000000E+00 0.  1.
          6    2    1    2  501    0  0.20749586699E+02  0.49505875226E+01  0.19323420483E+02  0.17379263320E+03  0.17139262268E+03 0.  0.
         24    2    3    3    0    0 -0.38122964109E+00 -0.30069928519E+02  0.75475874418E+02  0.10416407565E+03  0.65185896477E+02 0.  0.
         -6    2    1    2    0  502 -0.20749586699E+02 -0.49505875226E+01  0.29795562254E+03  0.34449813487E+03  0.17159941219E+03 0.  0.
        -24    2    5    5    0    0 -0.34546776896E+01 -0.23151396473E+02  0.30632203046E+03  0.31761933085E+03  0.80628351267E+02 0.  0.
          5    1    3    3  501    0  0.21130816340E+02  0.35020516042E+02 -0.56152453935E+02  0.69628557546E+02  0.47000000000E+01 0. -1.
        -13    1    4    4    0    0  0.16363957899E+02 -0.42135684596E+02  0.30077030375E+02  0.54293855920E+02  0.00000000000E+00 0.  1.
         14    1    4    4    0    0 -0.16745187540E+02  0.12065756077E+02  0.45398844042E+02  0.49870219729E+02  0.00000000000E+00 0. -1.
         -5    1    5    5    0  502 -0.17294909010E+02  0.18200808950E+02 -0.83664079215E+01  0.26878804021E+02  0.47000000000E+01 0.  1.
         13    1    6    6    0    0 -0.32227269959E+02 -0.38796430125E+02  0.16413904578E+03  0.17171309289E+03  0.00000000000E+00 0. -1.
        -14    1    6    6    0    0  0.28772592270E+02  0.15645033652E+02  0.14218298468E+03  0.14590623796E+03  0.00000000000E+00 0.  1.
</event>
<event>
12    1  0.8331241E-002  0.1955009E+03  0.7818608E-02  0.1154102E+00
         21   -1    0    0  501  502  0.00000000000E+00  0.00000000000E+00  0.17838246681E+03  0.17838246681E+03  0.00000000000E+00 0. -1.
         21   -1    0    0  502  503 -0.00000000000E+00 -0.00000000000E+00 -0.21327088577E+03  0.21327088577E+03  0.00000000000E+00 0.  1.
         -6    2    1    2    0  503 -0.10047754289E+02  0.93144112974E+02 -0.34091771845E+02  0.19615079875E+03  0.16892632653E+03 0.  0.
        -24    2    3    3    0    0 -0.40937378534E+02  0.11973588539E+03 -0.33938925457E+02  0.15512148474E+03  0.83055843590E+02 0.  0.
          6    2    1    2  501    0  0.10047754289E+02 -0.93144112974E+02 -0.79664712027E+00  0.19550255383E+03  0.17159204748E+03 0.  0.
         24    2    5    5    0    0  0.37521670557E+02 -0.12903680916E+03  0.14062580448E+02  0.14769054322E+03  0.59635279073E+02 0.  0.
          5    1    5    5  501    0 -0.27473916269E+02  0.35892696183E+02 -0.14859227568E+02  0.47812010607E+02  0.47000000000E+01 0. -1.
        -13    1    6    6    0    0 -0.55406584172E+01 -0.25434858362E+02 -0.17225407224E+02  0.31214508961E+02  0.00000000000E+00 0.  1.
         14    1    6    6    0    0  0.43062328974E+02 -0.10360195079E+03  0.31287987672E+02  0.11647603426E+03  0.00000000000E+00 0. -1.
         -5    1    3    3    0  503  0.30889624245E+02 -0.26591772418E+02 -0.15284638827E+00  0.41029314013E+02  0.47000000000E+01 0.  1.
         13    1    4    4    0    0 -0.23764477076E+02  0.10925449173E+02  0.19559739319E+02  0.32660361489E+02  0.00000000000E+00 0. -1.
        -14    1    4    4    0    0 -0.17172901457E+02  0.10881043622E+03 -0.53498664776E+02  0.12246112325E+03  0.00000000000E+00 0.  1.
</event>
<event>
12    1  0.8331241E-002  0.1855378E+03  0.7818608E-02  0.1162658E+00
         21   -1    0    0  503  502  0.00000000000E+00  0.00000000000E+00  0.26194873907E+02  0.26194873907E+02  0.00000000000E+00 0. -1.
         21   -1    0    0  501  503 -0.00000000000E+00 -0.00000000000E+00 -0.15760563013E+04  0.15760563013E+04  0.00000000000E+00 0.  1.
          6    2    1    2  501    0  0.70337350385E+02 -0.70815370305E+01 -0.11043968285E+04  0.11198734922E+04  0.17154239324E+03 0.  0.
         24    2    3    3    0    0 -0.12367342475E+01  0.27540253860E+01 -0.23592630634E+03  0.24839043111E+03  0.77636783021E+02 0.  0.
         -6    2    1    2    0  502 -0.70337350385E+02  0.70815370305E+01 -0.44546459893E+03  0.48237768306E+03  0.17103224604E+03 0.  0.
        -24    2    5    5    0    0 -0.45412322866E+02  0.29950515800E+02 -0.43641391779E+03  0.44704707288E+03  0.80216365268E+02 0.  0.
          5    1    3    3  501    0  0.71574084632E+02 -0.98355624165E+01 -0.86847052215E+03  0.87148306106E+03  0.47000000000E+01 0. -1.
        -13    1    4    4    0    0 -0.48934410586E+01  0.19018526304E+02 -0.22978818740E+03  0.23062580337E+03  0.00000000000E+00 0.  1.
         14    1    4    4    0    0  0.36567068111E+01 -0.16264500918E+02 -0.61381189330E+01  0.17764627743E+02  0.00000000000E+00 0. -1.
         -5    1    5    5    0  502 -0.24925027519E+02 -0.22868978770E+02 -0.90506811365E+01  0.35330610182E+02  0.47000000000E+01 0.  1.
         11    1    6    6    0    0 -0.28158182814E+02 -0.21497143571E+02 -0.95851401036E+02  0.10218855866E+03  0.00000000000E+00 0. -1.
        -12    1    6    6    0    0 -0.17254140052E+02  0.51447659371E+02 -0.34056251676E+03  0.34485851421E+03  0.00000000000E+00 0.  1.
</event>
<event>
12    1  0.8331241E-002  0.1905860E+03  0.7818608E-02  0.1158272E+00
         21   -1    0    0  501  502  0.00000000000E+00  0.00000000000E+00  0.58990888982E+03  0.58990888982E+03  0.00000000000E+00 0.  1.
         21   -1    0    0  502  503 -0.00000000000E+00 -0.00000000000E+00 -0.11147613891E+03  0.11147613891E+03  0.00000000000E+00 0.  1.
         -6    2    1    2    0  503 -0.62069570280E+02 -0.32431186643E+02  0.39652753455E+01  0.19062724965E+03  0.17725295901E+03 0.  0.
        -24    2    3    3    0    0 -0.44766065116E+02 -0.90457798467E+02  0.15308390421E+02  0.12884330974E+03  0.78610672037E+02 0.  0.
          6    2    1    2  501    0  0.62069570280E+02  0.32431186643E+02  0.47446747556E+03  0.51075777909E+03  0.17564085548E+03 0.  0.
         24    2    5    5    0    0 -0.16817958515E+02  0.34620851630E+02  0.13817539655E+03  0.16529795619E+03  0.82155505064E+02 0.  0.
          5    1    5    5  501    0  0.78887528795E+02 -0.21896649873E+01  0.33629207901E+03  0.34545982290E+03  0.47000000000E+01 0. -1.
        -11    1    6    6    0    0 -0.41650111621E+02  0.30325924213E+01  0.10564735944E+03  0.11360146554E+03  0.00000000000E+00 0.  1.
         12    1    6    6    0    0  0.24832153106E+02  0.31588259209E+02  0.32528037106E+02  0.51696490652E+02  0.00000000000E+00 0. -1.
         -5    1    3    3    0  503 -0.17303505163E+02  0.58026611824E+02 -0.11343115076E+02  0.61783939907E+02  0.47000000000E+01 0.  1.
         11    1    4    4    0    0  0.12002558626E+02 -0.34270745509E+02 -0.20066493591E+02  0.41487462881E+02  0.00000000000E+00 0. -1.
        -12    1    4    4    0    0 -0.56768623742E+02 -0.56187052958E+02  0.35374884012E+02  0.87355846859E+02  0.00000000000E+00 0.  1.
</event>
<event>
12    1  0.8331241E-002  0.2901221E+03  0.7818608E-02  0.1090440E+00
         21   -1    0    0  501  502  0.00000000000E+00  0.00000000000E+00  0.61709945473E+03  0.61709945473E+03  0.00000000000E+00 0.  1.
         21   -1    0    0  502  503 -0.00000000000E+00 -0.00000000000E+00 -0.35055354783E+03  0.35055354783E+03  0.00000000000E+00 0. -1.
         -6    2    1    2    0  503 -0.14111830589E+03  0.18599406222E+03  0.51181888328E+03  0.58774555006E+03  0.17022953590E+03 0.  0.
        -24    2    3    3    0    0 -0.14501435190E+03  0.19075742187E+03  0.38387009296E+03  0.45956266620E+03  0.80150106932E+02 0.  0.
          6    2    1    2  501    0  0.14111830589E+03 -0.18599406222E+03 -0.24527297638E+03  0.37990745250E+03  0.17222854607E+03 0.  0.
         24    2    5    5    0    0  0.97256040501E+02 -0.30431545789E+02 -0.12120292824E+03  0.17609611403E+03  0.77038141000E+02 0.  0.
          5    1    5    5  501    0  0.43862265389E+02 -0.15556251643E+03 -0.12407004814E+03  0.20381133847E+03  0.47000000000E+01 0. -1.
        -11    1    6    6    0    0 -0.11983648100E+02 -0.11878157423E+02 -0.14071182641E+02  0.21970357905E+02  0.00000000000E+00 0.  1.
         12    1    6    6    0    0  0.10923968860E+03 -0.18553388366E+02 -0.10713174560E+03  0.15412575612E+03  0.00000000000E+00 0. -1.
         -5    1    3    3    0  503  0.38960460126E+01 -0.47633596486E+01  0.12794879032E+03  0.12818288386E+03  0.47000000000E+01 0.  1.
         11    1    4    4    0    0 -0.84624722389E+02  0.12282772422E+03  0.16420735316E+03  0.22183788745E+03  0.00000000000E+00 0. -1.
        -12    1    4    4    0    0 -0.60389629514E+02  0.67929697644E+02  0.21966273980E+03  0.23772477875E+03  0.00000000000E+00 0.  1.
</event>
<event>
12    1  0.8331241E-002  0.1977559E+03  0.7818608E-02  0.1151702E+00
         21   -1    0    0  501  502  0.00000000000E+00  0.00000000000E+00  0.24077345971E+03  0.24077345971E+03  0.00000000000E+00 0. -1.
         21   -1    0    0  502  503 -0.00000000000E+00 -0.00000000000E+00 -0.17276505779E+03  0.17276505779E+03  0.00000000000E+00 0.  1.
         -6    2    1    2    0  503 -0.24090357195E+02  0.94074541145E+02 -0.17128442284E+02  0.19823480325E+03  0.17196886080E+03 0.  0.
        -24    2    3    3    0    0  0.44238894444E+02  0.13445220885E+02 -0.21885886631E+02  0.92335335872E+02  0.76869815082E+02 0.  0.
          6    2    1    2  501    0  0.24090357195E+02 -0.94074541145E+02  0.85136844204E+02  0.21530371424E+03  0.17227026012E+03 0.  0.
         24    2    5    5    0    0  0.56115617805E+02 -0.21044350158E+01  0.24618071032E+02  0.10054862875E+03  0.79690564774E+02 0.  0.
          5    1    5    5  501    0 -0.32025260609E+02 -0.91970106129E+02  0.60518773171E+02  0.11475508549E+03  0.47000000000E+01 0. -1.
        -11    1    6    6    0    0 -0.17744619579E+02  0.92945584031E+01 -0.41701814486E+01  0.20460956802E+02  0.00000000000E+00 0.  1.
         12    1    6    6    0    0  0.73860237384E+02 -0.11398993419E+02  0.28788252481E+02  0.80087671949E+02  0.00000000000E+00 0. -1.
         -5    1    3    3    0  503 -0.68329251639E+02  0.80629320260E+02  0.47574443477E+01  0.10589946738E+03  0.47000000000E+01 0.  1.
         13    1    4    4    0    0 -0.10844545412E+02 -0.42502898944E+01  0.18441217136E+02  0.21811639526E+02  0.00000000000E+00 0. -1.
        -14    1    4    4    0    0  0.55083439855E+02  0.17695510779E+02 -0.40327103767E+02  0.70523696346E+02  0.00000000000E+00 0.  1.
</event>
<event>
12    1  0.8331241E-002  0.2060141E+03  0.7818608E-02  0.1145252E+00
         21   -1    0    0  503  502  0.00000000000E+00  0.00000000000E+00  0.11356556336E+03  0.11356556336E+03  0.00000000000E+00 0. -1.
         21   -1    0    0  501  503 -0.00000000000E+00 -0.00000000000E+00 -0.69922044477E+03  0.69922044477E+03  0.00000000000E+00 0. -1.
          6    2    1    2  501    0  0.10490495951E+03 -0.43807754703E+02 -0.57285221356E+03  0.60877045997E+03  0.17180699766E+03 0.  0.
         24    2    3    3    0    0 -0.14511430354E+02 -0.24815462251E+02 -0.25639647469E+03  0.26996770614E+03  0.79479691398E+02 0.  0.
         -6    2    1    2    0  502 -0.10490495951E+03  0.43807754703E+02 -0.12802667847E+02  0.20401554817E+03  0.16892088589E+03 0.  0.
        -24    2    5    5    0    0 -0.13772981976E+03  0.41831947163E+02 -0.28223476610E+02  0.16739224125E+03  0.80648513591E+02 0.  0.
          5    1    3    3  501    0  0.11941638986E+03 -0.18992292452E+02 -0.31645573887E+03  0.33880275383E+03  0.47000000000E+01 0. -1.
        -11    1    4    4    0    0 -0.27821017349E+02 -0.18111834635E+00 -0.26666124582E+02  0.38537306735E+02  0.00000000000E+00 0.  1.
         12    1    4    4    0    0  0.13309586994E+02 -0.24634343905E+02 -0.22973035011E+03  0.23143039940E+03  0.00000000000E+00 0. -1.
         -5    1    5    5    0  502  0.32824860258E+02  0.19758075407E+01  0.15420808763E+02  0.36623306913E+02  0.47000000000E+01 0.  1.
         13    1    6    6    0    0 -0.99771318616E+02 -0.10522232595E+02 -0.16577568118E+02  0.10168504886E+03  0.00000000000E+00 0. -1.
        -14    1    6    6    0    0 -0.37958501147E+02  0.52354179758E+02 -0.11645908492E+02  0.65707192392E+02  0.00000000000E+00 0.  1.
</event>
<event>
12    1  0.8331241E-002  0.2071677E+03  0.7818608E-02  0.1144772E+00
         21   -1    0    0  503  502  0.00000000000E+00  0.00000000000E+00  0.15127420972E+04  0.15127420972E+04  0.00000000000E+00 0. -1.
         21   -1    0    0  501  503 -0.00000000000E+00 -0.00000000000E+00 -0.27953541493E+02  0.27953541493E+02  0.00000000000E+00 0.  1.
          6    2    1    2  501    0  0.73718697414E+02 -0.80702078330E+02  0.66694242394E+03  0.69701871262E+03  0.17051573857E+03 0.  0.
         24    2    3    3    0    0  0.23545310038E+02  0.60099354006E+01  0.16200802710E+03  0.18222052183E+03  0.79794841841E+02 0.  0.
         -6    2    1    2    0  502 -0.73718697414E+02  0.80702078330E+02  0.81784613181E+03  0.84367692611E+03  0.17598633057E+03 0.  0.
        -24    2    5    5    0    0  0.15917450060E+02  0.73566863803E+02  0.38825871979E+03  0.40475439903E+03  0.86115279548E+02 0.  0.
          5    1    3    3  501    0  0.50173387375E+02 -0.86712013731E+02  0.50493439684E+03  0.51479819079E+03  0.47000000000E+01 0. -1.
        -11    1    4    4    0    0 -0.17804381590E+02  0.80698518834E+01  0.54679421181E+01  0.20298199532E+02  0.00000000000E+00 0.  1.
         12    1    4    4    0    0  0.41349691628E+02 -0.20599164828E+01  0.15654008498E+03  0.16192232230E+03  0.00000000000E+00 0. -1.
         -5    1    5    5    0  502 -0.89636147473E+02  0.71352145277E+01  0.42958741201E+03  0.43892252708E+03  0.47000000000E+01 0.  1.
         11    1    6    6    0    0  0.24259087701E+02 -0.11734829567E+02  0.12585940515E+03  0.12871207956E+03  0.00000000000E+00 0. -1.
        -12    1    6    6    0    0 -0.83416376409E+01  0.85301693370E+02  0.26239931465E+03  0.27604231947E+03  0.00000000000E+00 0.  1.
</event>
<event>
12    1  0.8331241E-002  0.1909950E+03  0.7818608E-02  0.1157605E+00
         21   -1    0    0  501  502  0.00000000000E+00  0.00000000000E+00  0.11107654413E+03  0.11107654413E+03  0.00000000000E+00 0. -1.
         21   -1    0    0  502  503 -0.00000000000E+00 -0.00000000000E+00 -0.36749429364E+03  0.36749429364E+03  0.00000000000E+00 0. -1.
         -6    2    1    2    0  503 -0.28048182605E+02  0.78427652992E+02 -0.20647824928E+03  0.28115489827E+03  0.17168928940E+03 0.  0.
        -24    2    3    3    0    0  0.48931745689E+02  0.56235081408E+02 -0.15841032175E+03  0.18760793012E+03  0.67425553686E+02 0.  0.
          6    2    1    2  501    0  0.28048182605E+02 -0.78427652992E+02 -0.49939500226E+02  0.19741593950E+03  0.17187641544E+03 0.  0.
         24    2    5    5    0    0 -0.86638782981E+01  0.13713156808E+02 -0.54598863162E+02  0.98010185591E+02  0.79761188332E+02 0.  0.
          5    1    5    5  501    0  0.36712060903E+02 -0.92140809801E+02  0.46593629363E+01  0.99405753905E+02  0.47000000000E+01 0. -1.
        -13    1    6    6    0    0  0.10841098692E+01  0.28093628125E+02  0.10969897323E+02  0.30178897971E+02  0.00000000000E+00 0.  1.
         14    1    6    6    0    0 -0.97479881674E+01 -0.14380471317E+02 -0.65568760485E+02  0.67831287620E+02  0.00000000000E+00 0. -1.
         -5    1    3    3    0  503 -0.76979928294E+02  0.22192571585E+02 -0.48067927532E+02  0.93546968155E+02  0.47000000000E+01 0.  1.
         13    1    4    4    0    0 -0.39609260501E+00 -0.60019523083E+01 -0.63811134390E+02  0.64094002785E+02  0.00000000000E+00 0. -1.
        -14    1    4    4    0    0  0.49327838294E+02  0.62237033716E+02 -0.94599187361E+02  0.12351392734E+03  0.00000000000E+00 0.  1.
</event>
<event>
12    1  0.8331241E-002  0.1885591E+03  0.7818608E-02  0.1159894E+00
         21   -1    0    0  503  502  0.00000000000E+00  0.00000000000E+00  0.13144842038E+03  0.13144842038E+03  0.00000000000E+00 0.  1.
         21   -1    0    0  501  503 -0.00000000000E+00 -0.00000000000E+00 -0.27751271740E+03  0.27751271740E+03  0.00000000000E+00 0. -1.
          6    2    1    2  501    0  0.35665397062E+02  0.68680329573E+02 -0.10726230206E+03  0.21645102271E+03  0.17133836573E+03 0.  0.
         24    2    3    3    0    0  0.11776823995E+02  0.14615673896E+02  0.11941208082E+02  0.83314935389E+02  0.80289940227E+02 0.  0.
         -6    2    1    2    0  502 -0.35665397062E+02 -0.68680329573E+02 -0.38801994953E+02  0.19251011507E+03  0.17194633283E+03 0.  0.
        -24    2    5    5    0    0  0.42756302472E+02 -0.20556354056E+02 -0.37429376728E+02  0.10036971102E+03  0.80140224324E+02 0.  0.
          5    1    3    3  501    0  0.23888573067E+02  0.54064655677E+02 -0.11920351014E+03  0.13313608732E+03  0.47000000000E+01 0. -1.
        -13    1    4    4    0    0  0.45281854350E+02  0.52595316314E+01  0.15954020180E+02  0.48297409519E+02  0.00000000000E+00 0.  1.
         14    1    4    4    0    0 -0.33505030355E+02  0.93561422645E+01 -0.40128120981E+01  0.35017525870E+02  0.00000000000E+00 0. -1.
         -5    1    5    5    0  502 -0.78421699535E+02 -0.48123975517E+02 -0.13726182250E+01  0.92140404049E+02  0.47000000000E+01 0.  1.
         13    1    6    6    0    0 -0.15861700519E+02  0.47485514537E+01  0.11305197286E+02  0.20048684993E+02  0.00000000000E+00 0. -1.
        -14    1    6    6    0    0  0.58618002992E+02 -0.25304905509E+02 -0.48734574014E+02  0.80321026026E+02  0.00000000000E+00 0.  1.
</event>
<event>
12    1  0.8331241E-002  0.2335948E+03  0.7818608E-02  0.1124540E+00
         21   -1    0    0  503  502  0.00000000000E+00  0.00000000000E+00  0.26468504765E+03  0.26468504765E+03  0.00000000000E+00 0.  1.
         21   -1    0    0  501  503 -0.00000000000E+00 -0.00000000000E+00 -0.33174620426E+03  0.33174620426E+03  0.00000000000E+00 0.  1.
          6    2    1    2  501    0  0.33962538145E+02  0.15290440073E+03 -0.21861699268E+03  0.31993739186E+03  0.17330128523E+03 0.  0.
         24    2    3    3    0    0  0.53931241610E+02  0.14730405503E+03 -0.23473476680E+03  0.29325433296E+03  0.79313489431E+02 0.  0.
         -6    2    1    2    0  502 -0.33962538145E+02 -0.15290440073E+03  0.15155583608E+03  0.27649386004E+03  0.17013663166E+03 0.  0.
        -24    2    5    5    0    0 -0.37893822324E+02 -0.20722295354E+02  0.10227344921E+03  0.13529043362E+03  0.77319387744E+02 0.  0.
          5    1    3    3  501    0 -0.19968703465E+02  0.56003457060E+01  0.16117774116E+02  0.26683058905E+02  0.47000000000E+01 0. -1.
        -13    1    4    4    0    0 -0.10249910447E+02 -0.18570263982E+01 -0.31123669536E+02  0.32820603538E+02  0.00000000000E+00 0.  1.
         14    1    4    4    0    0  0.64181152057E+02  0.14916108142E+03 -0.20361109726E+03  0.26043372942E+03  0.00000000000E+00 0. -1.
         -5    1    5    5    0  502  0.39312841792E+01 -0.13218210538E+03  0.49282386867E+02  0.14120342642E+03  0.47000000000E+01 0.  1.
         11    1    6    6    0    0 -0.42191185914E+02  0.18023928008E+02  0.74243314087E+02  0.87275585568E+02  0.00000000000E+00 0. -1.
        -12    1    6    6    0    0  0.42973635898E+01 -0.38746223362E+02  0.28030135125E+02  0.48014848055E+02  0.00000000000E+00 0.  1.
</event>
<event>
12    1  0.8331241E-002  0.2536889E+03  0.7818608E-02  0.1111039E+00
         21   -1    0    0  501  502  0.00000000000E+00  0.00000000000E+00  0.15331036248E+04  0.15331036248E+04  0.00000000000E+00 0. -1.
         21   -1    0    0  502  503 -0.00000000000E+00 -0.00000000000E+00 -0.63250145808E+02  0.63250145808E+02  0.00000000000E+00 0. -1.
         -6    2    1    2    0  503  0.94236513841E+02 -0.16089593298E+03  0.27128039587E+03  0.37122704223E+03  0.17160548333E+03 0.  0.
        -24    2    3    3    0    0  0.24980265887E+02 -0.89170519582E+02  0.56486215878E+02  0.13437351668E+03  0.79310492082E+02 0.  0.
          6    2    1    2  501    0 -0.94236513841E+02  0.16089593298E+03  0.11985730831E+04  0.12251267284E+04  0.17201756658E+03 0.  0.
         24    2    5    5    0    0 -0.42954411695E+02  0.25390449593E+02  0.67306925074E+03  0.67999559014E+03  0.82958000850E+02 0.  0.
          5    1    5    5  501    0 -0.51282102146E+02  0.13550548338E+03  0.52550383239E+03  0.54513113824E+03  0.47000000000E+01 0. -1.
        -13    1    6    6    0    0 -0.65892913950E+02  0.66060892562E+01  0.50612821613E+03  0.51044224716E+03  0.00000000000E+00 0.  1.
         14    1    6    6    0    0  0.22938502255E+02  0.18784360337E+02  0.16694103460E+03  0.16955334297E+03  0.00000000000E+00 0. -1.
         -5    1    3    3    0  503  0.69256247954E+02 -0.71725413394E+02  0.21479417999E+03  0.23685352555E+03  0.47000000000E+01 0.  1.
         13    1    4    4    0    0  0.51053651858E+02 -0.35307627839E+02  0.29587672270E+02  0.68764338883E+02  0.00000000000E+00 0. -1.
        -14    1    4    4    0    0 -0.26073385971E+02 -0.53862891743E+02  0.26898543608E+02  0.65609177796E+02  0.00000000000E+00 0.  1.
</event>
<event>
12    1  0.8331241E-002  0.1917715E+03  0.7818608E-02  0.1156899E+00
         21   -1    0    0  501  502  0.00000000000E+00  0.00000000000E+00  0.18023251020E+03  0.18023251020E+03  0.00000000000E+00 0. -1.
         21   -1    0    0  502  503 -0.00000000000E+00 -0.00000000000E+00 -0.20526748149E+03  0.20526748149E+03  0.00000000000E+00 0. -1.
         -6    2    1    2    0  503 -0.42270106489E+02 -0.76814022067E+02  0.30601342344E+01  0.19168140238E+03  0.17042664026E+03 0.  0.
        -24    2    3    3    0    0  0.22388303256E+02 -0.91797535055E+02 -0.10607576833E+02  0.12375414763E+03  0.79212024370E+02 0.  0.
          6    2    1    2  501    0  0.42270106489E+02  0.76814022067E+02 -0.28095105522E+02  0.19381858931E+03  0.17055543004E+03 0.  0.
         24    2    5    5    0    0  0.48003551578E+02  0.13141229534E+02  0.37259752558E+02  0.10227382224E+03  0.81207220603E+02 0.  0.
          5    1    5    5  501    0 -0.57334450890E+01  0.63672792533E+02 -0.65354858080E+02  0.91544767061E+02  0.47000000000E+01 0. -1.
        -11    1    6    6    0    0 -0.17217521823E+02 -0.42907618693E+01  0.29356339616E+02  0.34302308534E+02  0.00000000000E+00 0.  1.
         12    1    6    6    0    0  0.65221073401E+02  0.17431991403E+02  0.79034129427E+01  0.67971513710E+02  0.00000000000E+00 0. -1.
         -5    1    3    3    0  503 -0.64658409746E+02  0.14983512988E+02  0.13667711067E+02  0.67927254752E+02  0.47000000000E+01 0.  1.
         13    1    4    4    0    0 -0.24633607307E+02 -0.16901324930E+02 -0.18222538029E+02  0.34993289150E+02  0.00000000000E+00 0. -1.
        -14    1    4    4    0    0  0.47021910564E+02 -0.74896210125E+02  0.76149611959E+01  0.88760858481E+02  0.00000000000E+00 0.  1.
</event>
<event>
12    1  0.8331241E-002  0.2000108E+03  0.7818608E-02  0.1149929E+00
         21   -1    0    0  503  502  0.00000000000E+00  0.00000000000E+00  0.79737423978E+03  0.79737423978E+03  0.00000000000E+00 0.  1.
         21   -1    0    0  501  503 -0.00000000000E+00 -0.00000000000E+00 -0.58630959730E+02  0.58630959730E+02  0.00000000000E+00 0.  1.
          6    2    1    2  501    0  0.72682579555E+02  0.70957639426E+02  0.20527274126E+03  0.28660287790E+03  0.17229790292E+03 0.  0.
         24    2    3    3    0    0  0.75021254521E+02 -0.89417136787E+01  0.75554333357E+02  0.13416163881E+03  0.81134118379E+02 0.  0.
         -6    2    1    2    0  502 -0.72682579555E+02 -0.70957639426E+02  0.53347053879E+03  0.56940232161E+03  0.17120293261E+03 0.  0.
        -24    2    5    5    0    0 -0.19573811627E+02 -0.41146609849E+02  0.47767122908E+03  0.48666846107E+03  0.81241678392E+02 0.  0.
          5    1    3    3  501    0 -0.23386749659E+01  0.79899353105E+02  0.12971840790E+03  0.15244123909E+03  0.47000000000E+01 0. -1.
        -11    1    4    4    0    0  0.76809675161E+02  0.18637954499E+02  0.70812405687E+02  0.10612019763E+03  0.00000000000E+00 0.  1.
         12    1    4    4    0    0 -0.17884206402E+01 -0.27579668178E+02  0.47419276704E+01  0.28041441176E+02  0.00000000000E+00 0. -1.
         -5    1    5    5    0  502 -0.53108767928E+02 -0.29811029577E+02  0.55799309712E+02  0.82733860539E+02  0.47000000000E+01 0.  1.
         11    1    6    6    0    0 -0.21886286036E+02 -0.49074083109E+01  0.29650598764E+02  0.37178625309E+02  0.00000000000E+00 0. -1.
        -12    1    6    6    0    0  0.23124744092E+01 -0.36239201538E+02  0.44802063031E+03  0.44948983576E+03  0.00000000000E+00 0.  1.
</event>
<event>
12    1  0.8331241E-002  0.1962890E+03  0.7818608E-02  0.1153228E+00
         21   -1    0    0  503  502  0.00000000000E+00  0.00000000000E+00  0.10132508870E+03  0.10132508870E+03  0.00000000000E+00 0.  1.
         21   -1    0    0  501  503 -0.00000000000E+00 -0.00000000000E+00 -0.39137533160E+03  0.39137533160E+03  0.00000000000E+00 0. -1.
          6    2    1    2  501    0 -0.90409994511E+02  0.18710461712E+02 -0.19104371331E+03  0.27285573905E+03  0.17154738544E+03 0.  0.
         24    2    3    3    0    0 -0.85397743492E+02 -0.47790519149E+02 -0.11001027798E+03  0.16780331996E+03  0.80492140071E+02 0.  0.
         -6    2    1    2    0  502  0.90409994511E+02 -0.18710461712E+02 -0.99006529598E+02  0.21984468125E+03  0.17322050250E+03 0.  0.
        -24    2    5    5    0    0 -0.18195888426E+02  0.15545855766E+01 -0.63942180603E+02  0.10383817919E+03  0.79751225103E+02 0.  0.
          5    1    3    3  501    0 -0.50122510190E+01  0.66500980861E+02 -0.81033435323E+02  0.10505241909E+03  0.47000000000E+01 0. -1.
        -13    1    4    4    0    0 -0.68436777742E+02 -0.35723108038E+02 -0.26319250921E+02  0.81562466641E+02  0.00000000000E+00 0.  1.
         14    1    4    4    0    0 -0.16960965750E+02 -0.12067411111E+02 -0.83691027063E+02  0.86240853318E+02  0.00000000000E+00 0. -1.
         -5    1    5    5    0  502  0.10860588294E+03 -0.20265047289E+02 -0.35064348994E+02  0.11600650206E+03  0.47000000000E+01 0.  1.
         13    1    6    6    0    0  0.19404046063E+02 -0.26407074888E+02 -0.14863433783E+02  0.35982944176E+02  0.00000000000E+00 0. -1.
        -14    1    6    6    0    0 -0.37599934489E+02  0.27961660465E+02 -0.49078746820E+02  0.67855235015E+02  0.00000000000E+00 0.  1.
</event>
<event>
12    1  0.8331241E-002  0.1774167E+03  0.7818608E-02  0.1170812E+00
         21   -1    0    0  501  502  0.00000000000E+00  0.00000000000E+00  0.12289703974E+03  0.12289703974E+03  0.00000000000E+00 0. -1.
         21   -1    0    0  502  503 -0.00000000000E+00 -0.00000000000E+00 -0.32492905839E+03  0.32492905839E+03  0.00000000000E+00 0. -1.
         -6    2    1    2    0  503  0.29910349770E+02 -0.14861464643E+02 -0.20570323445E+03  0.27037142247E+03  0.17225386287E+03 0.  0.
        -24    2    3    3    0    0  0.51593342856E+02 -0.57390607221E+02 -0.88714427495E+02  0.14393032508E+03  0.83006831091E+02 0.  0.
          6    2    1    2  501    0 -0.29910349770E+02  0.14861464643E+02  0.36712157934E+01  0.17745467565E+03  0.17424463243E+03 0.  0.
         24    2    5    5    0    0  0.99199392205E+01 -0.37225349413E+02  0.45170191684E+02  0.99713160878E+02  0.80113896437E+02 0.  0.
          5    1    5    5  501    0 -0.39830288990E+02  0.52086814056E+02 -0.41498975891E+02  0.77741514775E+02  0.47000000000E+01 0. -1.
        -13    1    6    6    0    0  0.17182601875E+02 -0.42198299599E+01 -0.19754381001E+02  0.26519508683E+02  0.00000000000E+00 0.  1.
         14    1    6    6    0    0 -0.72626626544E+01 -0.33005519453E+02  0.64924572685E+02  0.73193652194E+02  0.00000000000E+00 0. -1.
         -5    1    3    3    0  503 -0.21682993087E+02  0.42529142578E+02 -0.11698880695E+03  0.12644109739E+03  0.47000000000E+01 0.  1.
         13    1    4    4    0    0  0.15458100318E+02  0.12283798265E+02  0.62678124319E+01  0.20715454084E+02  0.00000000000E+00 0. -1.
        -14    1    4    4    0    0  0.36135242539E+02 -0.69674405486E+02 -0.94982239927E+02  0.12321487100E+03  0.00000000000E+00 0.  1.
</event>
<event>
12    1  0.8331241E-002  0.3600721E+03  0.7818608E-02  0.1058566E+00
         21   -1    0    0  501  502  0.00000000000E+00  0.00000000000E+00  0.41079006621E+03  0.41079006621E+03  0.00000000000E+00 0.  1.
         21   -1    0    0  502  503 -0.00000000000E+00 -0.00000000000E+00 -0.33208508491E+03  0.33208508491E+03  0.00000000000E+00 0. -1.
         -6    2    1    2    0  503 -0.23823972332E+02 -0.31519490008E+03 -0.43606754470E+02  0.36270295312E+03  0.17244267590E+03 0.  0.
        -24    2    3    3    0    0  0.16605018648E+00 -0.14920640841E+03  0.41608734719E+02  0.17452359680E+03  0.80402855372E+02 0.  0.
          6    2    1    2  501    0  0.23823972332E+02  0.31519490008E+03  0.12231173577E+03  0.38017219800E+03  0.17220723776E+03 0.  0.
         24    2    5    5    0    0 -0.18337312390E+02  0.24393750013E+03  0.35001335822E+02  0.25975464565E+03  0.80035126232E+02 0.  0.
          5    1    5    5  501    0  0.42161284722E+02  0.71257399952E+02  0.87310399947E+02  0.12041755236E+03  0.47000000000E+01 0. -1.
        -13    1    6    6    0    0 -0.33837595704E+02  0.21385380854E+03  0.50819217035E+02  0.22239835235E+03  0.00000000000E+00 0.  1.
         14    1    6    6    0    0  0.15500283314E+02  0.30083691589E+02 -0.15817881213E+02  0.37356293292E+02  0.00000000000E+00 0. -1.
         -5    1    3    3    0  503 -0.23990022519E+02 -0.16598849167E+03 -0.85215489189E+02  0.18817935632E+03  0.47000000000E+01 0.  1.
         11    1    4    4    0    0 -0.37793363720E+02 -0.97525469538E+02  0.17654499298E+02  0.10607184780E+03  0.00000000000E+00 0. -1.
        -12    1    4    4    0    0  0.37959413907E+02 -0.51680938871E+02  0.23954235421E+02  0.68451749001E+02  0.00000000000E+00 0.  1.
</event>
<event>
12    1  0.8331241E-002  0.1926753E+03  0.7818608E-02  0.1156898E+00
         21   -1    0    0  501  502  0.00000000000E+00  0.00000000000E+00  0.71546902036E+02  0.71546902036E+02  0.00000000000E+00 0. -1.
         21   -1    0    0  502  503 -0.00000000000E+00 -0.00000000000E+00 -0.51503919876E+03  0.51503919876E+03  0.00000000000E+00 0. -1.
         -6    2    1    2    0  503  0.86866119939E+02 -0.10694156417E+02 -0.25150119985E+03  0.31458541964E+03  0.16748446182E+03 0.  0.
        -24    2    3    3    0    0  0.46709369316E+02 -0.68447375290E+02 -0.18360258593E+03  0.21670635813E+03  0.79905742764E+02 0.  0.
          6    2    1    2  501    0 -0.86866119939E+02  0.10694156417E+02 -0.19199109688E+03  0.27200068116E+03  0.17164993881E+03 0.  0.
         24    2    5    5    0    0 -0.64550452995E+02  0.30219629108E+01 -0.21539490203E+03  0.23843463224E+03  0.79247818810E+02 0.  0.
          5    1    5    5  501    0 -0.22315666943E+02  0.76721935061E+01  0.23403805156E+02  0.33566048920E+02  0.47000000000E+01 0. -1.
        -13    1    6    6    0    0 -0.14169287241E+01 -0.19784601963E+02 -0.97319629912E+01  0.22094100242E+02  0.00000000000E+00 0.  1.
         14    1    6    6    0    0 -0.63133524271E+02  0.22806564874E+02 -0.20566293904E+03  0.21634053200E+03  0.00000000000E+00 0. -1.
         -5    1    3    3    0  503  0.40156750623E+02  0.57753218873E+02 -0.67898613915E+02  0.97879061512E+02  0.47000000000E+01 0.  1.
         13    1    4    4    0    0  0.31467449348E+02  0.11650598733E+02 -0.55637433341E+02  0.64972769743E+02  0.00000000000E+00 0. -1.
        -14    1    4    4    0    0  0.15241919968E+02 -0.80097974023E+02 -0.12796515259E+03  0.15173358839E+03  0.00000000000E+00 0.  1.
</event>
<event>
12    1  0.8331241E-002  0.2364105E+03  0.7818608E-02  0.1122240E+00
         21   -1    0    0  503  502  0.00000000000E+00  0.00000000000E+00  0.16847441298E+03  0.16847441298E+03  0.00000000000E+00 0.  1.
         21   -1    0    0  501  503 -0.00000000000E+00 -0.00000000000E+00 -0.34054344904E+03  0.34054344904E+03  0.00000000000E+00 0.  1.
          6    2    1    2  501    0 -0.11077437639E+03 -0.11897613376E+03 -0.12761285838E+03  0.26865402839E+03  0.17164982515E+03 0.  0.
         24    2    3    3    0    0 -0.82432183375E+00 -0.39756312600E+02 -0.90012147440E+02  0.12793907529E+03  0.81761704978E+02 0.  0.
         -6    2    1    2    0  502  0.11077437639E+03  0.11897613376E+03 -0.44456177679E+02  0.24036383364E+03  0.17138301526E+03 0.  0.
        -24    2    5    5    0    0  0.56643923302E+02  0.29905173620E+02  0.27146805360E+02  0.11382206555E+03  0.90086958588E+02 0.  0.
          5    1    3    3  501    0 -0.10995005455E+03 -0.79219821164E+02 -0.37600710942E+02  0.14071495310E+03  0.47000000000E+01 0. -1.
        -13    1    4    4    0    0 -0.14964358490E+02 -0.51063888731E+02 -0.95237675489E+02  0.10909476426E+03  0.00000000000E+00 0.  1.
         14    1    4    4    0    0  0.14140036656E+02  0.11307576131E+02  0.52255280488E+01  0.18844311024E+02  0.00000000000E+00 0. -1.
         -5    1    5    5    0  502  0.54130453086E+02  0.89070960145E+02 -0.71602983040E+02  0.12654176809E+03  0.47000000000E+01 0.  1.
         13    1    6    6    0    0  0.41015459700E+02  0.28622663877E+02 -0.27425817736E+02  0.57041215803E+02  0.00000000000E+00 0. -1.
        -14    1    6    6    0    0  0.15628463603E+02  0.12825097430E+01  0.54572623097E+02  0.56780849743E+02  0.00000000000E+00 0.  1.
</event>
<event>
12    1  0.8331241E-002  0.2617435E+03  0.7818608E-02  0.1106112E+00
         21   -1    0    0  503  502  0.00000000000E+00  0.00000000000E+00  0.41572863511E+03  0.41572863511E+03  0.00000000000E+00 0.  1.
         21   -1    0    0  501  503 -0.00000000000E+00 -0.00000000000E+00 -0.30104237526E+03  0.30104237526E+03  0.00000000000E+00 0. -1.
          6    2    1    2  501    0 -0.18594334751E+03  0.67829449050E+02 -0.18380915110E+03  0.31977082357E+03  0.17114851134E+03 0.  0.
         24    2    3    3    0    0 -0.15216223652E+03  0.91527850597E+02 -0.88230534560E+02  0.21555882984E+03  0.84559376998E+02 0.  0.
         -6    2    1    2    0  502  0.18594334751E+03 -0.67829449050E+02  0.29849541095E+03  0.39700018680E+03  0.17127134997E+03 0.  0.
        -24    2    5    5    0    0  0.16515312507E+03 -0.91564552033E+00  0.16606286349E+03  0.24709968620E+03  0.78771740905E+02 0.  0.
          5    1    3    3  501    0 -0.33781110995E+02 -0.23698401547E+02 -0.95578616539E+02  0.10421199372E+03  0.47000000000E+01 0. -1.
        -11    1    4    4    0    0 -0.11958584190E+02  0.25049735109E+02  0.12627047714E+02  0.30494906113E+02  0.00000000000E+00 0.  1.
         12    1    4    4    0    0 -0.14020365233E+03  0.66478115488E+02 -0.10085758227E+03  0.18506392373E+03  0.00000000000E+00 0. -1.
         -5    1    5    5    0  502  0.20790222444E+02 -0.66913803529E+02  0.13243254747E+03  0.14990050060E+03  0.47000000000E+01 0.  1.
         11    1    6    6    0    0  0.29480679300E+02  0.31711473602E+02  0.35274296539E+02  0.55848043890E+02  0.00000000000E+00 0. -1.
        -12    1    6    6    0    0  0.13567244577E+03 -0.32627119122E+02  0.13078856695E+03  0.19125164231E+03  0.00000000000E+00 0.  1.
</event>
<event>
12    1  0.8331241E-002  0.1883249E+03  0.7818608E-02  0.1160544E+00
         21   -1    0    0  503  502  0.00000000000E+00  0.00000000000E+00  0.96363064442E+03  0.96363064442E+03  0.00000000000E+00 0. -1.
         21   -1    0    0  501  503 -0.00000000000E+00 -0.00000000000E+00 -0.50789266498E+02  0.50789266498E+02  0.00000000000E+00 0.  1.
          6    2    1    2  501    0 -0.71143374767E+02  0.91139162236E+01  0.18790782031E+03  0.26603684080E+03  0.17413158383E+03 0.  0.
         24    2    3    3    0    0 -0.65903304543E+02 -0.58060612723E+02  0.10142223233E+03  0.15630205778E+03  0.80184685305E+02 0.  0.
         -6    2    1    2    0  502  0.71143374767E+02 -0.91139162236E+01  0.72493355761E+03  0.74838307011E+03  0.17147627663E+03 0.  0.
        -24    2    5    5    0    0  0.77885754189E+02 -0.63043287794E+02  0.56780816038E+03  0.58205713331E+03  0.79647677974E+02 0.  0.
          5    1    3    3  501    0 -0.52400702246E+01  0.67174528947E+02  0.86485587987E+02  0.10973478302E+03  0.47000000000E+01 0. -1.
        -13    1    4    4    0    0 -0.72709264863E+02 -0.45422815713E+02  0.42558720745E+02  0.95713709026E+02  0.00000000000E+00 0.  1.
         14    1    4    4    0    0  0.68059603204E+01 -0.12637797010E+02  0.58863511583E+02  0.60588348756E+02  0.00000000000E+00 0. -1.
         -5    1    5    5    0  502 -0.67423794220E+01  0.53929371571E+02  0.15712539723E+03  0.16632593680E+03  0.47000000000E+01 0.  1.
         13    1    6    6    0    0 -0.43990251462E+01  0.12763669062E+01 -0.14335603480E+00  0.45826941496E+01  0.00000000000E+00 0. -1.
        -14    1    6    6    0    0  0.82284779335E+02 -0.64319654701E+02  0.56795151641E+03  0.57747443916E+03  0.00000000000E+00 0.  1.
</event>
<event>
12    1  0.8331241E-002  0.1810120E+03  0.7818608E-02  0.1167555E+00
         21   -1    0    0  501  502  0.00000000000E+00  0.00000000000E+00  0.62971551320E+02  0.62971551320E+02  0.00000000000E+00 0.  1.
         21   -1    0    0  502  503 -0.00000000000E+00 -0.00000000000E+00 -0.80829557333E+03  0.80829557333E+03  0.00000000000E+00 0.  1.
         -6    2    1    2    0  503  0.52403393296E+02 -0.11828156057E+01 -0.63455908569E+03  0.65905448336E+03  0.17011779484E+03 0.  0.
        -24    2    3    3    0    0 -0.21285430096E+02 -0.21737298398E+02 -0.12483301341E+03  0.14359809508E+03  0.64121384867E+02 0.  0.
          6    2    1    2  501    0 -0.52403393296E+02  0.11828156057E+01 -0.11076493632E+03  0.21221264129E+03  0.17325651308E+03 0.  0.
         24    2    5    5    0    0  0.18759145257E+02  0.39996902561E+02 -0.26288953065E+02  0.95042158717E+02  0.79939008845E+02 0.  0.
          5    1    5    5  501    0 -0.71162538553E+02 -0.38814086956E+02 -0.84475983253E+02  0.11717048257E+03  0.47000000000E+01 0. -1.
        -11    1    6    6    0    0 -0.98486949126E+00  0.15382565024E+02  0.28164577831E+02  0.32106646025E+02  0.00000000000E+00 0.  1.
         12    1    6    6    0    0  0.19744014748E+02  0.24614337538E+02 -0.54453530896E+02  0.62935512692E+02  0.00000000000E+00 0. -1.
         -5    1    3    3    0  503  0.73688823392E+02  0.20554482792E+02 -0.50972607228E+03  0.51545638828E+03  0.47000000000E+01 0.  1.
         13    1    4    4    0    0 -0.30206391654E+02 -0.16904641544E+02 -0.12829127645E+03  0.13287906011E+03  0.00000000000E+00 0. -1.
        -14    1    4    4    0    0  0.89209615587E+01 -0.48326568532E+01  0.34582630411E+01  0.10719034968E+02  0.00000000000E+00 0.  1.
</event>
<event>
12    1  0.8331241E-002  0.1841070E+03  0.7818608E-02  0.1164078E+00
         21   -1    0    0  501  502  0.00000000000E+00  0.00000000000E+00  0.93159581296E+02  0.93159581296E+02  0.00000000000E+00 0.  1.
         21   -1    0    0  502  503 -0.00000000000E+00 -0.00000000000E+00 -0.36420092776E+03  0.36420092776E+03  0.00000000000E+00 0. -1.
         -6    2    1    2    0  503 -0.29680638274E+02 -0.54233653954E+02 -0.11842538457E+03  0.21822245714E+03  0.17255213583E+03 0.  0.
        -24    2    3    3    0    0  0.70213384132E+01 -0.90754235573E+02 -0.10990850362E+03  0.16554024728E+03  0.83893169171E+02 0.  0.
          6    2    1    2  501    0  0.29680638274E+02  0.54233653954E+02 -0.15261596190E+03  0.23913805192E+03  0.17341610807E+03 0.  0.
         24    2    5    5    0    0  0.50647466320E+02  0.22377090678E+02 -0.20928116834E+02  0.10195850884E+03  0.83015970864E+02 0.  0.
          5    1    5    5  501    0 -0.20966828046E+02  0.31856563276E+02 -0.13168784506E+03  0.13717954308E+03  0.47000000000E+01 0. -1.
        -13    1    6    6    0    0 -0.18296091112E+02  0.92464754192E+01  0.12720970391E+02  0.24126071901E+02  0.00000000000E+00 0.  1.
         14    1    6    6    0    0  0.68943557433E+02  0.13130615259E+02 -0.33649087225E+02  0.77832436938E+02  0.00000000000E+00 0. -1.
         -5    1    3    3    0  503 -0.36701976687E+02  0.36520581620E+02 -0.85168809492E+01  0.52682209860E+02  0.47000000000E+01 0.  1.
         11    1    4    4    0    0  0.30474880912E+02 -0.11678502164E+01 -0.35062826753E+02  0.46470249199E+02  0.00000000000E+00 0. -1.
        -12    1    4    4    0    0 -0.23453542498E+02 -0.89586385357E+02 -0.74845676863E+02  0.11906999808E+03  0.00000000000E+00 0.  1.
</event>
<event>
12    1  0.8331241E-002  0.2010002E+03  0.7818608E-02  0.1149003E+00
         21   -1    0    0  501  502  0.00000000000E+00  0.00000000000E+00  0.60466429543E+03  0.60466429543E+03  0.00000000000E+00 0.  1.
         21   -1    0    0  502  503 -0.00000000000E+00 -0.00000000000E+00 -0.99662925507E+02  0.99662925507E+02  0.00000000000E+00 0.  1.
         -6    2    1    2    0  503 -0.32056280337E+02  0.99562455409E+02  0.45497643627E+03  0.49719543072E+03  0.17105394217E+03 0.  0.
        -24    2    3    3    0    0  0.21070351350E+02  0.26374114604E+02  0.11583306974E+03  0.14616938427E+03  0.82514454646E+02 0.  0.
          6    2    1    2  501    0  0.32056280337E+02 -0.99562455409E+02  0.50024933650E+02  0.20713179022E+03  0.17164147778E+03 0.  0.
         24    2    5    5    0    0  0.13606644870E+02 -0.64365432438E+02 -0.39900016637E+02  0.10870513651E+03  0.76790270862E+02 0.  0.
          5    1    5    5  501    0  0.18449635467E+02 -0.35197022970E+02  0.89924950287E+02  0.98426653702E+02  0.47000000000E+01 0. -1.
        -11    1    6    6    0    0  0.29236787308E+02 -0.75053277892E+02 -0.39630313449E+02  0.89768290607E+02  0.00000000000E+00 0.  1.
         12    1    6    6    0    0 -0.15630142438E+02  0.10687845454E+02 -0.26970318823E+00  0.18936845906E+02  0.00000000000E+00 0. -1.
         -5    1    3    3    0  503 -0.53126631686E+02  0.73188340805E+02  0.33914336653E+03  0.35102604645E+03  0.47000000000E+01 0.  1.
         13    1    4    4    0    0  0.31586891518E+02  0.37097669464E+02  0.12087539388E+03  0.13032585945E+03  0.00000000000E+00 0. -1.
        -14    1    4    4    0    0 -0.10516540169E+02 -0.10723554860E+02 -0.50423241421E+01  0.15843524820E+02  0.00000000000E+00 0.  1.
</event>
<event>
12    1  0.8331241E-002  0.1918452E+03  0.7818608E-02  0.1156989E+00
         21   -1    0    0  503  502  0.00000000000E+00  0.00000000000E+00  0.86264334288E+03  0.86264334288E+03  0.00000000000E+00 0. -1.
         21   -1    0    0  501  503 -0.00000000000E+00 -0.00000000000E+00 -0.43580042002E+02  0.43580042002E+02  0.00000000000E+00 0. -1.
          6    2    1    2  501    0  0.16271618371E+02  0.80486231421E+02  0.33685158806E+03  0.38725064152E+03  0.17248555870E+03 0.  0.
         24    2    3    3    0    0  0.29908655552E+02 -0.22535906881E+02  0.13407744845E+03  0.15934940971E+03  0.77544035331E+02 0.  0.
         -6    2    1    2    0  502 -0.16271618371E+02 -0.80486231421E+02  0.48221171281E+03  0.51897274336E+03  0.17338331341E+03 0.  0.
        -24    2    5    5    0    0 -0.33043676285E+02 -0.92504375737E+02  0.48112803093E+03  0.49778307404E+03  0.81577341118E+02 0.  0.
          5    1    3    3  501    0 -0.13637037181E+02  0.10302213830E+03  0.20277413962E+03  0.22790123181E+03  0.47000000000E+01 0. -1.
        -13    1    4    4    0    0  0.27031582571E+02  0.18066153307E+02  0.19866852511E+02  0.38102285763E+02  0.00000000000E+00 0.  1.
         14    1    4    4    0    0  0.28770729809E+01 -0.40602060188E+02  0.11421059594E+03  0.12124712394E+03  0.00000000000E+00 0. -1.
         -5    1    5    5    0  502  0.16772057913E+02  0.12018144316E+02  0.10836818798E+01  0.21189669320E+02  0.47000000000E+01 0.  1.
         13    1    6    6    0    0  0.20072260101E+02 -0.57335272601E+02  0.29079313263E+03  0.29707048843E+03  0.00000000000E+00 0. -1.
        -14    1    6    6    0    0 -0.53115936385E+02 -0.35169103136E+02  0.19033489830E+03  0.20071258562E+03  0.00000000000E+00 0.  1.
</event>
<event>
12    1  0.8331241E-002  0.1761993E+03  0.7818608E-02  0.1171670E+00
         21   -1    0    0  503  502  0.00000000000E+00  0.00000000000E+00  0.16238130987E+03  0.16238130987E+03  0.00000000000E+00 0. -1.
         21   -1    0    0  501  503 -0.00000000000E+00 -0.00000000000E+00 -0.19461840344E+03  0.19461840344E+03  0.00000000000E+00 0. -1.
          6    2    1    2  501    0  0.36042654753E+01  0.33581907006E+02  0.95219018838E+01  0.17645636997E+03  0.17293191921E+03 0.  0.
         24    2    3    3    0    0 -0.19013628490E+02  0.26592519871E+02 -0.58318521288E+02  0.10445058079E+03  0.80250817571E+02 0.  0.
         -6    2    1    2    0  502 -0.36042654753E+01 -0.33581907006E+02 -0.41758995454E+02  0.18054334333E+03  0.17236980568E+03 0.  0.
        -24    2    5    5    0    0 -0.66690867515E+02 -0.40538825754E+02 -0.35273199770E+02  0.11657089909E+03  0.79079122973E+02 0.  0.
          5    1    3    3  501    0  0.22617893965E+02  0.69893871348E+01  0.67840423171E+02  0.72005789184E+02  0.47000000000E+01 0. -1.
        -11    1    4    4    0    0 -0.24377809017E+02  0.47187188962E+02 -0.13447016355E+02  0.54788051831E+02  0.00000000000E+00 0.  1.
         12    1    4    4    0    0  0.53641805274E+01 -0.20594669091E+02 -0.44871504932E+02  0.49662528959E+02  0.00000000000E+00 0. -1.
         -5    1    5    5    0  502  0.63086602040E+02  0.69569187483E+01 -0.64857956844E+01  0.63972444233E+02  0.47000000000E+01 0.  1.
         11    1    6    6    0    0 -0.20807226128E+02 -0.40441610044E+02 -0.50750147051E+02  0.68147207630E+02  0.00000000000E+00 0. -1.
        -12    1    6    6    0    0 -0.45883641388E+02 -0.97215710345E-01  0.15476947281E+02  0.48423691464E+02  0.00000000000E+00 0.  1.
</event>
<event>
12    1  0.8331241E-002  0.1857539E+03  0.7818608E-02  0.1162875E+00
         21   -1    0    0  503  502  0.00000000000E+00  0.00000000000E+00  0.51942409184E+03  0.51942409184E+03  0.00000000000E+00 0. -1.
         21   -1    0    0  501  503 -0.00000000000E+00 -0.00000000000E+00 -0.18599865255E+03  0.18599865255E+03  0.00000000000E+00 0. -1.
          6    2    1    2  501    0 -0.42068625530E+02 -0.45033447376E+02 -0.11667318981E+03  0.21935621157E+03  0.17523336924E+03 0.  0.
         24    2    3    3    0    0 -0.57452041941E+02  0.30402554459E+02 -0.13226744612E+02  0.90319407137E+02  0.61299234023E+02 0.  0.
         -6    2    1    2    0  502  0.42068625530E+02  0.45033447376E+02  0.45009862910E+03  0.48606653283E+03  0.17284130809E+03 0.  0.
        -24    2    5    5    0    0 -0.89728992295E+01 -0.16601947785E+02  0.34057115283E+03  0.35033695888E+03  0.79944587217E+02 0.  0.
          5    1    3    3  501    0  0.15383416410E+02 -0.75436001836E+02 -0.10344644520E+03  0.12903680443E+03  0.47000000000E+01 0. -1.
        -11    1    4    4    0    0 -0.53142518998E+02 -0.38989930527E+01 -0.16003978959E+02  0.55636829662E+02  0.00000000000E+00 0.  1.
         12    1    4    4    0    0 -0.43095229421E+01  0.34301547512E+02  0.27772343469E+01  0.34682577475E+02  0.00000000000E+00 0. -1.
         -5    1    5    5    0  502  0.51041524760E+02  0.61635395161E+02  0.10952747627E+03  0.13572957395E+03  0.47000000000E+01 0.  1.
         13    1    6    6    0    0 -0.52395870441E+00 -0.43349129025E+02  0.11277992508E+03  0.12082521683E+03  0.00000000000E+00 0. -1.
        -14    1    6    6    0    0 -0.84489405251E+01  0.26747181240E+02  0.22779122775E+03  0.22951174205E+03  0.00000000000E+00 0.  1.
</event>
<event>
12    1  0.8331241E-002  0.2082011E+03  0.7818608E-02  0.1144260E+00
         21   -1    0    0  501  502  0.00000000000E+00  0.00000000000E+00  0.18756605431E+03  0.18756605431E+03  0.00000000000E+00 0.  1.
         21   -1    0    0  502  503 -0.00000000000E+00 -0.00000000000E+00 -0.28868037292E+03  0.28868037292E+03  0.00000000000E+00 0.  1.
         -6    2    1    2    0  503 -0.10760179387E+03  0.48978640093E+02 -0.16242673419E+03  0.25920514844E+03  0.16379197712E+03 0.  0.
        -24    2    3    3    0    0 -0.12654353775E+02  0.20890597150E+02 -0.12746324391E+03  0.15409334991E+03  0.83074257266E+02 0.  0.
          6    2    1    2  501    0  0.10760179387E+03 -0.48978640093E+02  0.61312415577E+02  0.21704127880E+03  0.17137867769E+03 0.  0.
         24    2    5    5    0    0  0.83587465160E+02 -0.24989569674E+02  0.10742092692E+03  0.15959349118E+03  0.79495182006E+02 0.  0.
          5    1    5    5  501    0  0.24014328712E+02 -0.23989070419E+02 -0.46108511347E+02  0.57447787613E+02  0.47000000000E+01 0. -1.
        -11    1    6    6    0    0  0.36707616689E+02  0.28461894179E+01  0.97443328553E+02  0.10416694388E+03  0.00000000000E+00 0.  1.
         12    1    6    6    0    0  0.46879848471E+02 -0.27835759092E+02  0.99775983706E+01  0.55426547305E+02  0.00000000000E+00 0. -1.
         -5    1    3    3    0  503 -0.94947440097E+02  0.28088042943E+02 -0.34963490279E+02  0.10511179853E+03  0.47000000000E+01 0.  1.
         13    1    4    4    0    0  0.26798114793E+01 -0.21360044932E+01  0.11707901284E+02  0.12199133462E+02  0.00000000000E+00 0. -1.
        -14    1    4    4    0    0 -0.15334165254E+02  0.23026601644E+02 -0.13917114519E+03  0.14189421645E+03  0.00000000000E+00 0.  1.
</event>
<event>
12    1  0.8331241E-002  0.1793349E+03  0.7818608E-02  0.1168851E+00
         21   -1    0    0  503  502  0.00000000000E+00  0.00000000000E+00  0.14306977913E+03  0.14306977913E+03  0.00000000000E+00 0. -1.
         21   -1    0    0  501  503 -0.00000000000E+00 -0.00000000000E+00 -0.22941993088E+03  0.22941993088E+03  0.00000000000E+00 0. -1.
          6    2    1    2  501    0  0.33324150553E+02 -0.27585307109E+02 -0.75169053989E+02  0.19445152079E+03  0.17403895851E+03 0.  0.
         24    2    3    3    0    0  0.36405820176E+02  0.11205397626E+02 -0.11134830410E+03  0.14111069590E+03  0.77864234358E+02 0.  0.
         -6    2    1    2    0  502 -0.33324150553E+02  0.27585307109E+02 -0.11181097767E+02  0.17803818922E+03  0.17234016275E+03 0.  0.
        -24    2    5    5    0    0  0.44760132252E+02  0.34856014093E+02  0.15423378465E+01  0.98451794561E+02  0.80448529437E+02 0.  0.
          5    1    3    3  501    0 -0.30816696224E+01 -0.38790704736E+02  0.36179250109E+02  0.53340824890E+02  0.47000000000E+01 0. -1.
        -11    1    4    4    0    0 -0.14618805992E+02 -0.58577858529E+01  0.17713835690E+01  0.15848058035E+02  0.00000000000E+00 0.  1.
         12    1    4    4    0    0  0.51024626168E+02  0.17063183479E+02 -0.11311968767E+03  0.12526263786E+03  0.00000000000E+00 0. -1.
         -5    1    5    5    0  502 -0.78084282805E+02 -0.72707069836E+01 -0.12723435613E+02  0.79586394660E+02  0.47000000000E+01 0.  1.
         13    1    6    6    0    0 -0.10777714004E+02  0.40730312190E+02  0.53707571526E+01  0.42473079505E+02  0.00000000000E+00 0. -1.
        -14    1    6    6    0    0  0.55537846256E+02 -0.58742980976E+01 -0.38284193061E+01  0.55978715055E+02  0.00000000000E+00 0.  1.
</event>
<event>
12    1  0.8331241E-002  0.2044286E+03  0.7818608E-02  0.1146463E+00
         21   -1    0    0  503  502  0.00000000000E+00  0.00000000000E+00  0.11242197841E+03  0.11242197841E+03  0.00000000000E+00 0.  1.
         21   -1    0    0  501  503 -0.00000000000E+00 -0.00000000000E+00 -0.37055957524E+03  0.37055957524E+03  0.00000000000E+00 0.  1.
          6    2    1    2  501    0  0.32542640527E+02  0.10328493488E+03 -0.14916172634E+03  0.25306175688E+03  0.17339040043E+03 0.  0.
         24    2    3    3    0    0  0.79721778607E+02  0.42992577583E+02 -0.12197623829E+03  0.17168497776E+03  0.79960022319E+02 0.  0.
         -6    2    1    2    0  502 -0.32542640527E+02 -0.10328493488E+03 -0.10897587049E+03  0.22991979677E+03  0.17105721666E+03 0.  0.
        -24    2    5    5    0    0  0.42464869107E+02 -0.24577245107E+02 -0.56282657880E+02  0.10900788012E+03  0.79420867948E+02 0.  0.
          5    1    3    3  501    0 -0.47179138080E+02  0.60292357302E+02 -0.27185488058E+02  0.81376779120E+02  0.47000000000E+01 0. -1.
        -11    1    4    4    0    0  0.26327566810E+01  0.80881411747E+01 -0.73841953291E+02  0.74330232753E+02  0.00000000000E+00 0.  1.
         12    1    4    4    0    0  0.77089021927E+02  0.34904436408E+02 -0.48134284995E+02  0.97354745003E+02  0.00000000000E+00 0. -1.
         -5    1    5    5    0  502 -0.75007509635E+02 -0.78707689778E+02 -0.52693212611E+02  0.12091191665E+03  0.47000000000E+01 0.  1.
         11    1    6    6    0    0  0.10444460525E+02  0.28133757853E+02 -0.91133196309E+01  0.31363158025E+02  0.00000000000E+00 0. -1.
        -12    1    6    6    0    0  0.32020408583E+02 -0.52711002960E+02 -0.47169338250E+02  0.77644722098E+02  0.00000000000E+00 0.  1.
</event>
<event>
12    1  0.8331241E-002  0.1912258E+03  0.7818608E-02  0.1158435E+00
         21   -1    0    0  503  502  0.00000000000E+00  0.00000000000E+00  0.68827975421E+03  0.68827975421E+03  0.00000000000E+00 0. -1.
         21   -1    0    0  501  503 -0.00000000000E+00 -0.00000000000E+00 -0.71560500382E+02  0.71560500382E+02  0.00000000000E+00 0. -1.
          6    2    1    2  501    0 -0.55423163364E+02 -0.52916510126E+02  0.11162822016E+03  0.22142307190E+03  0.17520112201E+03 0.  0.
         24    2    3    3    0    0 -0.29406038348E+02 -0.31201885265E+02 -0.13818279086E+02  0.91394883034E+02  0.79522368378E+02 0.  0.
         -6    2    1    2    0  502  0.55423163364E+02  0.52916510126E+02  0.50509103367E+03  0.53841718269E+03  0.17001242967E+03 0.  0.
        -24    2    5    5    0    0 -0.20111568896E+02  0.32715736807E+02  0.38107879498E+03  0.39173830772E+03  0.82237820420E+02 0.  0.
          5    1    3    3  501    0 -0.26017125016E+02 -0.21714624860E+02  0.12544649924E+03  0.13002818886E+03  0.47000000000E+01 0. -1.
        -13    1    4    4    0    0 -0.18233312988E+02 -0.50719592529E+02  0.13938730887E+02  0.55670629488E+02  0.00000000000E+00 0.  1.
         14    1    4    4    0    0 -0.11172725360E+02  0.19517707263E+02 -0.27757009973E+02  0.35724253546E+02  0.00000000000E+00 0. -1.
         -5    1    5    5    0  502  0.75534732260E+02  0.20200773318E+02  0.12401223869E+03  0.14667887498E+03  0.47000000000E+01 0.  1.
         13    1    6    6    0    0 -0.21427506861E+01  0.28166465505E+02  0.36792920384E+03  0.36901197839E+03  0.00000000000E+00 0. -1.
        -14    1    6    6    0    0 -0.17968818210E+02  0.45492713018E+01  0.13149591145E+02  0.22726329323E+02  0.00000000000E+00 0.  1.
</event>
<event>
12    1  0.8331241E-002  0.1943129E+03  0.7818608E-02  0.1157090E+00
         21   -1    0    0  503  502  0.00000000000E+00  0.00000000000E+00  0.18220441290E+03  0.18220441290E+03  0.00000000000E+00 0.  1.
         21   -1    0    0  501  503 -0.00000000000E+00 -0.00000000000E+00 -0.21389516953E+03  0.21389516953E+03  0.00000000000E+00 0.  1.
          6    2    1    2  501    0 -0.60641888079E+02 -0.21941401765E+02  0.41378106474E+02  0.19866965516E+03  0.18329926483E+03 0.  0.
         24    2    3    3    0    0 -0.34842753135E+02 -0.26642776125E+02 -0.52036826703E+02  0.10152986916E+03  0.75343400719E+02 0.  0.
         -6    2    1    2    0  502  0.60641888079E+02  0.21941401765E+02 -0.73068863108E+02  0.19742992726E+03  0.17169931195E+03 0.  0.
        -24    2    5    5    0    0 -0.66272133433E+01 -0.20388192101E+02 -0.61467079930E+02  0.11697113100E+03  0.97182535668E+02 0.  0.
          5    1    3    3  501    0 -0.25799134944E+02  0.47013743600E+01  0.93414933177E+02  0.97139786006E+02  0.47000000000E+01 0. -1.
        -13    1    4    4    0    0 -0.39723931994E+02 -0.37554798533E+02 -0.64305009649E+02  0.84400757887E+02  0.00000000000E+00 0.  1.
         14    1    4    4    0    0  0.48811788587E+01  0.10912022408E+02  0.12268182946E+02  0.17129111269E+02  0.00000000000E+00 0. -1.
         -5    1    5    5    0  502  0.67269101423E+02  0.42329593866E+02 -0.11601783177E+02  0.80458796262E+02  0.47000000000E+01 0.  1.
         11    1    6    6    0    0 -0.97839693622E+01 -0.11702076880E+02  0.25392273948E+02  0.29621482678E+02  0.00000000000E+00 0. -1.
        -12    1    6    6    0    0  0.31567560188E+01 -0.86861152217E+01 -0.86859353879E+02  0.87349648324E+02  0.00000000000E+00 0.  1.
</event>
<event>
12    1  0.8331241E-002  0.2731921E+03  0.7818608E-02  0.1099520E+00
         21   -1    0    0  503  502  0.00000000000E+00  0.00000000000E+00  0.49064954930E+03  0.49064954930E+03  0.00000000000E+00 0. -1.
         21   -1    0    0  501  503 -0.00000000000E+00 -0.00000000000E+00 -0.21547089429E+03  0.21547089429E+03  0.00000000000E+00 0.  1.
          6    2    1    2  501    0 -0.28888384965E+02 -0.21058613933E+03 -0.54247979396E+02  0.27815337475E+03  0.17101285259E+03 0.  0.
         24    2    3    3    0    0 -0.32298007688E+02 -0.31140185702E+02 -0.38650552075E+02  0.97937266869E+02  0.78006221547E+02 0.  0.
         -6    2    1    2    0  502  0.28888384965E+02  0.21058613933E+03  0.32942663441E+03  0.42796706884E+03  0.17161830815E+03 0.  0.
        -24    2    5    5    0    0 -0.15818832955E+02  0.21102875857E+03  0.28749787872E+03  0.36649315730E+03  0.82938722357E+02 0.  0.
          5    1    3    3  501    0  0.34096227229E+01 -0.17944595362E+03 -0.15597427321E+02  0.18021610788E+03  0.47000000000E+01 0. -1.
        -11    1    4    4    0    0 -0.30515755914E+02 -0.39394021187E+02  0.80523624659E+01  0.50477131511E+02  0.00000000000E+00 0.  1.
         12    1    4    4    0    0 -0.17822517740E+01  0.82538354855E+01 -0.46702914541E+02  0.47460135359E+02  0.00000000000E+00 0. -1.
         -5    1    5    5    0  502  0.44707217920E+02 -0.44261924075E+00  0.41928755694E+02  0.61473911540E+02  0.47000000000E+01 0.  1.
         13    1    6    6    0    0 -0.50120881827E+02  0.12377448268E+03  0.16832746478E+03  0.21486358639E+03  0.00000000000E+00 0. -1.
        -14    1    6    6    0    0  0.34302048873E+02  0.87254275887E+02  0.11917041394E+03  0.15162957091E+03  0.00000000000E+00 0.  1.
</event>
<event>
12    1  0.8331241E-002  0.2170307E+03  0.7818608E-02  0.1136216E+00
         21   -1    0    0  501  502  0.00000000000E+00  0.00000000000E+00  0.11870251292E+03  0.11870251292E+03  0.00000000000E+00 0.  1.
         21   -1    0    0  502  503 -0.00000000000E+00 -0.00000000000E+00 -0.41837971861E+03  0.41837971861E+03  0.00000000000E+00 0.  1.
         -6    2    1    2    0  503  0.32123879013E+02 -0.12883709151E+03 -0.21232488382E+03  0.30361850701E+03  0.17167236749E+03 0.  0.
        -24    2    3    3    0    0  0.54837729480E+02 -0.14320122956E+03 -0.13617692824E+03  0.22273063027E+03  0.86896542809E+02 0.  0.
          6    2    1    2  501    0 -0.32123879013E+02  0.12883709151E+03 -0.87352321869E+02  0.23346372452E+03  0.17100860440E+03 0.  0.
         24    2    5    5    0    0 -0.51048763293E+02  0.10006360352E+03  0.12890463150E+01  0.13825108350E+03  0.80579150315E+02 0.  0.
          5    1    5    5  501    0  0.18924884281E+02  0.28773487989E+02 -0.88641368184E+02  0.95212641018E+02  0.47000000000E+01 0. -1.
        -13    1    6    6    0    0  0.30282347741E+01  0.63352616918E+02  0.25764221537E+02  0.68458157933E+02  0.00000000000E+00 0.  1.
         14    1    6    6    0    0 -0.54076998067E+02  0.36710986606E+02 -0.24475175222E+02  0.69792925571E+02  0.00000000000E+00 0. -1.
         -5    1    3    3    0  503 -0.22713850468E+02  0.14364138051E+02 -0.76147955581E+02  0.80887876744E+02  0.47000000000E+01 0.  1.
         13    1    4    4    0    0  0.57090528240E+02 -0.38528185978E+02 -0.73402677701E+02  0.10065635908E+03  0.00000000000E+00 0. -1.
        -14    1    4    4    0    0 -0.22527987596E+01 -0.10467304359E+03 -0.62774250540E+02  0.12207427119E+03  0.00000000000E+00 0.  1.
</event>
<event>
12    1  0.8331241E-002  0.1934857E+03  0.7818608E-02  0.1155479E+00
         21   -1    0    0  503  502  0.00000000000E+00  0.00000000000E+00  0.57147771566E+03  0.57147771566E+03  0.00000000000E+00 0. -1.
         21   -1    0    0  501  503 -0.00000000000E+00 -0.00000000000E+00 -0.84961618094E+02  0.84961618094E+02  0.00000000000E+00 0. -1.
          6    2    1    2  501    0  0.68214146728E+02  0.61109207143E+02  0.85710339833E+02  0.21161991497E+03  0.17043832036E+03 0.  0.
         24    2    3    3    0    0  0.32845595217E+01 -0.17545400008E+02  0.76326665016E+02  0.10908922750E+03  0.75868770725E+02 0.  0.
         -6    2    1    2    0  502 -0.68214146728E+02 -0.61109207143E+02  0.40080575773E+03  0.44481941878E+03  0.16979857149E+03 0.  0.
        -24    2    5    5    0    0 -0.84430610477E+02 -0.67719814429E+02  0.40447513743E+03  0.42632000872E+03  0.80212915303E+02 0.  0.
          5    1    3    3  501    0  0.64929587206E+02  0.78654607151E+02  0.93836748171E+01  0.10253068747E+03  0.47000000000E+01 0. -1.
        -11    1    4    4    0    0  0.34812713850E+02 -0.19368121271E+02  0.20149177198E+02  0.44643459868E+02  0.00000000000E+00 0.  1.
         12    1    4    4    0    0 -0.31528154329E+02  0.18227212633E+01  0.56177487817E+02  0.64445767632E+02  0.00000000000E+00 0. -1.
         -5    1    5    5    0  502  0.16216463750E+02  0.66106072861E+01 -0.36693797001E+01  0.18499410061E+02  0.47000000000E+01 0.  1.
         13    1    6    6    0    0 -0.21036113948E+01 -0.29366883009E+02  0.20548180014E+03  0.20758036802E+03  0.00000000000E+00 0. -1.
        -14    1    6    6    0    0 -0.82326999082E+02 -0.38352931420E+02  0.19899333730E+03  0.21873964070E+03  0.00000000000E+00 0.  1.
</event>
<event>
12    1  0.8331241E-002  0.2956012E+03  0.7818608E-02  0.1087552E+00
         21   -1    0    0  503  502  0.00000000000E+00  0.00000000000E+00  0.36206077324E+03  0.36206077324E+03  0.00000000000E+00 0. -1.
         21   -1    0    0  501  503 -0.00000000000E+00 -0.00000000000E+00 -0.25849872922E+03  0.25849872922E+03  0.00000000000E+00 0. -1.
          6    2    1    2  501    0 -0.23647875234E+03  0.42246975903E+02 -0.29452441254E+02  0.29706480197E+03  0.17225865143E+03 0.  0.
         24    2    3    3    0    0 -0.43188039141E+02  0.28931473630E+02  0.21018538377E+02  0.96794953529E+02  0.78900235627E+02 0.  0.
         -6    2    1    2    0  502  0.23647875234E+03 -0.42246975903E+02  0.13301448527E+03  0.32349470049E+03  0.17102327524E+03 0.  0.
        -24    2    5    5    0    0  0.19192432993E+03 -0.50395129897E+02  0.16312214116E+03  0.26890486707E+03  0.79538525652E+02 0.  0.
          5    1    3    3  501    0 -0.19329071320E+03  0.13315502273E+02 -0.50470979630E+02  0.20026984844E+03  0.47000000000E+01 0. -1.
        -13    1    4    4    0    0 -0.38826048077E+02  0.41324784896E+02  0.43015762408E+02  0.71172717185E+02  0.00000000000E+00 0.  1.
         14    1    4    4    0    0 -0.43619910637E+01 -0.12393311267E+02 -0.21997224031E+02  0.25622236344E+02  0.00000000000E+00 0. -1.
         -5    1    5    5    0  502  0.44554422415E+02  0.81481539946E+01 -0.30107655886E+02  0.54589833424E+02  0.47000000000E+01 0.  1.
         13    1    6    6    0    0  0.67251827172E+02 -0.16619138810E+00  0.15029742142E+02  0.68911022532E+02  0.00000000000E+00 0. -1.
        -14    1    6    6    0    0  0.12467250275E+03 -0.50228938509E+02  0.14809239902E+03  0.19999384454E+03  0.00000000000E+00 0.  1.
</event>
<event>
12    1  0.8331241E-002  0.1796763E+03  0.7818608E-02  0.1169672E+00
         21   -1    0    0  501  502  0.00000000000E+00  0.00000000000E+00  0.92357833400E+02  0.92357833400E+02  0.00000000000E+00 0. -1.
         21   -1    0    0  502  503 -0.00000000000E+00 -0.00000000000E+00 -0.51725096755E+03  0.51725096755E+03  0.00000000000E+00 0. -1.
         -6    2    1    2    0  503  0.22127237142E+02  0.96054605298E+01 -0.39462482004E+03  0.43360387881E+03  0.17804969990E+03 0.  0.
        -24    2    3    3    0    0  0.89456638610E+01  0.98043141275E+01 -0.66150139960E+02  0.10483116269E+03  0.80234544778E+02 0.  0.
          6    2    1    2  501    0 -0.22127237142E+02 -0.96054605298E+01 -0.30268314115E+02  0.17600492214E+03  0.17169648302E+03 0.  0.
         24    2    5    5    0    0  0.38464025962E+02 -0.82691566950E+01 -0.62356602557E+02  0.10726748600E+03  0.77910894130E+02 0.  0.
          5    1    5    5  501    0 -0.60591263104E+02 -0.13363038348E+01  0.32088288442E+02  0.68737436143E+02  0.47000000000E+01 0. -1.
        -11    1    6    6    0    0  0.23987073855E+00 -0.38193723854E+02 -0.33429911993E+02  0.50758024939E+02  0.00000000000E+00 0.  1.
         12    1    6    6    0    0  0.38224155223E+02  0.29924567159E+02 -0.28926690564E+02  0.56509461059E+02  0.00000000000E+00 0. -1.
         -5    1    3    3    0  503  0.13181573281E+02 -0.19885359766E+00 -0.32847468008E+03  0.32877271613E+03  0.47000000000E+01 0.  1.
         13    1    4    4    0    0  0.41479757136E+02  0.20763761818E+02 -0.44268258450E+02  0.64120065214E+02  0.00000000000E+00 0. -1.
        -14    1    4    4    0    0 -0.32534093275E+02 -0.10959447690E+02 -0.21881881510E+02  0.40711097471E+02  0.00000000000E+00 0.  1.
</event>
<event>
12    1  0.8331241E-002  0.2477487E+03  0.7818608E-02  0.1114928E+00
         21   -1    0    0  501  502  0.00000000000E+00  0.00000000000E+00  0.18940692730E+04  0.18940692730E+04  0.00000000000E+00 0.  1.
         21   -1    0    0  502  503 -0.00000000000E+00 -0.00000000000E+00 -0.33355605665E+02  0.33355605665E+02  0.00000000000E+00 0.  1.
         -6    2    1    2    0  503  0.69182522868E+01 -0.17881932769E+03  0.11036802452E+04  0.11308829553E+04  0.16959351638E+03 0.  0.
        -24    2    3    3    0    0  0.56549134953E+02 -0.13685597721E+03  0.60494359465E+03  0.62790732578E+03  0.79896770282E+02 0.  0.
          6    2    1    2  501    0 -0.69182522868E+01  0.17881932769E+03  0.75703342220E+03  0.79654192342E+03  0.17133364896E+03 0.  0.
         24    2    5    5    0    0  0.35509437362E+02  0.14424089314E+03  0.68773202846E+03  0.70810804892E+03  0.79845541995E+02 0.  0.
          5    1    5    5  501    0 -0.42427689649E+02  0.34578434551E+02  0.69301393738E+02  0.88433874499E+02  0.47000000000E+01 0. -1.
        -11    1    6    6    0    0  0.37778270173E+02  0.42096905313E+02  0.37149268868E+03  0.37577408755E+03  0.00000000000E+00 0.  1.
         12    1    6    6    0    0 -0.22688328111E+01  0.10214398782E+03  0.31623933978E+03  0.33233396137E+03  0.00000000000E+00 0. -1.
         -5    1    3    3    0  503 -0.49630882666E+02 -0.41963350477E+02  0.49873665052E+03  0.50297562950E+03  0.47000000000E+01 0.  1.
         13    1    4    4    0    0  0.35853385594E+02 -0.94846583374E+01  0.97558767206E+02  0.10437019240E+03  0.00000000000E+00 0. -1.
        -14    1    4    4    0    0  0.20695749359E+02 -0.12737131887E+03  0.50738482744E+03  0.52353713338E+03  0.00000000000E+00 0.  1.
</event>
<event>
12    1  0.8331241E-002  0.2159283E+03  0.7818608E-02  0.1138079E+00
         21   -1    0    0  503  502  0.00000000000E+00  0.00000000000E+00  0.57313310427E+03  0.57313310427E+03  0.00000000000E+00 0. -1.
         21   -1    0    0  501  503 -0.00000000000E+00 -0.00000000000E+00 -0.18488823782E+03  0.18488823782E+03  0.00000000000E+00 0.  1.
          6    2    1    2  501    0 -0.12245287321E+03  0.43685263798E+02 -0.91317086570E+02  0.23444369496E+03  0.17240048543E+03 0.  0.
         24    2    3    3    0    0 -0.49941697499E+02  0.72766930991E+02 -0.99922315983E+02  0.15570517870E+03  0.80439008245E+02 0.  0.
         -6    2    1    2    0  502  0.12245287321E+03 -0.43685263798E+02  0.47956195302E+03  0.52357764713E+03  0.16507809472E+03 0.  0.
        -24    2    5    5    0    0  0.20286021514E+02 -0.47633219146E+02  0.32027868925E+03  0.33424487116E+03  0.80378783737E+02 0.  0.
          5    1    3    3  501    0 -0.72511175713E+02 -0.29081667192E+02  0.86052294126E+01  0.78738516263E+02  0.47000000000E+01 0. -1.
        -11    1    4    4    0    0 -0.69250631128E+02  0.69478852797E+02 -0.92282151584E+02  0.13468094297E+03  0.00000000000E+00 0.  1.
         12    1    4    4    0    0  0.19308933629E+02  0.32880781935E+01 -0.76401643994E+01  0.21024235732E+02  0.00000000000E+00 0. -1.
         -5    1    5    5    0  502  0.10216685170E+03  0.39479553479E+01  0.15928326377E+03  0.18933277597E+03  0.47000000000E+01 0.  1.
         11    1    6    6    0    0  0.31743004123E+02 -0.37319014350E+02  0.82383714551E+02  0.95850944523E+02  0.00000000000E+00 0. -1.
        -12    1    6    6    0    0 -0.11456982608E+02 -0.10314204797E+02  0.23789497470E+03  0.23839392664E+03  0.00000000000E+00 0.  1.
</event>
<event>
12    1  0.8331241E-002  0.2757179E+03  0.7818608E-02  0.1098153E+00
         21   -1    0    0  501  502  0.00000000000E+00  0.00000000000E+00  0.29266959128E+03  0.29266959128E+03  0.00000000000E+00 0.  1.
         21   -1    0    0  502  503 -0.00000000000E+00 -0.00000000000E+00 -0.53359478302E+03  0.53359478302E+03  0.00000000000E+00 0. -1.
         -6    2    1    2    0  503  0.54766435249E+00  0.21494662926E+03 -0.41687539976E+03  0.49980540515E+03  0.17267886591E+03 0.  0.
        -24    2    3    3    0    0 -0.51052196924E+02  0.10996062071E+03 -0.14773533277E+03  0.20630400254E+03  0.77704234121E+02 0.  0.
          6    2    1    2  501    0 -0.54766435249E+00 -0.21494662926E+03  0.17595020802E+03  0.32645896915E+03  0.17150693709E+03 0.  0.
         24    2    5    5    0    0  0.86868509764E+01 -0.14821559733E+03  0.37598949712E+02  0.17250615959E+03  0.79381165312E+02 0.  0.
          5    1    5    5  501    0 -0.92345153289E+01 -0.66731031926E+02  0.13835125831E+03  0.15395280956E+03  0.47000000000E+01 0. -1.
        -11    1    6    6    0    0 -0.34851073511E+02 -0.56238475511E+02  0.87715705759E+01  0.66740571642E+02  0.00000000000E+00 0.  1.
         12    1    6    6    0    0  0.43537924488E+02 -0.91977121820E+02  0.28827379136E+02  0.10576558795E+03  0.00000000000E+00 0. -1.
         -5    1    3    3    0  503  0.51599861276E+02  0.10498600855E+03 -0.26914006699E+03  0.29350140261E+03  0.47000000000E+01 0.  1.
         13    1    4    4    0    0 -0.35854748155E+02  0.29536326598E+02 -0.10308730694E+03  0.11307055499E+03  0.00000000000E+00 0. -1.
        -14    1    4    4    0    0 -0.15197448769E+02  0.80424294107E+02 -0.44648025828E+02  0.93233447550E+02  0.00000000000E+00 0.  1.
</event>
<event>
12    1  0.8331241E-002  0.2401338E+03  0.7818608E-02  0.1119960E+00
         21   -1    0    0  503  502  0.00000000000E+00  0.00000000000E+00  0.61362406949E+02  0.61362406949E+02  0.00000000000E+00 0.  1.
         21   -1    0    0  501  503 -0.00000000000E+00 -0.00000000000E+00 -0.20857134874E+04  0.20857134874E+04  0.00000000000E+00 0. -1.
          6    2    1    2  501    0  0.16578219988E+03 -0.24802979993E+00 -0.18085535867E+04  0.18242248365E+04  0.17159947181E+03 0.  0.
         24    2    3    3    0    0  0.88630752672E+02 -0.47979385958E+01 -0.15395774161E+04  0.15443260730E+04  0.82255509640E+02 0.  0.
         -6    2    1    2    0  502 -0.16578219988E+03  0.24802979993E+00 -0.21579749376E+03  0.32285105789E+03  0.17372520816E+03 0.  0.
        -24    2    5    5    0    0 -0.15779481796E+03 -0.28865648888E+02 -0.11472427842E+03  0.21726086225E+03  0.91149283830E+02 0.  0.
          5    1    3    3  501    0  0.77151447206E+02  0.45499087959E+01 -0.26897617059E+03  0.27989876353E+03  0.47000000000E+01 0. -1.
        -13    1    4    4    0    0 -0.15193182036E+02 -0.38526401808E+01 -0.13267662527E+03  0.13359926089E+03  0.00000000000E+00 0.  1.
         14    1    4    4    0    0  0.10382393471E+03 -0.94529841497E+00 -0.14069007909E+04  0.14107268121E+04  0.00000000000E+00 0. -1.
         -5    1    5    5    0  502 -0.79873819159E+01  0.29113678688E+02 -0.10107321534E+03  0.10559019564E+03  0.47000000000E+01 0.  1.
         11    1    6    6    0    0 -0.21115277772E+02 -0.41463620939E+02 -0.20963490903E+02  0.51034838763E+02  0.00000000000E+00 0. -1.
        -12    1    6    6    0    0 -0.13667954019E+03  0.12597972051E+02 -0.93760787519E+02  0.16622602348E+03  0.00000000000E+00 0.  1.
</event>
<event>
12    1  0.8331241E-002  0.1792887E+03  0.7818608E-02  0.1168739E+00
         21   -1    0    0  503  502  0.00000000000E+00  0.00000000000E+00  0.69229016203E+02  0.69229016203E+02  0.00000000000E+00 0. -1.
         21   -1    0    0  501  503 -0.00000000000E+00 -0.00000000000E+00 -0.54659975056E+03  0.54659975056E+03  0.00000000000E+00 0. -1.
          6    2    1    2  501    0  0.28853447313E+02 -0.39404222234E+02 -0.11790987882E+03  0.21458606616E+03  0.17250862621E+03 0.  0.
         24    2    3    3    0    0 -0.36310976707E+02 -0.40264690036E+02 -0.11173073562E+03  0.14895517120E+03  0.82244473686E+02 0.  0.
         -6    2    1    2    0  502 -0.28853447313E+02  0.39404222234E+02 -0.35946085554E+03  0.40124270060E+03  0.17145956948E+03 0.  0.
        -24    2    5    5    0    0  0.13727312710E+01  0.56627944942E+02 -0.35292297215E+03  0.36553398437E+03  0.76497456908E+02 0.  0.
          5    1    3    3  501    0  0.65164424020E+02  0.86046780257E+00 -0.61791431914E+01  0.65630894960E+02  0.47000000000E+01 0. -1.
        -11    1    4    4    0    0 -0.17309916772E+02 -0.10932666573E+02 -0.11215059640E+03  0.11400400295E+03  0.00000000000E+00 0.  1.
         12    1    4    4    0    0 -0.19001059935E+02 -0.29332023464E+02  0.41986077069E+00  0.34951168252E+02  0.00000000000E+00 0. -1.
         -5    1    5    5    0  502 -0.30226178584E+02 -0.17223722708E+02 -0.65378833862E+01  0.35708716231E+02  0.47000000000E+01 0.  1.
         13    1    6    6    0    0 -0.22426067805E+02  0.45082783593E+02 -0.10770919220E+03  0.11889767019E+03  0.00000000000E+00 0. -1.
        -14    1    6    6    0    0  0.23798799076E+02  0.11545161349E+02 -0.24521377996E+03  0.24663631417E+03  0.00000000000E+00 0.  1.
</event>
<event>
12    1  0.8331241E-002  0.3100409E+03  0.7818608E-02  0.1080558E+00
         21   -1    0    0  503  502  0.00000000000E+00  0.00000000000E+00  0.13338675625E+04  0.13338675625E+04  0.00000000000E+00 0. -1.
         21   -1    0    0  501  503 -0.00000000000E+00 -0.00000000000E+00 -0.82137064172E+02  0.82137064172E+02  0.00000000000E+00 0. -1.
          6    2    1    2  501    0 -0.18440875426E+03 -0.17660251106E+03  0.37080182853E+03  0.48210917989E+03  0.17245355819E+03 0.  0.
         24    2    3    3    0    0 -0.40445506626E+02 -0.10412863647E+03  0.22985378975E+03  0.26794494664E+03  0.80517810629E+02 0.  0.
         -6    2    1    2    0  502  0.18440875426E+03  0.17660251106E+03  0.88092866985E+03  0.93389544683E+03  0.17587026095E+03 0.  0.
        -24    2    5    5    0    0  0.19736201028E+03  0.12962438185E+03  0.81147996508E+03  0.84892519286E+03  0.80124939161E+02 0.  0.
          5    1    3    3  501    0 -0.14396324764E+03 -0.72473874590E+02  0.14094803878E+03  0.21416423325E+03  0.47000000000E+01 0. -1.
        -11    1    4    4    0    0  0.72680312057E+01 -0.44334544451E+02  0.30188421215E+02  0.54126859180E+02  0.00000000000E+00 0.  1.
         12    1    4    4    0    0 -0.47713537832E+02 -0.59794092018E+02  0.19966536854E+03  0.21381808746E+03  0.00000000000E+00 0. -1.
         -5    1    5    5    0  502 -0.12953256019E+02  0.46978129211E+02  0.69448704770E+02  0.84970253971E+02  0.47000000000E+01 0.  1.
         11    1    6    6    0    0  0.89313805629E+02  0.45118115131E+02  0.21905213992E+03  0.24082450081E+03  0.00000000000E+00 0. -1.
        -12    1    6    6    0    0  0.10804820465E+03  0.84506266717E+02  0.59242782516E+03  0.60810069205E+03  0.00000000000E+00 0.  1.
</event>
<event>
12    1  0.8331241E-002  0.2547036E+03  0.7818608E-02  0.1110644E+00
         21   -1    0    0  501  502  0.00000000000E+00  0.00000000000E+00  0.69195749777E+02  0.69195749777E+02  0.00000000000E+00 0.  1.
         21   -1    0    0  502  503 -0.00000000000E+00 -0.00000000000E+00 -0.19155307827E+04  0.19155307827E+04  0.00000000000E+00 0. -1.
         -6    2    1    2    0  503  0.80715919572E+02  0.16901190547E+03 -0.16361889403E+04  0.16558949798E+04  0.17260895651E+03 0.  0.
        -24    2    3    3    0    0  0.39920193823E+02  0.33036863816E+02 -0.10020399088E+04  0.10060330042E+04  0.73029928257E+02 0.  0.
          6    2    1    2  501    0 -0.80715919572E+02 -0.16901190547E+03 -0.21014609263E+03  0.32883155270E+03  0.16996683776E+03 0.  0.
         24    2    5    5    0    0 -0.10735470493E+03 -0.13980475909E+03 -0.11338516627E+03  0.22420149413E+03  0.79622300312E+02 0.  0.
          5    1    5    5  501    0  0.26638785359E+02 -0.29207146379E+02 -0.96760926360E+02  0.10463005856E+03  0.47000000000E+01 0. -1.
        -11    1    6    6    0    0 -0.94865921597E+02 -0.12824374359E+03 -0.12578491671E+03  0.20314488948E+03  0.00000000000E+00 0.  1.
         12    1    6    6    0    0 -0.12488783333E+02 -0.11561015499E+02  0.12399750440E+02  0.21056604652E+02  0.00000000000E+00 0. -1.
         -5    1    3    3    0  503  0.40795725748E+02  0.13597504165E+03 -0.63414903146E+03  0.64986197557E+03  0.47000000000E+01 0.  1.
         11    1    4    4    0    0  0.42774274973E+02  0.35220434653E+02 -0.10006454755E+04  0.10021783700E+04  0.00000000000E+00 0. -1.
        -12    1    4    4    0    0 -0.28540811500E+01 -0.21835708367E+01 -0.13944333485E+01  0.38546342463E+01  0.00000000000E+00 0.  1.
</event>
<event>
12    1  0.8331241E-002  0.1941468E+03  0.7818608E-02  0.1154862E+00
         21   -1    0    0  501  502  0.00000000000E+00  0.00000000000E+00  0.55293749134E+02  0.55293749134E+02  0.00000000000E+00 0. -1.
         21   -1    0    0  502  503 -0.00000000000E+00 -0.00000000000E+00 -0.86003116958E+03  0.86003116958E+03  0.00000000000E+00 0. -1.
         -6    2    1    2    0  503 -0.59834840775E+02 -0.64767114060E+02 -0.19279889929E+03  0.27332668075E+03  0.17251397510E+03 0.  0.
        -24    2    3    3    0    0 -0.10857783850E+03 -0.54282036600E+02 -0.13269110024E+03  0.19509079267E+03  0.75616154296E+02 0.  0.
          6    2    1    2  501    0  0.59834840775E+02  0.64767114060E+02 -0.61193852116E+03  0.64199823797E+03  0.17296819547E+03 0.  0.
         24    2    5    5    0    0  0.69103105371E+02  0.80501329938E+02 -0.60820520735E+03  0.62277601359E+03  0.81735460906E+02 0.  0.
          5    1    5    5  501    0 -0.92682645964E+01 -0.15734215878E+02 -0.37333138102E+01  0.19222224376E+02  0.47000000000E+01 0. -1.
        -13    1    6    6    0    0  0.58884443401E+02  0.20231175548E+02 -0.18542839487E+03  0.19560257606E+03  0.00000000000E+00 0.  1.
         14    1    6    6    0    0  0.10218661970E+02  0.60270154391E+02 -0.42277681248E+03  0.42717343753E+03  0.00000000000E+00 0. -1.
         -5    1    3    3    0  503  0.48742997725E+02 -0.10485077460E+02 -0.60107799050E+02  0.78235888077E+02  0.47000000000E+01 0.  1.
         11    1    4    4    0    0 -0.11998520160E+02 -0.21700936729E+02  0.34348460169E+01  0.25033843255E+02  0.00000000000E+00 0. -1.
        -12    1    4    4    0    0 -0.96579318340E+02 -0.32581099872E+02 -0.13612594626E+03  0.17005694942E+03  0.00000000000E+00 0.  1.
</event>
<event>
12    1  0.8331241E-002  0.2001818E+03  0.7818608E-02  0.1150084E+00
         21   -1    0    0  503  502  0.00000000000E+00  0.00000000000E+00  0.17287997741E+03  0.17287997741E+03  0.00000000000E+00 0. -1.
         21   -1    0    0  501  503 -0.00000000000E+00 -0.00000000000E+00 -0.23151846293E+03  0.23151846293E+03  0.00000000000E+00 0.  1.
          6    2    1    2  501    0 -0.50523755117E+01 -0.10350717255E+03 -0.49901708101E+02  0.20402602986E+03  0.16851462584E+03 0.  0.
         24    2    3    3    0    0  0.18063334937E+02 -0.52657616475E+02 -0.99927521786E+02  0.12889490810E+03  0.59407735878E+02 0.  0.
         -6    2    1    2    0  502  0.50523755117E+01  0.10350717255E+03 -0.87367774230E+01  0.20037241048E+03  0.17127028445E+03 0.  0.
        -24    2    5    5    0    0  0.28255217170E+02  0.42408347122E+02 -0.61877180952E+02  0.11600754328E+03  0.83857852187E+02 0.  0.
          5    1    3    3  501    0 -0.23115710449E+02 -0.50849556074E+02  0.50025813684E+02  0.75131121762E+02  0.47000000000E+01 0. -1.
        -11    1    4    4    0    0 -0.19711932820E+02 -0.21797734270E+02 -0.21035961883E+02  0.36141571731E+02  0.00000000000E+00 0.  1.
         12    1    4    4    0    0  0.37775267757E+02 -0.30859882205E+02 -0.78891559903E+02  0.92753336370E+02  0.00000000000E+00 0. -1.
         -5    1    5    5    0  502 -0.23202841658E+02  0.61098825427E+02  0.53140403529E+02  0.84364867195E+02  0.47000000000E+01 0.  1.
         13    1    6    6    0    0  0.39856071342E+02  0.21454487749E+02  0.44563237141E+01  0.45482527287E+02  0.00000000000E+00 0. -1.
        -14    1    6    6    0    0 -0.11600854172E+02  0.20953859373E+02 -0.66333504666E+02  0.70525015997E+02  0.00000000000E+00 0.  1.
</event>
<event>
12    1  0.8331241E-002  0.3217920E+03  0.7818608E-02  0.1075303E+00
         21   -1    0    0  501  502  0.00000000000E+00  0.00000000000E+00  0.58881190463E+03  0.58881190463E+03  0.00000000000E+00 0. -1.
         21   -1    0    0  502  503 -0.00000000000E+00 -0.00000000000E+00 -0.17786678571E+03  0.17786678571E+03  0.00000000000E+00 0. -1.
         -6    2    1    2    0  503  0.13650558992E+03  0.23381998823E+03  0.26345894707E+03  0.41269807254E+03  0.16614306882E+03 0.  0.
        -24    2    3    3    0    0  0.82989846755E+02  0.57583655765E+02  0.14411734276E+03  0.19318112977E+03  0.79661460810E+02 0.  0.
          6    2    1    2  501    0 -0.13650558992E+03 -0.23381998823E+03  0.14748617185E+03  0.35398061780E+03  0.17390958547E+03 0.  0.
         24    2    5    5    0    0 -0.12879015200E+03 -0.88557967988E+02  0.95963527977E+02  0.19958743357E+03  0.78719298713E+02 0.  0.
          5    1    5    5  501    0 -0.77154379162E+01 -0.14526202024E+03  0.51522643873E+02  0.15439318423E+03  0.47000000000E+01 0. -1.
        -13    1    6    6    0    0 -0.27553716426E+02  0.65189313505E+01 -0.38259943688E+01  0.28571699070E+02  0.00000000000E+00 0.  1.
         14    1    6    6    0    0 -0.10123643557E+03 -0.95076899339E+02  0.99789522346E+02  0.17101573450E+03  0.00000000000E+00 0. -1.
         -5    1    3    3    0  503  0.53515743160E+02  0.17623633246E+03  0.11934160431E+03  0.21951694277E+03  0.47000000000E+01 0.  1.
         11    1    4    4    0    0  0.84906958897E+02  0.55699400115E+02  0.80702452043E+02  0.12970929268E+03  0.00000000000E+00 0. -1.
        -12    1    4    4    0    0 -0.19171121417E+01  0.18842556499E+01  0.63414890719E+02  0.63471837087E+02  0.00000000000E+00 0.  1.
</event>
<event>
12    1  0.8331241E-002  0.2101261E+03  0.7818608E-02  0.1141632E+00
         21   -1    0    0  503  502  0.00000000000E+00  0.00000000000E+00  0.41144703383E+03  0.41144703383E+03  0.00000000000E+00 0. -1.
         21   -1    0    0  501  503 -0.00000000000E+00 -0.00000000000E+00 -0.18492872111E+03  0.18492872111E+03  0.00000000000E+00 0. -1.
          6    2    1    2  501    0 -0.10194415093E+03 -0.63659501860E+02 -0.80582276758E+02  0.22426859844E+03  0.17134105997E+03 0.  0.
         24    2    3    3    0    0 -0.10098828828E+03  0.16849779754E+02 -0.52780974064E+02  0.13895939301E+03  0.77726007459E+02 0.  0.
         -6    2    1    2    0  502  0.10194415093E+03  0.63659501860E+02  0.30710058947E+03  0.37210715650E+03  0.17235957119E+03 0.  0.
        -24    2    5    5    0    0  0.71614664907E+02 -0.15818974672E+02  0.99570251874E+02  0.14776893645E+03  0.80885866075E+02 0.  0.
          5    1    3    3  501    0 -0.95586265430E+00 -0.80509281614E+02 -0.27801302694E+02  0.85309205429E+02  0.47000000000E+01 0. -1.
        -11    1    4    4    0    0 -0.11087062770E+03  0.82769203876E+01 -0.34364115955E+02  0.11636879291E+03  0.00000000000E+00 0.  1.
         12    1    4    4    0    0  0.98823394243E+01  0.85728593660E+01 -0.18416858109E+02  0.22590600099E+02  0.00000000000E+00 0. -1.
         -5    1    5    5    0  502  0.30329486025E+02  0.79478476532E+02  0.20753033760E+03  0.22433822006E+03  0.47000000000E+01 0.  1.
         11    1    6    6    0    0  0.42781462004E+02 -0.83735847608E+01  0.10829366139E+03  0.11673854338E+03  0.00000000000E+00 0. -1.
        -12    1    6    6    0    0  0.28833202903E+02 -0.74453899114E+01 -0.87234095124E+01  0.31030393070E+02  0.00000000000E+00 0.  1.
</event>
<event>
12    1  0.8331241E-002  0.1904077E+03  0.7818608E-02  0.1158757E+00
         21   -1    0    0  501  502  0.00000000000E+00  0.00000000000E+00  0.10962351169E+04  0.10962351169E+04  0.00000000000E+00 0. -1.
         21   -1    0    0  502  503 -0.00000000000E+00 -0.00000000000E+00 -0.41981428795E+02  0.41981428795E+02  0.00000000000E+00 0. -1.
         -6    2    1    2    0  503  0.71245082507E+02  0.36980536371E+02  0.25445184400E+03  0.31606200062E+03  0.16942852614E+03 0.  0.
        -24    2    3    3    0    0  0.98510934969E+02  0.22389984656E+01  0.23822118188E+03  0.26877642608E+03  0.76039583759E+02 0.  0.
          6    2    1    2  501    0 -0.71245082507E+02 -0.36980536371E+02  0.79980184415E+03  0.82215454512E+03  0.17266060437E+03 0.  0.
         24    2    5    5    0    0 -0.26648868995E+02 -0.70973612688E+02  0.30252432762E+03  0.32170337873E+03  0.78896635957E+02 0.  0.
          5    1    5    5  501    0 -0.44596213512E+02  0.33993076317E+02  0.49727751653E+03  0.50045116639E+03  0.47000000000E+01 0. -1.
        -13    1    6    6    0    0  0.26630706112E+02 -0.19475691002E+02  0.65074175278E+02  0.72959888543E+02  0.00000000000E+00 0.  1.
         14    1    6    6    0    0 -0.53279575107E+02 -0.51497921686E+02  0.23745015234E+03  0.24874349018E+03  0.00000000000E+00 0. -1.
         -5    1    3    3    0  503 -0.27265852462E+02  0.34741537905E+02  0.16230662118E+02  0.47285574537E+02  0.47000000000E+01 0.  1.
         11    1    4    4    0    0  0.43217744985E+02  0.29384065695E+02  0.56804269674E+02  0.77187575759E+02  0.00000000000E+00 0. -1.
        -12    1    4    4    0    0  0.55293189984E+02 -0.27145067230E+02  0.18141691220E+03  0.19158885032E+03  0.00000000000E+00 0.  1.
</event>
<event>
12    1  0.8331241E-002  0.1909144E+03  0.7818608E-02  0.1157679E+00
         21   -1    0    0  501  502  0.00000000000E+00  0.00000000000E+00  0.91238026891E+03  0.91238026891E+03  0.00000000000E+00 0.  1.
         21   -1    0    0  502  503 -0.00000000000E+00 -0.00000000000E+00 -0.55200508287E+02  0.55200508287E+02  0.00000000000E+00 0. -1.
         -6    2    1    2    0  503 -0.76665785837E+02 -0.22007574261E+02  0.17383185475E+03  0.25806497893E+03  0.17325716025E+03 0.  0.
        -24    2    3    3    0    0 -0.76780932271E+02 -0.61741548746E+02  0.10001807945E+03  0.17410447981E+03  0.10296321319E+03 0.  0.
          6    2    1    2  501    0  0.76665785837E+02  0.22007574261E+02  0.68334790587E+03  0.70951579827E+03  0.17345411928E+03 0.  0.
         24    2    5    5    0    0 -0.28993328946E+01  0.93847453261E+00  0.52411583602E+03  0.53020752420E+03  0.80083220985E+02 0.  0.
          5    1    5    5  501    0  0.79565118732E+02  0.21069099729E+02  0.15923206985E+03  0.17930827407E+03  0.47000000000E+01 0. -1.
        -11    1    6    6    0    0  0.81974795670E+01 -0.32907102326E+02  0.38901240777E+03  0.39048780961E+03  0.00000000000E+00 0.  1.
         12    1    6    6    0    0 -0.11096812462E+02  0.33845576859E+02  0.13510342825E+03  0.13971971459E+03  0.00000000000E+00 0. -1.
         -5    1    3    3    0  503  0.11514643378E+00  0.39733974485E+02  0.73813775307E+02  0.83960499118E+02  0.47000000000E+01 0.  1.
         11    1    4    4    0    0 -0.20503165271E+01 -0.65524880809E+02  0.31857559662E+02  0.72887707540E+02  0.00000000000E+00 0. -1.
        -12    1    4    4    0    0 -0.74730615744E+02  0.37833320629E+01  0.68160519785E+02  0.10121677227E+03  0.00000000000E+00 0.  1.
</event>
<event>
12    1  0.8331241E-002  0.2535406E+03  0.7818608E-02  0.1111157E+00
         21   -1    0    0  501  502  0.00000000000E+00  0.00000000000E+00  0.14102829572E+04  0.14102829572E+04  0.00000000000E+00 0.  1.
         21   -1    0    0  502  503 -0.00000000000E+00 -0.00000000000E+00 -0.65849209478E+02  0.65849209478E+02  0.00000000000E+00 0.  1.
         -6    2    1    2    0  503  0.18325936358E+03 -0.29368695936E+02  0.26234312690E+03  0.36483799243E+03  0.17273195955E+03 0.  0.
        -24    2    3    3    0    0  0.68357041624E+02  0.43683340341E+02  0.14930104152E+03  0.18780763723E+03  0.79999926508E+02 0.  0.
          6    2    1    2  501    0 -0.18325936358E+03  0.29368695936E+02  0.10820906208E+04  0.11112941742E+04  0.17207008863E+03 0.  0.
         24    2    5    5    0    0 -0.12049994858E+03 -0.27855187896E+01  0.37759822626E+03  0.40326574142E+03  0.74261975492E+02 0.  0.
          5    1    5    5  501    0 -0.62759414992E+02  0.32154214726E+02  0.70449239453E+03  0.70802843280E+03  0.47000000000E+01 0. -1.
        -11    1    6    6    0    0 -0.67047475519E+02  0.25340948602E+02  0.27519659634E+03  0.28437773170E+03  0.00000000000E+00 0.  1.
         12    1    6    6    0    0 -0.53452473064E+02 -0.28126467392E+02  0.10240162992E+03  0.11888800971E+03  0.00000000000E+00 0. -1.
         -5    1    3    3    0  503  0.11490232195E+03 -0.73052036278E+02  0.11304208538E+03  0.17703035520E+03  0.47000000000E+01 0.  1.
         11    1    4    4    0    0 -0.18153363503E+02  0.59912185806E+01  0.31819573439E+02  0.37120406253E+02  0.00000000000E+00 0. -1.
        -12    1    4    4    0    0  0.86510405127E+02  0.37692121761E+02  0.11748146808E+03  0.15068723098E+03  0.00000000000E+00 0.  1.
</event>
<event>
12    1  0.8331241E-002  0.2308197E+03  0.7818608E-02  0.1126300E+00
         21   -1    0    0  501  502  0.00000000000E+00  0.00000000000E+00  0.21441050910E+02  0.21441050910E+02  0.00000000000E+00 0.  1.
         21   -1    0    0  502  503 -0.00000000000E+00 -0.00000000000E+00 -0.24774848831E+04  0.24774848831E+04  0.00000000000E+00 0. -1.
         -6    2    1    2    0  503 -0.71529497839E+02 -0.13669757461E+03 -0.12982972537E+04  0.13186559471E+04  0.17168299808E+03 0.  0.
        -24    2    3    3    0    0 -0.76826126791E+02 -0.16457956512E+03 -0.10601841622E+04  0.10788114266E+04  0.82794621229E+02 0.  0.
          6    2    1    2  501    0  0.71529497839E+02  0.13669757461E+03 -0.11577465785E+04  0.11802699870E+04  0.16987467759E+03 0.  0.
         24    2    5    5    0    0  0.23830044330E+02  0.34044677655E+02 -0.25343341035E+03  0.26888793138E+03  0.79657485959E+02 0.  0.
          5    1    5    5  501    0  0.47699453509E+02  0.10265289696E+03 -0.90431316817E+03  0.91138205559E+03  0.47000000000E+01 0. -1.
        -11    1    6    6    0    0 -0.27186212937E+02  0.22019511947E+01 -0.11053809443E+03  0.11385345442E+03  0.00000000000E+00 0.  1.
         12    1    6    6    0    0  0.51016257266E+02  0.31842726461E+02 -0.14289531592E+03  0.15503447696E+03  0.00000000000E+00 0. -1.
         -5    1    3    3    0  503  0.52966289518E+01  0.27881990512E+02 -0.23811309152E+03  0.23984452052E+03  0.47000000000E+01 0.  1.
         11    1    4    4    0    0 -0.73117419714E+02 -0.61675882809E+02 -0.56417210049E+03  0.57222393393E+03  0.00000000000E+00 0. -1.
        -12    1    4    4    0    0 -0.37087070762E+01 -0.10290368231E+03 -0.49601206171E+03  0.50658749264E+03  0.00000000000E+00 0.  1.
</event>
<event>
12    1  0.8331241E-002  0.2436535E+03  0.7818608E-02  0.1117422E+00
         21   -1    0    0  501  502  0.00000000000E+00  0.00000000000E+00  0.49421241333E+03  0.49421241333E+03  0.00000000000E+00 0.  1.
         21   -1    0    0  502  503 -0.00000000000E+00 -0.00000000000E+00 -0.24236166144E+03  0.24236166144E+03  0.00000000000E+00 0. -1.
         -6    2    1    2    0  503 -0.46017542783E+02 -0.16718929655E+03 -0.13572216494E+03  0.27890416601E+03  0.17116411025E+03 0.  0.
        -24    2    3    3    0    0 -0.98789350164E+02 -0.10657405962E+03 -0.95194039169E+02  0.18877265331E+03  0.73863682930E+02 0.  0.
          6    2    1    2  501    0  0.46017542783E+02  0.16718929655E+03  0.38757291683E+03  0.45766990876E+03  0.17081892285E+03 0.  0.
         24    2    5    5    0    0  0.47882646706E+02  0.18926846333E+03  0.37839994912E+03  0.43323220112E+03  0.79926963688E+02 0.  0.
          5    1    5    5  501    0 -0.18651039239E+01 -0.22079166778E+02  0.91729677049E+01  0.24437707642E+02  0.47000000000E+01 0. -1.
        -13    1    6    6    0    0 -0.21256785936E+02  0.59543113458E+02  0.13091168818E+03  0.14537917117E+03  0.00000000000E+00 0.  1.
         14    1    6    6    0    0  0.69139432643E+02  0.12972534987E+03  0.24748826094E+03  0.28785302994E+03  0.00000000000E+00 0. -1.
         -5    1    3    3    0  503  0.52771807382E+02 -0.60615236934E+02 -0.40528125769E+02  0.90131512698E+02  0.47000000000E+01 0.  1.
         11    1    4    4    0    0 -0.79370535610E+02 -0.11200775368E+03 -0.97639283627E+02  0.16846022829E+03  0.00000000000E+00 0. -1.
        -12    1    4    4    0    0 -0.19418814555E+02  0.54336940641E+01  0.24452444582E+01  0.20312425024E+02  0.00000000000E+00 0.  1.
</event>
<event>
12    1  0.8331241E-002  0.1925383E+03  0.7818608E-02  0.1157255E+00
         21   -1    0    0  501  502  0.00000000000E+00  0.00000000000E+00  0.20032848467E+03  0.20032848467E+03  0.00000000000E+00 0.  1.
         21   -1    0    0  502  503 -0.00000000000E+00 -0.00000000000E+00 -0.25374599820E+03  0.25374599820E+03  0.00000000000E+00 0.  1.
         -6    2    1    2    0  503 -0.82680943612E+02 -0.17078564608E+02 -0.14842094816E+03  0.23937317127E+03  0.16775852130E+03 0.  0.
        -24    2    3    3    0    0 -0.47327722874E+02 -0.19937568288E+02 -0.13136352082E+02  0.99437342932E+02  0.84129670401E+02 0.  0.
          6    2    1    2  501    0  0.82680943612E+02  0.17078564608E+02  0.95003434628E+02  0.21470131160E+03  0.17304099169E+03 0.  0.
         24    2    5    5    0    0  0.12293327136E+03  0.15184274591E+02  0.77260577998E+02  0.17042109948E+03  0.87926121458E+02 0.  0.
          5    1    5    5  501    0 -0.40252327746E+02  0.18942900173E+01  0.17742856631E+02  0.44280212117E+02  0.47000000000E+01 0. -1.
        -13    1    6    6    0    0  0.70976650533E+02  0.35713308530E+02  0.57319578779E+01  0.79661663729E+02  0.00000000000E+00 0.  1.
         14    1    6    6    0    0  0.51956620826E+02 -0.20529033939E+02  0.71528620120E+02  0.90759435754E+02  0.00000000000E+00 0. -1.
         -5    1    3    3    0  503 -0.35353220738E+02  0.28590036794E+01 -0.13528459608E+03  0.13993582834E+03  0.47000000000E+01 0.  1.
         11    1    4    4    0    0 -0.54269021857E+01  0.29372960398E+02  0.87538348810E+01  0.31126382620E+02  0.00000000000E+00 0. -1.
        -12    1    4    4    0    0 -0.41900820688E+02 -0.49310528685E+02 -0.21890186963E+02  0.68310960313E+02  0.00000000000E+00 0.  1.
</event>
<event>
12    1  0.8331241E-002  0.4834276E+03  0.7818608E-02  0.1018239E+00
         21   -1    0    0  501  502  0.00000000000E+00  0.00000000000E+00  0.29663082507E+03  0.29663082507E+03  0.00000000000E+00 0.  1.
         21   -1    0    0  502  503 -0.00000000000E+00 -0.00000000000E+00 -0.98075694093E+03  0.98075694093E+03  0.00000000000E+00 0. -1.
         -6    2    1    2    0  503 -0.45127190590E+03 -0.59962215761E+01 -0.57899011200E+02  0.48627297306E+03  0.17154247608E+03 0.  0.
        -24    2    3    3    0    0 -0.22691696856E+03 -0.25672007863E+02  0.31470801030E+02  0.24392750103E+03  0.79748679189E+02 0.  0.
          6    2    1    2  501    0  0.45127190590E+03  0.59962215761E+01 -0.62622710466E+03  0.79111479293E+03  0.17326263664E+03 0.  0.
         24    2    5    5    0    0  0.10219717561E+03 -0.10278044457E+02 -0.13297354053E+03  0.18659912929E+03  0.81162624831E+02 0.  0.
          5    1    5    5  501    0  0.34907473029E+03  0.16274266033E+02 -0.49325356413E+03  0.60451566364E+03  0.47000000000E+01 0. -1.
        -11    1    6    6    0    0  0.77781959687E+01  0.84157794689E+01 -0.71452983121E+02  0.72366114125E+02  0.00000000000E+00 0.  1.
         12    1    6    6    0    0  0.94418979642E+02 -0.18693823926E+02 -0.61520557411E+02  0.11423301516E+03  0.00000000000E+00 0. -1.
         -5    1    3    3    0  503 -0.22435493734E+03  0.19675786286E+02 -0.89369812231E+02  0.24234547203E+03  0.47000000000E+01 0.  1.
         13    1    4    4    0    0 -0.62015049681E+02 -0.75267808445E+01 -0.26962233154E+02  0.68040288311E+02  0.00000000000E+00 0. -1.
        -14    1    4    4    0    0 -0.16490191888E+03 -0.18145227018E+02  0.58433034184E+02  0.17588721272E+03  0.00000000000E+00 0.  1.
</event>
<event>
12    1  0.8331241E-002  0.1825295E+03  0.7818608E-02  0.1165480E+00
         21   -1    0    0  501  502  0.00000000000E+00  0.00000000000E+00  0.33062637657E+03  0.33062637657E+03  0.00000000000E+00 0.  1.
         21   -1    0    0  502  503 -0.00000000000E+00 -0.00000000000E+00 -0.18689526012E+03  0.18689526012E+03  0.00000000000E+00 0.  1.
         -6    2    1    2    0  503 -0.62001962739E+02 -0.11578870268E+02 -0.10398948035E+03  0.21007336537E+03  0.17128541442E+03 0.  0.
        -24    2    3    3    0    0 -0.37071927351E+02  0.46471784969E+02 -0.52600481440E+02  0.12849944523E+03  0.10105118594E+03 0.  0.
          6    2    1    2  501    0  0.62001962739E+02  0.11578870268E+02  0.24772059680E+03  0.30744827132E+03  0.17082339370E+03 0.  0.
         24    2    5    5    0    0  0.56671892991E+02 -0.22300960101E+02  0.25310641071E+03  0.27241472253E+03  0.80236460709E+02 0.  0.
          5    1    5    5  501    0  0.53300697485E+01  0.33879830369E+02 -0.53858139129E+01  0.35033548791E+02  0.47000000000E+01 0. -1.
        -11    1    6    6    0    0  0.43946688175E+02  0.45334220603E+01  0.48267455569E+02  0.65434017027E+02  0.00000000000E+00 0.  1.
         12    1    6    6    0    0  0.12725204816E+02 -0.26834382161E+02  0.20483895515E+03  0.20698070550E+03  0.00000000000E+00 0. -1.
         -5    1    3    3    0  503 -0.24930035388E+02 -0.58050655237E+02 -0.51388998914E+02  0.81573920142E+02  0.47000000000E+01 0.  1.
         11    1    4    4    0    0  0.26041442401E+02  0.11204597553E+02 -0.48384471675E+02  0.56078131459E+02  0.00000000000E+00 0. -1.
        -12    1    4    4    0    0 -0.63113369752E+02  0.35267187416E+02 -0.42160097656E+01  0.72421313769E+02  0.00000000000E+00 0.  1.
</event>
<event>
12    1  0.8331241E-002  0.3620091E+03  0.7818608E-02  0.1057844E+00
         21   -1    0    0  503  502  0.00000000000E+00  0.00000000000E+00  0.19055957157E+03  0.19055957157E+03  0.00000000000E+00 0. -1.
         21   -1    0    0  501  503 -0.00000000000E+00 -0.00000000000E+00 -0.15584435526E+04  0.15584435526E+04  0.00000000000E+00 0.  1.
          6    2    1    2  501    0 -0.18279515460E+03 -0.26074355301E+03 -0.13382193463E+04  0.13863194558E+04  0.17218985383E+03 0.  0.
         24    2    3    3    0    0 -0.12454069978E+03 -0.82044324447E+02 -0.48632753649E+03  0.51392691720E+03  0.73244429155E+02 0.  0.
         -6    2    1    2    0  502  0.18279515460E+03  0.26074355301E+03 -0.29664634761E+02  0.36268366839E+03  0.17105023759E+03 0.  0.
        -24    2    5    5    0    0  0.84572180314E+02  0.15775690178E+03  0.46446570680E+02  0.20122466863E+03  0.79337189232E+02 0.  0.
          5    1    3    3  501    0 -0.58254454826E+02 -0.17869922856E+03 -0.85189180978E+03  0.87239253858E+03  0.47000000000E+01 0. -1.
        -11    1    4    4    0    0 -0.96588318466E+02 -0.78186833051E+02 -0.45544795641E+03  0.47209673281E+03  0.00000000000E+00 0.  1.
         12    1    4    4    0    0 -0.27952381309E+02 -0.38574913968E+01 -0.30879580073E+02  0.41830184391E+02  0.00000000000E+00 0. -1.
         -5    1    5    5    0  502  0.98222974288E+02  0.10298665123E+03 -0.76111205441E+02  0.16145899976E+03  0.47000000000E+01 0.  1.
         13    1    6    6    0    0  0.55459234511E+02  0.12551173997E+03 -0.55691532890E+00  0.13721965500E+03  0.00000000000E+00 0. -1.
        -14    1    6    6    0    0  0.29112945802E+02  0.32245161817E+02  0.47003486009E+02  0.64005013638E+02  0.00000000000E+00 0.  1.
</event>
<event>
12    1  0.8331241E-002  0.2296790E+03  0.7818608E-02  0.1128159E+00
         21   -1    0    0  501  502  0.00000000000E+00  0.00000000000E+00  0.14570430938E+03  0.14570430938E+03  0.00000000000E+00 0. -1.
         21   -1    0    0  502  503 -0.00000000000E+00 -0.00000000000E+00 -0.50008440950E+03  0.50008440950E+03  0.00000000000E+00 0.  1.
         -6    2    1    2    0  503  0.33438117225E+02  0.13528686171E+03 -0.35162763296E+03  0.41609325162E+03  0.17340980118E+03 0.  0.
        -24    2    3    3    0    0 -0.78947404426E+01  0.15366278874E+03 -0.25513375739E+03  0.30941974113E+03  0.83503068614E+02 0.  0.
          6    2    1    2  501    0 -0.33438117225E+02 -0.13528686171E+03 -0.27524671606E+01  0.22969546727E+03  0.18256995638E+03 0.  0.
         24    2    5    5    0    0 -0.90775963079E+02 -0.11016248027E+03 -0.17492267566E+02  0.16521124574E+03  0.81318686427E+02 0.  0.
          5    1    5    5  501    0  0.57337845853E+02 -0.25124381433E+02  0.14739800405E+02  0.64484221524E+02  0.47000000000E+01 0. -1.
        -13    1    6    6    0    0 -0.41134620241E+02 -0.14904824363E+02 -0.35441499681E+02  0.56305511909E+02  0.00000000000E+00 0.  1.
         14    1    6    6    0    0 -0.49641342837E+02 -0.95257655910E+02  0.17949232115E+02  0.10890573383E+03  0.00000000000E+00 0. -1.
         -5    1    3    3    0  503  0.41332857668E+02 -0.18375927037E+02 -0.96493875567E+02  0.10667351049E+03  0.47000000000E+01 0.  1.
         11    1    4    4    0    0  0.95614667660E+00  0.11776719688E+03 -0.11542815704E+03  0.16490508274E+03  0.00000000000E+00 0. -1.
        -12    1    4    4    0    0 -0.88508871192E+01  0.35895591864E+02 -0.13970560035E+03  0.14451465838E+03  0.00000000000E+00 0.  1.
</event>
<event>
12    1  0.8331241E-002  0.1782770E+03  0.7818608E-02  0.1169906E+00
         21   -1    0    0  501  502  0.00000000000E+00  0.00000000000E+00  0.26073934509E+02  0.26073934509E+02  0.00000000000E+00 0. -1.
         21   -1    0    0  502  503 -0.00000000000E+00 -0.00000000000E+00 -0.12169435273E+04  0.12169435273E+04  0.00000000000E+00 0. -1.
         -6    2    1    2    0  503 -0.14941942365E+02 -0.44065142869E+02 -0.53685699000E+03  0.56514198860E+03  0.17030866422E+03 0.  0.
        -24    2    3    3    0    0 -0.13203466011E+02 -0.71299730709E+02 -0.51976031106E+03  0.53259768794E+03  0.90837949847E+02 0.  0.
          6    2    1    2  501    0  0.14941942365E+02  0.44065142869E+02 -0.65401260278E+03  0.67787547319E+03  0.17209786201E+03 0.  0.
         24    2    5    5    0    0  0.35192995831E+02 -0.23684853487E+02 -0.21480719665E+03  0.23298936873E+03  0.79639154748E+02 0.  0.
          5    1    5    5  501    0 -0.20251053467E+02  0.67749996356E+02 -0.43920540613E+03  0.44488610446E+03  0.47000000000E+01 0. -1.
        -13    1    6    6    0    0  0.34918939899E+01 -0.40596830010E+02 -0.50952326615E+02  0.65241363551E+02  0.00000000000E+00 0.  1.
         14    1    6    6    0    0  0.31701101841E+02  0.16911976523E+02 -0.16385487003E+03  0.16774800518E+03  0.00000000000E+00 0. -1.
         -5    1    3    3    0  503 -0.17384763533E+01  0.27234587840E+02 -0.17096678947E+02  0.32544300666E+02  0.47000000000E+01 0.  1.
         13    1    4    4    0    0  0.76182703606E+01 -0.80417911650E+02 -0.27051396797E+03  0.28231699457E+03  0.00000000000E+00 0. -1.
        -14    1    4    4    0    0 -0.20821736372E+02  0.91181809405E+01 -0.24924634309E+03  0.25028069337E+03  0.00000000000E+00 0.  1.
</event>
<event>
12    1  0.8331241E-002  0.2785807E+03  0.7818608E-02  0.1096721E+00
         21   -1    0    0  503  502  0.00000000000E+00  0.00000000000E+00  0.40964232332E+03  0.40964232332E+03  0.00000000000E+00 0.  1.
         21   -1    0    0  501  503 -0.00000000000E+00 -0.00000000000E+00 -0.27857468197E+03  0.27857468197E+03  0.00000000000E+00 0.  1.
          6    2    1    2  501    0 -0.20306377260E+03 -0.78698582581E+02 -0.13060753872E+03  0.30601141571E+03  0.17075214414E+03 0.  0.
         24    2    3    3    0    0 -0.11265084828E+03  0.21847207918E+02 -0.51310652178E+02  0.14918654814E+03  0.80351285038E+02 0.  0.
         -6    2    1    2    0  502  0.20306377260E+03  0.78698582581E+02  0.26167518007E+03  0.38220558959E+03  0.17372060962E+03 0.  0.
        -24    2    5    5    0    0  0.13637503580E+03  0.49756970722E+02  0.72969001005E+02  0.17992579196E+03  0.77297535394E+02 0.  0.
          5    1    3    3  501    0 -0.90412924320E+02 -0.10054579050E+03 -0.79296886544E+02  0.15682486757E+03  0.47000000000E+01 0. -1.
        -11    1    4    4    0    0 -0.20009274990E+02  0.25178774408E+01 -0.50682936502E+02  0.54547876631E+02  0.00000000000E+00 0.  1.
         12    1    4    4    0    0 -0.92641573290E+02  0.19329330477E+02 -0.62771567655E+00  0.94638671510E+02  0.00000000000E+00 0. -1.
         -5    1    5    5    0  502  0.66688736798E+02  0.28941611859E+02  0.18870617907E+03  0.20227979763E+03  0.47000000000E+01 0.  1.
         11    1    6    6    0    0  0.12260837328E+02  0.23696902518E+02 -0.98691229996E+01  0.28447687248E+02  0.00000000000E+00 0. -1.
        -12    1    6    6    0    0  0.12411419847E+03  0.26060068204E+02  0.82838124005E+02  0.15147810471E+03  0.00000000000E+00 0.  1.
</event>
<event>
12    1  0.8331241E-002  0.1737575E+03  0.7818608E-02  0.1174070E+00
         21   -1    0    0  503  502  0.00000000000E+00  0.00000000000E+00  0.43073033977E+03  0.43073033977E+03  0.00000000000E+00 0. -1.
         21   -1    0    0  501  503 -0.00000000000E+00 -0.00000000000E+00 -0.14830573145E+03  0.14830573145E+03  0.00000000000E+00 0. -1.
          6    2    1    2  501    0 -0.13757854985E+02 -0.17176582063E+02 -0.69152281056E+02  0.18701254996E+03  0.17235818031E+03 0.  0.
         24    2    3    3    0    0  0.12844292330E+02 -0.65226761153E+02 -0.67415486298E+01  0.10374380748E+03  0.79358823679E+02 0.  0.
         -6    2    1    2    0  502  0.13757854985E+02  0.17176582063E+02  0.35157688937E+03  0.39202352126E+03  0.17202272679E+03 0.  0.
        -24    2    5    5    0    0  0.58314356111E+02  0.19033219322E+02  0.32379851194E+03  0.33927451987E+03  0.80615730070E+02 0.  0.
          5    1    3    3  501    0 -0.26602147315E+02  0.48050179090E+02 -0.62410732426E+02  0.83268742480E+02  0.47000000000E+01 0. -1.
        -11    1    4    4    0    0 -0.71247946736E+01 -0.18846768325E+02  0.33555182846E+02  0.39139668768E+02  0.00000000000E+00 0.  1.
         12    1    4    4    0    0  0.19969087003E+02 -0.46379992829E+02 -0.40296731476E+02  0.64604138708E+02  0.00000000000E+00 0. -1.
         -5    1    5    5    0  502 -0.44556501126E+02 -0.18566372582E+01  0.27778377438E+02  0.52749001389E+02  0.47000000000E+01 0.  1.
         13    1    6    6    0    0  0.43130411535E+02 -0.80092047027E+00  0.57888468256E+02  0.72193826812E+02  0.00000000000E+00 0. -1.
        -14    1    6    6    0    0  0.15183944575E+02  0.19834139792E+02  0.26591004368E+03  0.26708069306E+03  0.00000000000E+00 0.  1.
</event>
<event>
12    1  0.8331241E-002  0.2575763E+03  0.7818608E-02  0.1108831E+00
         21   -1    0    0  503  502  0.00000000000E+00  0.00000000000E+00  0.93418590781E+02  0.93418590781E+02  0.00000000000E+00 0.  1.
         21   -1    0    0  501  503 -0.00000000000E+00 -0.00000000000E+00 -0.81200164819E+03  0.81200164819E+03  0.00000000000E+00 0. -1.
          6    2    1    2  501    0 -0.75374282516E+02  0.17498367033E+03 -0.52361768568E+03  0.58354178402E+03  0.17333483662E+03 0.  0.
         24    2    3    3    0    0 -0.51725753622E+02  0.19753511949E+03 -0.40095639468E+03  0.45651539664E+03  0.77101231652E+02 0.  0.
         -6    2    1    2    0  502  0.75374282516E+02 -0.17498367033E+03 -0.19496537173E+03  0.32187845495E+03  0.17115395480E+03 0.  0.
        -24    2    5    5    0    0  0.82259979823E+02 -0.10647060377E+03 -0.19778966683E+03  0.25280226687E+03  0.81765152023E+02 0.  0.
          5    1    3    3  501    0 -0.23648528893E+02 -0.22551449156E+02 -0.12266129100E+03  0.12702638737E+03  0.47000000000E+01 0. -1.
        -11    1    4    4    0    0 -0.20975463051E+02  0.17429034606E+02 -0.19399605044E+02  0.33467685510E+02  0.00000000000E+00 0.  1.
         12    1    4    4    0    0 -0.30750290572E+02  0.18010608488E+03 -0.38155678963E+03  0.42304771114E+03  0.00000000000E+00 0. -1.
         -5    1    5    5    0  502 -0.68856973079E+01 -0.68513066559E+02  0.28242951021E+01  0.69076188079E+02  0.47000000000E+01 0.  1.
         13    1    6    6    0    0  0.76355377864E+02 -0.49136884750E+02 -0.77341203872E+02  0.11927379841E+03  0.00000000000E+00 0. -1.
        -14    1    6    6    0    0  0.59046019593E+01 -0.57333719020E+02 -0.12044846296E+03  0.13352846846E+03  0.00000000000E+00 0.  1.
</event>
<event>
12    1  0.8331241E-002  0.2082734E+03  0.7818608E-02  0.1142958E+00
         21   -1    0    0  503  502  0.00000000000E+00  0.00000000000E+00  0.14554007236E+04  0.14554007236E+04  0.00000000000E+00 0.  1.
         21   -1    0    0  501  503 -0.00000000000E+00 -0.00000000000E+00 -0.43043649548E+02  0.43043649548E+02  0.00000000000E+00 0. -1.
          6    2    1    2  501    0  0.49345140036E+02  0.10707146626E+03  0.29037828326E+03  0.35729835454E+03  0.17159057388E+03 0.  0.
         24    2    3    3    0    0  0.61642132234E+02  0.13916986581E+03  0.21918346042E+03  0.27810039958E+03  0.78297119448E+02 0.  0.
         -6    2    1    2    0  502 -0.49345140036E+02 -0.10707146626E+03  0.11219787908E+04  0.11411460186E+04  0.17169329352E+03 0.  0.
        -24    2    5    5    0    0  0.20943459481E+02 -0.57844484848E+01  0.50009929399E+03  0.50714621912E+03  0.81399603079E+02 0.  0.
          5    1    3    3  501    0 -0.12296992198E+02 -0.32098399551E+02  0.71194822839E+02  0.79197954961E+02  0.47000000000E+01 0. -1.
        -11    1    4    4    0    0 -0.17030049509E+02  0.46664753597E+02  0.60389832456E+02  0.78195611632E+02  0.00000000000E+00 0.  1.
         12    1    4    4    0    0  0.78672181744E+02  0.92505112210E+02  0.15879362796E+03  0.19990478795E+03  0.00000000000E+00 0. -1.
         -5    1    5    5    0  502 -0.70288599517E+02 -0.10128701777E+03  0.62187949677E+03  0.63399979944E+03  0.47000000000E+01 0.  1.
         13    1    6    6    0    0  0.16282344938E+02 -0.19763496255E+02  0.48625032354E+03  0.48692410875E+03  0.00000000000E+00 0. -1.
        -14    1    6    6    0    0  0.46611145429E+01  0.13979047770E+02  0.13848970451E+02  0.20222110372E+02  0.00000000000E+00 0.  1.
</event>
<event>
12    1  0.8331241E-002  0.1829331E+03  0.7818608E-02  0.1165124E+00
         21   -1    0    0  501  502  0.00000000000E+00  0.00000000000E+00  0.16158676305E+04  0.16158676305E+04  0.00000000000E+00 0.  1.
         21   -1    0    0  502  503 -0.00000000000E+00 -0.00000000000E+00 -0.42948636195E+03  0.42948636195E+03  0.00000000000E+00 0.  1.
         -6    2    1    2    0  503  0.48505743624E+02 -0.38357719073E+02 -0.40464298913E+03  0.44384760570E+03  0.17158271082E+03 0.  0.
        -24    2    3    3    0    0  0.41658054277E+02 -0.43120589981E+02 -0.10776062814E+03  0.14681090417E+03  0.79663729753E+02 0.  0.
          6    2    1    2  501    0 -0.48505743624E+02  0.38357719073E+02  0.15910242577E+04  0.16015063868E+04  0.17216386521E+03 0.  0.
         24    2    5    5    0    0 -0.18015823824E+02 -0.32697594905E+02  0.49422904657E+03  0.50197907104E+03  0.79542030867E+02 0.  0.
          5    1    5    5  501    0 -0.30489919800E+02  0.71055313978E+02  0.10967952112E+04  0.10995273157E+04  0.47000000000E+01 0. -1.
        -11    1    6    6    0    0 -0.25937526794E+02  0.20864416047E+02  0.21297009407E+03  0.21555588631E+03  0.00000000000E+00 0.  1.
         12    1    6    6    0    0  0.79217029696E+01 -0.53562010952E+02  0.28125895250E+03  0.28642318474E+03  0.00000000000E+00 0. -1.
         -5    1    3    3    0  503  0.68476893467E+01  0.47628709080E+01 -0.29688236099E+03  0.29703670153E+03  0.47000000000E+01 0.  1.
         13    1    4    4    0    0 -0.10672449573E+02 -0.43731340503E+02 -0.65839393081E+02  0.79756861794E+02  0.00000000000E+00 0. -1.
        -14    1    4    4    0    0  0.52330503851E+02  0.61075052172E+00 -0.41921235064E+02  0.67054042374E+02  0.00000000000E+00 0.  1.
</event>
<event>
12    1  0.8331241E-002  0.1831846E+03  0.7818608E-02  0.1164839E+00
         21   -1    0    0  501  502  0.00000000000E+00  0.00000000000E+00  0.11358385584E+03  0.11358385584E+03  0.00000000000E+00 0. -1.
         21   -1    0    0  502  503 -0.00000000000E+00 -0.00000000000E+00 -0.69012220349E+03  0.69012220349E+03  0.00000000000E+00 0. -1.
         -6    2    1    2    0  503 -0.46311638845E+02 -0.43560180361E+02 -0.59226865753E+03  0.61984732957E+03  0.17142430421E+03 0.  0.
        -24    2    3    3    0    0 -0.97270714956E+02 -0.33556338406E+02 -0.43489663790E+03  0.45406148320E+03  0.80306444561E+02 0.  0.
          6    2    1    2  501    0  0.46311638845E+02  0.43560180361E+02  0.15730309884E+02  0.18385872975E+03  0.17179735927E+03 0.  0.
         24    2    5    5    0    0  0.66612655050E+02  0.30176508824E+02 -0.46191219207E+02  0.11716825301E+03  0.79037353731E+02 0.  0.
          5    1    5    5  501    0 -0.20301016205E+02  0.13383671538E+02  0.61921529091E+02  0.66690476739E+02  0.47000000000E+01 0. -1.
        -11    1    6    6    0    0 -0.11703401454E+02 -0.13590653932E+02 -0.67139682578E+01  0.19150792403E+02  0.00000000000E+00 0.  1.
         12    1    6    6    0    0  0.78316056504E+02  0.43767162756E+02 -0.39477250949E+02  0.98017460610E+02  0.00000000000E+00 0. -1.
         -5    1    3    3    0  503  0.50959076110E+02 -0.10003841955E+02 -0.15737201964E+03  0.16578584637E+03  0.47000000000E+01 0.  1.
         11    1    4    4    0    0 -0.49426593827E+02 -0.43055602390E+02 -0.35055130598E+03  0.35662724405E+03  0.00000000000E+00 0. -1.
        -12    1    4    4    0    0 -0.47844121129E+02  0.94992639838E+01 -0.84345331914E+02  0.97434239149E+02  0.00000000000E+00 0.  1.
</event>
<event>
12    1  0.8331241E-002  0.1840725E+03  0.7818608E-02  0.1165150E+00
         21   -1    0    0  503  502  0.00000000000E+00  0.00000000000E+00  0.74258891864E+02  0.74258891864E+02  0.00000000000E+00 0. -1.
         21   -1    0    0  501  503 -0.00000000000E+00 -0.00000000000E+00 -0.70925619068E+03  0.70925619068E+03  0.00000000000E+00 0. -1.
          6    2    1    2  501    0 -0.13473173710E+02 -0.44550471980E+02 -0.56007265744E+03  0.58954563911E+03  0.17809101047E+03 0.  0.
         24    2    3    3    0    0  0.59531288145E+02 -0.50195298357E+02 -0.27618980234E+03  0.29633397334E+03  0.73955896302E+02 0.  0.
         -6    2    1    2    0  502  0.13473173710E+02  0.44550471980E+02 -0.74924641372E+02  0.19396944344E+03  0.17275465881E+03 0.  0.
        -24    2    5    5    0    0 -0.37180100315E+02 -0.22809200489E+02 -0.19449331783E+02  0.92961128835E+02  0.79755096897E+02 0.  0.
          5    1    3    3  501    0 -0.73004461855E+02  0.56448263771E+01 -0.28388285511E+03  0.29321166576E+03  0.47000000000E+01 0. -1.
        -13    1    4    4    0    0  0.37888458788E+02  0.12172350514E+02 -0.80318375033E+02  0.89636726816E+02  0.00000000000E+00 0.  1.
         14    1    4    4    0    0  0.21642829357E+02 -0.62367648872E+02 -0.19587142730E+03  0.20669724653E+03  0.00000000000E+00 0. -1.
         -5    1    5    5    0  502  0.50653274025E+02  0.67359672469E+02 -0.55475309589E+02  0.10100831460E+03  0.47000000000E+01 0.  1.
         13    1    6    6    0    0  0.25398453531E+02 -0.59600480897E+01 -0.61483983002E+01  0.26803104608E+02  0.00000000000E+00 0. -1.
        -14    1    6    6    0    0 -0.62578553846E+02 -0.16849152399E+02 -0.13300933482E+02  0.66158024227E+02  0.00000000000E+00 0.  1.
</event>
<event>
12    1  0.8331241E-002  0.2056473E+03  0.7818608E-02  0.1145132E+00
         21   -1    0    0  503  502  0.00000000000E+00  0.00000000000E+00  0.65661131421E+03  0.65661131421E+03  0.00000000000E+00 0.  1.
         21   -1    0    0  501  503 -0.00000000000E+00 -0.00000000000E+00 -0.66252226750E+02  0.66252226750E+02  0.00000000000E+00 0.  1.
          6    2    1    2  501    0  0.91232869511E+02 -0.65065143382E+02  0.23333962734E+03  0.31102765007E+03  0.17243522859E+03 0.  0.
         24    2    3    3    0    0  0.74907487076E+02 -0.98913008571E+02  0.11288714313E+03  0.18476171230E+03  0.77449779620E+02 0.  0.
         -6    2    1    2    0  502 -0.91232869511E+02  0.65065143382E+02  0.35701946012E+03  0.41183589089E+03  0.17201452484E+03 0.  0.
        -24    2    5    5    0    0 -0.78713582929E+01 -0.18521995026E+02  0.96721438882E+02  0.12598085574E+03  0.78173631691E+02 0.  0.
          5    1    3    3  501    0  0.16325382436E+02  0.33847865189E+02  0.12045248420E+03  0.12626593777E+03  0.47000000000E+01 0. -1.
        -13    1    4    4    0    0  0.90148942688E+02 -0.72755409968E+02  0.92769753629E+02  0.14841296687E+03  0.00000000000E+00 0.  1.
         14    1    4    4    0    0 -0.15241455612E+02 -0.26157598603E+02  0.20117389502E+02  0.36348745428E+02  0.00000000000E+00 0. -1.
         -5    1    5    5    0  502 -0.83361511219E+02  0.83587138408E+02  0.26029802124E+03  0.28585503515E+03  0.47000000000E+01 0.  1.
         13    1    6    6    0    0 -0.19877567867E+02 -0.16655109600E+02  0.10698037079E+03  0.11007865421E+03  0.00000000000E+00 0. -1.
        -14    1    6    6    0    0  0.12006209574E+02 -0.18668854260E+01 -0.10258931903E+02  0.15902201524E+02  0.00000000000E+00 0.  1.
</event>
<event>
12    1  0.8331241E-002  0.2008585E+03  0.7818608E-02  0.1149175E+00
         21   -1    0    0  501  502  0.00000000000E+00  0.00000000000E+00  0.85557173428E+03  0.85557173428E+03  0.00000000000E+00 0. -1.
         21   -1    0    0  502  503 -0.00000000000E+00 -0.00000000000E+00 -0.47411256117E+02  0.47411256117E+02  0.00000000000E+00 0. -1.
         -6    2    1    2    0  503 -0.10085069018E+03 -0.16461752322E+01  0.44799077215E+03  0.49095812678E+03  0.17369680112E+03 0.  0.
        -24    2    3    3    0    0 -0.85601176346E+02 -0.25019671019E+02  0.44707905412E+03  0.46264224418E+03  0.78769411180E+02 0.  0.
          6    2    1    2  501    0  0.10085069018E+03  0.16461752322E+01  0.36016970602E+03  0.41202486362E+03  0.17282563324E+03 0.  0.
         24    2    5    5    0    0  0.40004822533E+02  0.47498960163E+02  0.28671848366E+03  0.30609153760E+03  0.87338442135E+02 0.  0.
          5    1    5    5  501    0  0.60845867650E+02 -0.45852784931E+02  0.73451222352E+02  0.10593332602E+03  0.47000000000E+01 0. -1.
        -13    1    6    6    0    0 -0.17314467715E+02  0.36914620265E+02  0.64102448939E+02  0.75971073057E+02  0.00000000000E+00 0.  1.
         14    1    6    6    0    0  0.57319290248E+02  0.10584339899E+02  0.22261603472E+03  0.23012046454E+03  0.00000000000E+00 0. -1.
         -5    1    3    3    0  503 -0.15249513837E+02  0.23373495787E+02  0.91171802713E+00  0.28315882598E+02  0.47000000000E+01 0.  1.
         11    1    4    4    0    0 -0.76778410630E+02 -0.25891002741E+02  0.20544948424E+03  0.22085008249E+03  0.00000000000E+00 0. -1.
        -12    1    4    4    0    0 -0.88227657159E+01  0.87133172159E+00  0.24162956989E+03  0.24179216170E+03  0.00000000000E+00 0.  1.
</event>
<event>
12    1  0.8331241E-002  0.1716295E+03  0.7818608E-02  0.1176207E+00
         21   -1    0    0  503  502  0.00000000000E+00  0.00000000000E+00  0.90215364064E+03  0.90215364064E+03  0.00000000000E+00 0. -1.
         21   -1    0    0  501  503 -0.00000000000E+00 -0.00000000000E+00 -0.60084866710E+02  0.60084866710E+02  0.00000000000E+00 0. -1.
          6    2    1    2  501    0 -0.68245645717E+00  0.49844854855E+01  0.95854087100E+02  0.19658252321E+03  0.17155573897E+03 0.  0.
         24    2    3    3    0    0  0.44274199767E+02  0.49822452820E+02  0.67856274054E+02  0.12703029974E+03  0.84200603054E+02 0.  0.
         -6    2    1    2    0  502  0.68245645717E+00 -0.49844854855E+01  0.74621468683E+03  0.76565598414E+03  0.17136923985E+03 0.  0.
        -24    2    5    5    0    0 -0.34480824311E+02  0.19938899558E+02  0.23262341987E+03  0.25023798782E+03  0.83179974238E+02 0.  0.
          5    1    3    3  501    0 -0.44956656224E+02 -0.44837967334E+02  0.27997813046E+02  0.69552223465E+02  0.47000000000E+01 0. -1.
        -13    1    4    4    0    0 -0.49462387139E+01  0.53382164266E+02  0.53256314376E+02  0.75566895927E+02  0.00000000000E+00 0.  1.
         14    1    4    4    0    0  0.49220438481E+02 -0.35597114462E+01  0.14599959678E+02  0.51463403817E+02  0.00000000000E+00 0. -1.
         -5    1    5    5    0  502  0.35163280769E+02 -0.24923385044E+02  0.51359126696E+03  0.51541799632E+03  0.47000000000E+01 0.  1.
         11    1    6    6    0    0  0.58267054064E+01  0.43210964934E+02  0.86280663772E+02  0.96672079358E+02  0.00000000000E+00 0. -1.
        -12    1    6    6    0    0 -0.40307529718E+02 -0.23272065375E+02  0.14634275610E+03  0.15356590846E+03  0.00000000000E+00 0.  1.
</event>
<event>
12    1  0.8331241E-002  0.1900577E+03  0.7818608E-02  0.1158448E+00
         21   -1    0    0  501  502  0.00000000000E+00  0.00000000000E+00  0.23903195423E+04  0.23903195423E+04  0.00000000000E+00 0. -1.
         21   -1    0    0  502  503 -0.00000000000E+00 -0.00000000000E+00 -0.16454830365E+02  0.16454830365E+02  0.00000000000E+00 0. -1.
         -6    2    1    2    0  503 -0.78008104476E+02  0.29965375256E+01  0.84189275167E+03  0.86307897492E+03  0.17328493310E+03 0.  0.
        -24    2    3    3    0    0 -0.10415665053E+03 -0.36723876149E+02  0.54530082556E+03  0.56266206735E+03  0.83894938738E+02 0.  0.
          6    2    1    2  501    0  0.78008104476E+02 -0.29965375256E+01  0.15319719602E+04  0.15436953977E+04  0.17309867235E+03 0.  0.
         24    2    5    5    0    0  0.74442587513E+02 -0.60669173024E+02  0.79797511619E+03  0.80741263759E+03  0.76996323798E+02 0.  0.
          5    1    5    5  501    0  0.35655169629E+01  0.57672635498E+02  0.73399684403E+03  0.73628276011E+03  0.47000000000E+01 0. -1.
        -11    1    6    6    0    0 -0.42977369435E+01 -0.29396887589E+02  0.36624329032E+03  0.36744631614E+03  0.00000000000E+00 0.  1.
         12    1    6    6    0    0  0.78740324457E+02 -0.31272285435E+02  0.43173182588E+03  0.43996632145E+03  0.00000000000E+00 0. -1.
         -5    1    3    3    0  503  0.26148546058E+02  0.39720413674E+02  0.29659192610E+03  0.30041690757E+03  0.47000000000E+01 0.  1.
         13    1    4    4    0    0 -0.73079254673E+02  0.10028637957E+02  0.40286142869E+03  0.40955888681E+03  0.00000000000E+00 0. -1.
        -14    1    4    4    0    0 -0.31077395861E+02 -0.46752514105E+02  0.14243939687E+03  0.15310318054E+03  0.00000000000E+00 0.  1.
</event>
<event>
12    1  0.8331241E-002  0.1819081E+03  0.7818608E-02  0.1167848E+00
         21   -1    0    0  501  502  0.00000000000E+00  0.00000000000E+00  0.79817989530E+03  0.79817989530E+03  0.00000000000E+00 0.  1.
         21   -1    0    0  502  503 -0.00000000000E+00 -0.00000000000E+00 -0.44058189101E+02  0.44058189101E+02  0.00000000000E+00 0.  1.
         -6    2    1    2    0  503 -0.22681687857E+02  0.12585975325E+02  0.25233391839E+03  0.31106743626E+03  0.18004909829E+03 0.  0.
        -24    2    3    3    0    0  0.44613808743E+02  0.14137888911E+02  0.85054013880E+02  0.13069075054E+03  0.87496372306E+02 0.  0.
          6    2    1    2  501    0  0.22681687857E+02 -0.12585975325E+02  0.50178778781E+03  0.53117064814E+03  0.17227422242E+03 0.  0.
         24    2    5    5    0    0  0.80846873976E+01 -0.28414922679E+02  0.50208734716E+03  0.50912960160E+03  0.79047308914E+02 0.  0.
          5    1    5    5  501    0  0.14597000459E+02  0.15828947354E+02 -0.29955934949E+00  0.22041046539E+02  0.47000000000E+01 0. -1.
        -11    1    6    6    0    0  0.41318136946E+02 -0.30076210184E+02  0.30085843473E+03  0.30516809238E+03  0.00000000000E+00 0.  1.
         12    1    6    6    0    0 -0.33233449548E+02  0.16612875048E+01  0.20122891243E+03  0.20396150922E+03  0.00000000000E+00 0. -1.
         -5    1    3    3    0  503 -0.67295496600E+02 -0.15519135860E+01  0.16727990451E+03  0.18037668572E+03  0.47000000000E+01 0.  1.
         11    1    4    4    0    0  0.16777205819E+02  0.35630369933E+02  0.86968998835E+02  0.95470438645E+02  0.00000000000E+00 0. -1.
        -12    1    4    4    0    0  0.27836602924E+02 -0.21492481022E+02 -0.19149849541E+01  0.35220311898E+02  0.00000000000E+00 0.  1.
</event>
<event>
12    1  0.8331241E-002  0.1885581E+03  0.7818608E-02  0.1159842E+00
         21   -1    0    0  501  502  0.00000000000E+00  0.00000000000E+00  0.11909061409E+03  0.11909061409E+03  0.00000000000E+00 0.  1.
         21   -1    0    0  502  503 -0.00000000000E+00 -0.00000000000E+00 -0.53023270892E+03  0.53023270892E+03  0.00000000000E+00 0. -1.
         -6    2    1    2    0  503  0.72604703919E+02 -0.25192822346E+02 -0.42051610158E+03  0.46085568254E+03  0.17218608279E+03 0.  0.
        -24    2    3    3    0    0  0.10997246450E+03 -0.43096949741E+02 -0.35897133425E+03  0.38651352966E+03  0.81123361429E+02 0.  0.
          6    2    1    2  501    0 -0.72604703919E+02  0.25192822346E+02  0.93740067535E+01  0.18846764047E+03  0.17183148190E+03 0.  0.
         24    2    5    5    0    0 -0.94449277538E+02 -0.20684685763E+01  0.51499195588E+02  0.13354055322E+03  0.79094675030E+02 0.  0.
          5    1    5    5  501    0  0.21844573619E+02  0.27261290923E+02 -0.42125188834E+02  0.54927087249E+02  0.47000000000E+01 0. -1.
        -13    1    6    6    0    0 -0.10376262037E+03  0.56777875696E+01  0.28838390487E+02  0.10784512703E+03  0.00000000000E+00 0.  1.
         14    1    6    6    0    0  0.93133428369E+01 -0.77462561459E+01  0.22660805101E+02  0.25695426186E+02  0.00000000000E+00 0. -1.
         -5    1    3    3    0  503 -0.37367760581E+02  0.17904127394E+02 -0.61544767332E+02  0.74342152878E+02  0.47000000000E+01 0.  1.
         11    1    4    4    0    0  0.46068496750E+02 -0.50008935574E+02 -0.25808119200E+03  0.26688780731E+03  0.00000000000E+00 0. -1.
        -12    1    4    4    0    0  0.63903967750E+02  0.69119858334E+01 -0.10089014225E+03  0.11962572234E+03  0.00000000000E+00 0.  1.
</event>
<event>
12    1  0.8331241E-002  0.1885065E+03  0.7818608E-02  0.1159981E+00
         21   -1    0    0  501  502  0.00000000000E+00  0.00000000000E+00  0.23862625872E+03  0.23862625872E+03  0.00000000000E+00 0. -1.
         21   -1    0    0  502  503 -0.00000000000E+00 -0.00000000000E+00 -0.14842684743E+03  0.14842684743E+03  0.00000000000E+00 0. -1.
         -6    2    1    2    0  503 -0.99497492666E+01  0.74201428449E+02  0.40372558900E+02  0.19207254559E+03  0.17221228110E+03 0.  0.
        -24    2    3    3    0    0  0.33054278145E+02  0.81795861428E+02  0.72416028014E+02  0.13770439592E+03  0.77040711910E+02 0.  0.
          6    2    1    2  501    0  0.99497492666E+01 -0.74201428449E+02  0.49826852393E+02  0.19498056056E+03  0.17300246901E+03 0.  0.
         24    2    5    5    0    0 -0.20223711384E+02  0.19743561120E+02  0.96872580457E+00  0.84774819668E+02  0.79918864558E+02 0.  0.
          5    1    5    5  501    0  0.30173460651E+02 -0.93944989568E+02  0.48858126589E+02  0.11020574090E+03  0.47000000000E+01 0. -1.
        -13    1    6    6    0    0  0.26881989074E+02  0.11035534147E+02  0.17709404734E+02  0.34030095012E+02  0.00000000000E+00 0.  1.
         14    1    6    6    0    0 -0.47105700459E+02  0.87080269732E+01 -0.16740678929E+02  0.50744724656E+02  0.00000000000E+00 0. -1.
         -5    1    3    3    0  503 -0.43004027412E+02 -0.75944329798E+01 -0.32043469114E+02  0.54368149672E+02  0.47000000000E+01 0.  1.
         11    1    4    4    0    0  0.49786735443E+01  0.44262347064E+02 -0.73912842752E+01  0.45150566344E+02  0.00000000000E+00 0. -1.
        -12    1    4    4    0    0  0.28075604601E+02  0.37533514364E+02  0.79807312289E+02  0.92553829575E+02  0.00000000000E+00 0.  1.
</event>
<event>
12    1  0.8331241E-002  0.2322114E+03  0.7818608E-02  0.1125138E+00
         21   -1    0    0  501  502  0.00000000000E+00  0.00000000000E+00  0.16816881431E+03  0.16816881431E+03  0.00000000000E+00 0. -1.
         21   -1    0    0  502  503 -0.00000000000E+00 -0.00000000000E+00 -0.42888325453E+03  0.42888325453E+03  0.00000000000E+00 0.  1.
         -6    2    1    2    0  503  0.15464713817E+03  0.21899573614E+02 -0.28051989854E+03  0.36399757919E+03  0.17148613795E+03 0.  0.
        -24    2    3    3    0    0  0.42267073188E+02  0.28612941943E+02 -0.50885043241E+02  0.10820742088E+03  0.80711538119E+02 0.  0.
          6    2    1    2  501    0 -0.15464713817E+03 -0.21899573614E+02  0.19805458317E+02  0.23305448966E+03  0.17183367045E+03 0.  0.
         24    2    5    5    0    0 -0.13748758361E+03 -0.53936538671E+02  0.56910603789E+02  0.18090375368E+03  0.87609162877E+02 0.  0.
          5    1    5    5  501    0 -0.17159554559E+02  0.32036965056E+02 -0.37105145472E+02  0.52150735979E+02  0.47000000000E+01 0. -1.
        -11    1    6    6    0    0 -0.96148534874E+02 -0.56633425588E+02  0.13466335875E+01  0.11159614274E+03  0.00000000000E+00 0.  1.
         12    1    6    6    0    0 -0.41339048740E+02  0.26968869169E+01  0.55563970201E+02  0.69307610941E+02  0.00000000000E+00 0. -1.
         -5    1    3    3    0  503  0.11238006499E+03 -0.67133683285E+01 -0.22963485530E+03  0.25579015831E+03  0.47000000000E+01 0.  1.
         13    1    4    4    0    0  0.27911269261E+02  0.72284545839E+01  0.18458822204E+02  0.34234742946E+02  0.00000000000E+00 0. -1.
        -14    1    4    4    0    0  0.14355803927E+02  0.21384487359E+02 -0.69343865445E+02  0.73972677935E+02  0.00000000000E+00 0.  1.
</event>
<event>
12    1  0.8331241E-002  0.2289838E+03  0.7818608E-02  0.1127733E+00
         21   -1    0    0  503  502  0.00000000000E+00  0.00000000000E+00  0.29634143044E+03  0.29634143044E+03  0.00000000000E+00 0.  1.
         21   -1    0    0  501  503 -0.00000000000E+00 -0.00000000000E+00 -0.48369524471E+03  0.48369524471E+03  0.00000000000E+00 0. -1.
          6    2    1    2  501    0 -0.22110567111E+02  0.14411760465E+03 -0.40525373105E+03  0.46547196030E+03  0.17656386424E+03 0.  0.
         24    2    3    3    0    0  0.55320304862E+02  0.71820815240E+02 -0.23869448964E+03  0.26802212720E+03  0.81499911991E+02 0.  0.
         -6    2    1    2    0  502  0.22110567111E+02 -0.14411760465E+03  0.21789991678E+03  0.31456471484E+03  0.17381549109E+03 0.  0.
        -24    2    5    5    0    0  0.71035664205E+02 -0.71516326782E+02  0.80289625393E+02  0.15139825699E+03  0.79462932790E+02 0.  0.
          5    1    3    3  501    0 -0.77430871973E+02  0.72296789408E+02 -0.16655924141E+03  0.19744983310E+03  0.47000000000E+01 0. -1.
        -13    1    4    4    0    0  0.43137507814E+02  0.38363114202E+02 -0.51155086498E+02  0.77132457411E+02  0.00000000000E+00 0.  1.
         14    1    4    4    0    0  0.12182797048E+02  0.33457701039E+02 -0.18753940314E+03  0.19088966979E+03  0.00000000000E+00 0. -1.
         -5    1    5    5    0  502 -0.48925097093E+02 -0.72601277866E+02  0.13761029138E+03  0.16316645785E+03  0.47000000000E+01 0.  1.
         11    1    6    6    0    0  0.80259392327E+02 -0.74564733876E+02  0.51574187276E+02  0.12108412938E+03  0.00000000000E+00 0. -1.
        -12    1    6    6    0    0 -0.92237281224E+01  0.30484070942E+01  0.28715438117E+02  0.30314127606E+02  0.00000000000E+00 0.  1.
</event>
<event>
12    1  0.8331241E-002  0.2225807E+03  0.7818608E-02  0.1132033E+00
         21   -1    0    0  503  502  0.00000000000E+00  0.00000000000E+00  0.35639088780E+03  0.35639088780E+03  0.00000000000E+00 0. -1.
         21   -1    0    0  501  503 -0.00000000000E+00 -0.00000000000E+00 -0.30653520759E+03  0.30653520759E+03  0.00000000000E+00 0. -1.
          6    2    1    2  501    0  0.84978919858E+02 -0.11200131912E+03 -0.22024911591E+03  0.31313229858E+03  0.17255854383E+03 0.  0.
         24    2    3    3    0    0  0.94144012991E+02 -0.14107439040E+03 -0.20773593746E+03  0.27984698589E+03  0.79968975190E+02 0.  0.
         -6    2    1    2    0  502 -0.84978919858E+02  0.11200131912E+03  0.27010479612E+03  0.34979379681E+03  0.17214350728E+03 0.  0.
        -24    2    5    5    0    0 -0.95289652074E+02  0.12104769577E+03  0.14934058217E+03  0.22816224869E+03  0.77606312874E+02 0.  0.
          5    1    3    3  501    0 -0.91650931331E+01  0.29073071277E+02 -0.12513178456E+02  0.33285312688E+02  0.47000000000E+01 0. -1.
        -13    1    4    4    0    0  0.71374339102E+02 -0.49423372927E+02 -0.63970820859E+02  0.10783891689E+03  0.00000000000E+00 0.  1.
         14    1    4    4    0    0  0.22769673889E+02 -0.91651017469E+02 -0.14376511660E+03  0.17200806900E+03  0.00000000000E+00 0. -1.
         -5    1    5    5    0  502  0.10310732216E+02 -0.90463766546E+01  0.12076421394E+03  0.12163154812E+03  0.47000000000E+01 0.  1.
         11    1    6    6    0    0 -0.95452015955E+02  0.63024750260E+02  0.10258458512E+03  0.15364505719E+03  0.00000000000E+00 0. -1.
        -12    1    6    6    0    0  0.16236388027E+00  0.58022945513E+02  0.46755997056E+02  0.74517191498E+02  0.00000000000E+00 0.  1.
</event>
<event>
12    1  0.8331241E-002  0.2801996E+03  0.7818608E-02  0.1095583E+00
         21   -1    0    0  503  502  0.00000000000E+00  0.00000000000E+00  0.70277736543E+03  0.70277736543E+03  0.00000000000E+00 0. -1.
         21   -1    0    0  501  503 -0.00000000000E+00 -0.00000000000E+00 -0.11242254242E+03  0.11242254242E+03  0.00000000000E+00 0. -1.
          6    2    1    2  501    0 -0.21346055575E+03 -0.58911935089E+02  0.26264735765E+03  0.38403405336E+03  0.17164642352E+03 0.  0.
         24    2    3    3    0    0 -0.50004902263E+02  0.15693122723E+02  0.12134191425E+03  0.15540119562E+03  0.81724580718E+02 0.  0.
         -6    2    1    2    0  502  0.21346055575E+03  0.58911935089E+02  0.32770746536E+03  0.43116585449E+03  0.17168513701E+03 0.  0.
        -24    2    5    5    0    0  0.14157444123E+03 -0.27020016643E+02  0.15325598447E+03  0.22378378445E+03  0.76278317358E+02 0.  0.
          5    1    3    3  501    0 -0.16345565349E+03 -0.74605057813E+02  0.14130544340E+03  0.22863285775E+03  0.47000000000E+01 0. -1.
        -11    1    4    4    0    0  0.12548031957E+02  0.24295440177E+02  0.65996155896E+02  0.71436784029E+02  0.00000000000E+00 0.  1.
         12    1    4    4    0    0 -0.62552934221E+02 -0.86023174539E+01  0.55345758355E+02  0.83964411587E+02  0.00000000000E+00 0. -1.
         -5    1    5    5    0  502  0.71886114523E+02  0.85931951732E+02  0.17445148090E+03  0.20738207005E+03  0.47000000000E+01 0.  1.
         13    1    6    6    0    0  0.71583596357E+02  0.19462829331E+02  0.99227754141E+02  0.12389172767E+03  0.00000000000E+00 0. -1.
        -14    1    6    6    0    0  0.69990844870E+02 -0.46482845974E+02  0.54028230326E+02  0.99892056779E+02  0.00000000000E+00 0.  1.
</event>
<event>
12    1  0.8331241E-002  0.1772948E+03  0.7818608E-02  0.1170537E+00
         21   -1    0    0  501  502  0.00000000000E+00  0.00000000000E+00  0.56615343487E+02  0.56615343487E+02  0.00000000000E+00 0. -1.
         21   -1    0    0  502  503 -0.00000000000E+00 -0.00000000000E+00 -0.98707095113E+03  0.98707095113E+03  0.00000000000E+00 0.  1.
         -6    2    1    2    0  503  0.20279561567E+02  0.35616377844E+02 -0.81058722524E+03  0.82967260424E+03  0.17211970694E+03 0.  0.
        -24    2    3    3    0    0  0.43446755497E+01 -0.28158979868E+02 -0.20255317488E+03  0.21807738415E+03  0.75618466463E+02 0.  0.
          6    2    1    2  501    0 -0.20279561567E+02 -0.35616377844E+02 -0.11986838241E+03  0.21401369038E+03  0.17249244500E+03 0.  0.
         24    2    5    5    0    0 -0.77600790207E+02 -0.21942250031E+02 -0.10100285522E+03  0.15195965634E+03  0.79917553869E+02 0.  0.
          5    1    5    5  501    0  0.57321228639E+02 -0.13674127813E+02 -0.18865527190E+02  0.62054034038E+02  0.47000000000E+01 0. -1.
        -13    1    6    6    0    0 -0.74714170497E+02 -0.24479528100E+00 -0.35160652254E+02  0.82574443169E+02  0.00000000000E+00 0.  1.
         14    1    6    6    0    0 -0.28866197103E+01 -0.21697454750E+02 -0.65842202965E+02  0.69385213175E+02  0.00000000000E+00 0. -1.
         -5    1    3    3    0  503  0.15934886018E+02  0.63775357713E+02 -0.60803405035E+03  0.61159522009E+03  0.47000000000E+01 0.  1.
         11    1    4    4    0    0  0.11847141665E+02 -0.14846066426E+02 -0.46098999103E+01  0.19545117834E+02  0.00000000000E+00 0. -1.
        -12    1    4    4    0    0 -0.75024661149E+01 -0.13312913442E+02 -0.19794327497E+03  0.19853226632E+03  0.00000000000E+00 0.  1.
</event>
<event>
12    1  0.8331241E-002  0.1997183E+03  0.7818608E-02  0.1151071E+00
         21   -1    0    0  503  502  0.00000000000E+00  0.00000000000E+00  0.22961775475E+03  0.22961775475E+03  0.00000000000E+00 0. -1.
         21   -1    0    0  501  503 -0.00000000000E+00 -0.00000000000E+00 -0.28246623719E+03  0.28246623719E+03  0.00000000000E+00 0. -1.
          6    2    1    2  501    0 -0.90840846504E+02  0.12200598034E+02 -0.18827598520E+03  0.27077915495E+03  0.17167582872E+03 0.  0.
         24    2    3    3    0    0  0.20175815556E+02  0.18068843803E+02 -0.98859990205E+02  0.12803306665E+03  0.76717806557E+02 0.  0.
         -6    2    1    2    0  502  0.90840846504E+02 -0.12200598034E+02  0.13542750277E+03  0.24130483699E+03  0.17744436272E+03 0.  0.
        -24    2    5    5    0    0  0.11014729612E+03  0.16981163766E+02  0.14975752809E+03  0.20320294931E+03  0.80270384490E+02 0.  0.
          5    1    3    3  501    0 -0.11101666206E+03 -0.58682457694E+01 -0.89415995000E+02  0.14274608830E+03  0.47000000000E+01 0. -1.
        -13    1    4    4    0    0 -0.15847915042E+02 -0.70054613409E+01  0.25673450970E+01  0.17516396907E+02  0.00000000000E+00 0.  1.
         14    1    4    4    0    0  0.36023730598E+02  0.25074305144E+02 -0.10142733530E+03  0.11051666974E+03  0.00000000000E+00 0. -1.
         -5    1    5    5    0  502 -0.19306449618E+02 -0.29181761800E+02 -0.14330025315E+02  0.38101887671E+02  0.47000000000E+01 0.  1.
         11    1    6    6    0    0  0.10706011673E+03  0.16570631622E+02  0.83262190902E+02  0.13663472055E+03  0.00000000000E+00 0. -1.
        -12    1    6    6    0    0  0.30871793897E+01  0.41053214366E+00  0.66495337183E+02  0.66568228760E+02  0.00000000000E+00 0.  1.
</event>
<event>
12    1  0.8331241E-002  0.2138213E+03  0.7818608E-02  0.1139168E+00
         21   -1    0    0  501  502  0.00000000000E+00  0.00000000000E+00  0.83537698297E+03  0.83537698297E+03  0.00000000000E+00 0.  1.
         21   -1    0    0  502  503 -0.00000000000E+00 -0.00000000000E+00 -0.89528693029E+02  0.89528693029E+02  0.00000000000E+00 0.  1.
         -6    2    1    2    0  503  0.12249367913E+03  0.21130078484E+01  0.83025099160E+02  0.22937465820E+03  0.17524383157E+03 0.  0.
        -24    2    3    3    0    0  0.17930444371E+02 -0.43706029867E+02  0.61819918008E+02  0.11316534709E+03  0.82176490781E+02 0.  0.
          6    2    1    2  501    0 -0.12249367913E+03 -0.21130078484E+01  0.66282319079E+03  0.69553101781E+03  0.17152156791E+03 0.  0.
         24    2    5    5    0    0 -0.16522372528E+02  0.23408035122E+02  0.17258840851E+03  0.19330251084E+03  0.82208132463E+02 0.  0.
          5    1    5    5  501    0 -0.10597130660E+03 -0.25521042971E+02  0.49023478227E+03  0.50222850696E+03  0.47000000000E+01 0. -1.
        -13    1    6    6    0    0 -0.38777537161E+02 -0.14839123357E+02  0.67075529144E+02  0.78886143145E+02  0.00000000000E+00 0.  1.
         14    1    6    6    0    0  0.22255164634E+02  0.38247158480E+02  0.10551287937E+03  0.11441636770E+03  0.00000000000E+00 0. -1.
         -5    1    3    3    0  503  0.10456323476E+03  0.45819037715E+02  0.21205181152E+02  0.11620931111E+03  0.47000000000E+01 0.  1.
         11    1    4    4    0    0  0.29290054903E+02 -0.50690275616E+02  0.74509220385E+02  0.94757771611E+02  0.00000000000E+00 0. -1.
        -12    1    4    4    0    0 -0.11359610533E+02  0.69842457488E+01 -0.12689302377E+02  0.18407575477E+02  0.00000000000E+00 0.  1.
</event>
<event>
12    1  0.8331241E-002  0.1878383E+03  0.7818608E-02  0.1161574E+00
         21   -1    0    0  501  502  0.00000000000E+00  0.00000000000E+00  0.31362218846E+03  0.31362218846E+03  0.00000000000E+00 0.  1.
         21   -1    0    0  502  503 -0.00000000000E+00 -0.00000000000E+00 -0.19984072707E+03  0.19984072707E+03  0.00000000000E+00 0.  1.
         -6    2    1    2    0  503 -0.71145516579E+02  0.35241101177E+02 -0.11607572627E+03  0.21661687582E+03  0.16475945168E+03 0.  0.
        -24    2    3    3    0    0 -0.35219382221E+01 -0.27813896650E+02 -0.56516573163E+02  0.10653388976E+03  0.85844800246E+02 0.  0.
          6    2    1    2  501    0  0.71145516579E+02 -0.35241101177E+02  0.22985718765E+03  0.29684603971E+03  0.17023402960E+03 0.  0.
         24    2    5    5    0    0  0.11472765996E+03 -0.32454014418E+02  0.16253248277E+03  0.21646023896E+03  0.78883002493E+02 0.  0.
          5    1    5    5  501    0 -0.43582143385E+02 -0.27870867589E+01  0.67324704880E+02  0.80385800747E+02  0.47000000000E+01 0. -1.
        -11    1    6    6    0    0  0.59949954134E+02 -0.50989539655E+02  0.60842753364E+02  0.99477488869E+02  0.00000000000E+00 0.  1.
         12    1    6    6    0    0  0.54777705831E+02  0.18535525237E+02  0.10168972941E+03  0.11698275009E+03  0.00000000000E+00 0. -1.
         -5    1    3    3    0  503 -0.67623578357E+02  0.63054997827E+02 -0.59559153109E+02  0.11008298606E+03  0.47000000000E+01 0.  1.
         11    1    4    4    0    0 -0.16737174462E+02 -0.21574876515E+02  0.16610287261E+02  0.31961069264E+02  0.00000000000E+00 0. -1.
        -12    1    4    4    0    0  0.13215236240E+02 -0.62390201359E+01 -0.73126860424E+02  0.74572820495E+02  0.00000000000E+00 0.  1.
</event>
<event>
12    1  0.8331241E-002  0.2109307E+03  0.7818608E-02  0.1141147E+00
         21   -1    0    0  503  502  0.00000000000E+00  0.00000000000E+00  0.28282467085E+02  0.28282467085E+02  0.00000000000E+00 0.  1.
         21   -1    0    0  501  503 -0.00000000000E+00 -0.00000000000E+00 -0.21987532310E+04  0.21987532310E+04  0.00000000000E+00 0. -1.
          6    2    1    2  501    0 -0.18176065206E+02  0.11784542727E+03 -0.16818953436E+04  0.16948724513E+04  0.17205454096E+03 0.  0.
         24    2    3    3    0    0 -0.36425922556E+02 -0.68097280607E+00 -0.62158388194E+03  0.62779042508E+03  0.80168472503E+02 0.  0.
         -6    2    1    2    0  502  0.18176065206E+02 -0.11784542727E+03 -0.48857542025E+03  0.53216324679E+03  0.17399386737E+03 0.  0.
        -24    2    5    5    0    0  0.47223322619E+02 -0.12458203067E+03 -0.26863674143E+03  0.31016271204E+03  0.79274740764E+02 0.  0.
          5    1    3    3  501    0  0.18249857350E+02  0.11852640007E+03 -0.10603114617E+04  0.10670820262E+04  0.47000000000E+01 0. -1.
        -13    1    4    4    0    0 -0.21717403495E+02  0.16016025661E+02 -0.60263158731E+02  0.66028834556E+02  0.00000000000E+00 0.  1.
         14    1    4    4    0    0 -0.14708519060E+02 -0.16696998467E+02 -0.56132072321E+03  0.56176159053E+03  0.00000000000E+00 0. -1.
         -5    1    5    5    0  502 -0.29047257414E+02  0.67366034096E+01 -0.21993867882E+03  0.22200053475E+03  0.47000000000E+01 0.  1.
         11    1    6    6    0    0  0.25412283695E+02 -0.12281042769E+03 -0.25555133340E+03  0.28466589067E+03  0.00000000000E+00 0. -1.
        -12    1    6    6    0    0  0.21811038924E+02 -0.17716029820E+01 -0.13085408038E+02  0.25496821362E+02  0.00000000000E+00 0.  1.
</event>
<event>
12    1  0.8331241E-002  0.2035566E+03  0.7818608E-02  0.1147036E+00
         21   -1    0    0  501  502  0.00000000000E+00  0.00000000000E+00  0.26543311471E+02  0.26543311471E+02  0.00000000000E+00 0. -1.
         21   -1    0    0  502  503 -0.00000000000E+00 -0.00000000000E+00 -0.15517176550E+04  0.15517176550E+04  0.00000000000E+00 0. -1.
         -6    2    1    2    0  503 -0.10094631774E+03  0.41070028774E+02 -0.74697863980E+03  0.77388304267E+03  0.17041411060E+03 0.  0.
        -24    2    3    3    0    0 -0.80986470175E+02  0.72956973318E+02 -0.35276848048E+03  0.37785411386E+03  0.80290735661E+02 0.  0.
          6    2    1    2  501    0  0.10094631774E+03 -0.41070028774E+02 -0.77819570375E+03  0.80437792382E+03  0.17192552068E+03 0.  0.
         24    2    5    5    0    0  0.72484155440E+02 -0.82703679946E+01 -0.73469543469E+03  0.74273154648E+03  0.80934644073E+02 0.  0.
          5    1    5    5  501    0  0.28462162304E+02 -0.32799660779E+02 -0.43500269066E+02  0.61646377339E+02  0.47000000000E+01 0. -1.
        -11    1    6    6    0    0  0.55955944847E+02 -0.16539103261E+02 -0.70719514904E+03  0.70959818808E+03  0.00000000000E+00 0.  1.
         12    1    6    6    0    0  0.16528210593E+02  0.82687352660E+01 -0.27500285649E+02  0.33133358403E+02  0.00000000000E+00 0. -1.
         -5    1    3    3    0  503 -0.19959847569E+02 -0.31886944544E+02 -0.39421015932E+03  0.39602892881E+03  0.47000000000E+01 0.  1.
         11    1    4    4    0    0 -0.72021747384E+02  0.49382742151E+02 -0.15034979066E+03  0.17387020122E+03  0.00000000000E+00 0. -1.
        -12    1    4    4    0    0 -0.89647227906E+01  0.23574231167E+02 -0.20241868982E+03  0.20398391264E+03  0.00000000000E+00 0.  1.
</event>
<event>
12    1  0.8331241E-002  0.3425059E+03  0.7818608E-02  0.1065746E+00
         21   -1    0    0  501  502  0.00000000000E+00  0.00000000000E+00  0.15081374842E+04  0.15081374842E+04  0.00000000000E+00 0. -1.
         21   -1    0    0  502  503 -0.00000000000E+00 -0.00000000000E+00 -0.79323674424E+02  0.79323674424E+02  0.00000000000E+00 0.  1.
         -6    2    1    2    0  503  0.29045345426E+03  0.56893959785E+02  0.60282545074E+03  0.69327603802E+03  0.17214240933E+03 0.  0.
        -24    2    3    3    0    0  0.13575193944E+03  0.69767639202E+02  0.41699314258E+03  0.45109010312E+03  0.79390727647E+02 0.  0.
          6    2    1    2  501    0 -0.29045345426E+03 -0.56893959785E+02  0.82598835902E+03  0.89418512058E+03  0.17236626375E+03 0.  0.
         24    2    5    5    0    0 -0.25424580296E+03 -0.44396267174E+02  0.52134546001E+03  0.58710765112E+03  0.79261267147E+02 0.  0.
          5    1    5    5  501    0 -0.36207651304E+02 -0.12497692612E+02  0.30464289901E+03  0.30707746947E+03  0.47000000000E+01 0. -1.
        -13    1    6    6    0    0 -0.15617370685E+03 -0.25979677105E+02  0.23061527479E+03  0.27972946806E+03  0.00000000000E+00 0.  1.
         14    1    6    6    0    0 -0.98072096109E+02 -0.18416590069E+02  0.29073018521E+03  0.30737818306E+03  0.00000000000E+00 0. -1.
         -5    1    3    3    0  503  0.15470151482E+03 -0.12873679417E+02  0.18583230816E+03  0.24218593490E+03  0.47000000000E+01 0.  1.
         13    1    4    4    0    0  0.25750101410E+02  0.30492217421E+02  0.20687121387E+03  0.21068588508E+03  0.00000000000E+00 0. -1.
        -14    1    4    4    0    0  0.11000183804E+03  0.39275421782E+02  0.21012192871E+03  0.24040421804E+03  0.00000000000E+00 0.  1.
</event>
<event>
12    1  0.8331241E-002  0.2605982E+03  0.7818608E-02  0.1107010E+00
         21   -1    0    0  503  502  0.00000000000E+00  0.00000000000E+00  0.75967466170E+03  0.75967466170E+03  0.00000000000E+00 0. -1.
         21   -1    0    0  501  503 -0.00000000000E+00 -0.00000000000E+00 -0.21088582739E+03  0.21088582739E+03  0.00000000000E+00 0.  1.
          6    2    1    2  501    0 -0.14202631209E+01  0.19378177188E+03 -0.95048620346E+02  0.27598284869E+03  0.17198517459E+03 0.  0.
         24    2    3    3    0    0  0.43401137558E+02  0.11768434301E+03 -0.11229805054E+03  0.18587508275E+03  0.78774557460E+02 0.  0.
         -6    2    1    2    0  502  0.14202631209E+01 -0.19378177188E+03  0.64383745466E+03  0.69457764040E+03  0.17423558266E+03 0.  0.
        -24    2    5    5    0    0  0.40218915955E+02 -0.78541889269E+02  0.18458365479E+03  0.21947585268E+03  0.79448944122E+02 0.  0.
          5    1    3    3  501    0 -0.44821400679E+02  0.76097428871E+02  0.17249430190E+02  0.90107765933E+02  0.47000000000E+01 0. -1.
        -13    1    4    4    0    0  0.34432757105E+02  0.12886962570E+03 -0.10517150733E+03  0.16986477311E+03  0.00000000000E+00 0.  1.
         14    1    4    4    0    0  0.89683804530E+01 -0.11185282689E+02 -0.71265432025E+01  0.16010309641E+02  0.00000000000E+00 0. -1.
         -5    1    5    5    0  502 -0.38798652834E+02 -0.11523988261E+03  0.45925379987E+03  0.47510178773E+03  0.47000000000E+01 0.  1.
         13    1    6    6    0    0  0.11456340847E+02 -0.87039270155E+02  0.12471793466E+03  0.15251768921E+03  0.00000000000E+00 0. -1.
        -14    1    6    6    0    0  0.28762575108E+02  0.84973808866E+01  0.59865720126E+02  0.66958163468E+02  0.00000000000E+00 0.  1.
</event>
<event>
12    1  0.8331241E-002  0.3301844E+03  0.7818608E-02  0.1071077E+00
         21   -1    0    0  503  502  0.00000000000E+00  0.00000000000E+00  0.92211925805E+03  0.92211925805E+03  0.00000000000E+00 0.  1.
         21   -1    0    0  501  503 -0.00000000000E+00 -0.00000000000E+00 -0.11826813488E+03  0.11826813488E+03  0.00000000000E+00 0. -1.
          6    2    1    2  501    0 -0.26939478965E+03 -0.82365881196E+02  0.41788717149E+03  0.53258937900E+03  0.17223259693E+03 0.  0.
         24    2    3    3    0    0 -0.48889286853E+02 -0.31201988890E+01  0.87471573308E+02  0.12749789248E+03  0.78768892584E+02 0.  0.
         -6    2    1    2    0  502  0.26939478965E+03  0.82365881196E+02  0.38596395168E+03  0.50779801393E+03  0.17185156350E+03 0.  0.
        -24    2    5    5    0    0  0.52459956129E+02  0.27229467123E+02  0.67804784881E+02  0.11876319342E+03  0.77548155238E+02 0.  0.
          5    1    3    3  501    0 -0.22050550280E+03 -0.79245682307E+02  0.33041559818E+03  0.40509148652E+03  0.47000000000E+01 0. -1.
        -11    1    4    4    0    0 -0.68320033120E+02  0.59846629582E+00  0.48482091069E+02  0.83776477855E+02  0.00000000000E+00 0.  1.
         12    1    4    4    0    0  0.19430746267E+02 -0.37186651848E+01  0.38989482239E+02  0.43721414622E+02  0.00000000000E+00 0. -1.
         -5    1    5    5    0  502  0.21693483352E+03  0.55136414073E+02  0.31815916680E+03  0.38903482052E+03  0.47000000000E+01 0.  1.
         11    1    6    6    0    0  0.93588788099E+01  0.21162886987E+02  0.71431866714E+02  0.75086403432E+02  0.00000000000E+00 0. -1.
        -12    1    6    6    0    0  0.43101077320E+02  0.60665801364E+01 -0.36270818334E+01  0.43676789984E+02  0.00000000000E+00 0.  1.
</event>
<event>
12    1  0.8331241E-002  0.2242867E+03  0.7818608E-02  0.1130836E+00
         21   -1    0    0  501  502  0.00000000000E+00  0.00000000000E+00  0.88222955676E+02  0.88222955676E+02  0.00000000000E+00 0. -1.
         21   -1    0    0  502  503 -0.00000000000E+00 -0.00000000000E+00 -0.82923305905E+03  0.82923305905E+03  0.00000000000E+00 0. -1.
         -6    2    1    2    0  503  0.28735909582E+02 -0.14107148433E+03 -0.62798910425E+03  0.66683942804E+03  0.17198136976E+03 0.  0.
        -24    2    3    3    0    0 -0.45919999587E+02 -0.10960454739E+03 -0.38449184209E+03  0.41017490074E+03  0.79294825771E+02 0.  0.
          6    2    1    2  501    0 -0.28735909582E+02  0.14107148433E+03 -0.11302099913E+03  0.25061658669E+03  0.17119582674E+03 0.  0.
         24    2    5    5    0    0 -0.19397844851E+02  0.16734673261E+03 -0.12187730423E+03  0.22098362759E+03  0.74822998331E+02 0.  0.
          5    1    5    5  501    0 -0.93380647312E+01 -0.26275248281E+02  0.88563050947E+01  0.29632959101E+02  0.47000000000E+01 0. -1.
        -11    1    6    6    0    0 -0.22779125949E+02  0.75907150329E+01 -0.10500313837E+02  0.26206184850E+02  0.00000000000E+00 0.  1.
         12    1    6    6    0    0  0.33812810985E+01  0.15975601757E+03 -0.11137699039E+03  0.19477744274E+03  0.00000000000E+00 0. -1.
         -5    1    3    3    0  503  0.74655909169E+02 -0.31466936935E+02 -0.24349726216E+03  0.25666452730E+03  0.47000000000E+01 0.  1.
         11    1    4    4    0    0 -0.56633670148E+02 -0.44293982621E+02 -0.25224493148E+03  0.26229150758E+03  0.00000000000E+00 0. -1.
        -12    1    4    4    0    0  0.10713670561E+02 -0.65310564769E+02 -0.13224691061E+03  0.14788339316E+03  0.00000000000E+00 0.  1.
</event>
<event>
12    1  0.8331241E-002  0.1738429E+03  0.7818608E-02  0.1174244E+00
         21   -1    0    0  501  502  0.00000000000E+00  0.00000000000E+00  0.15822592807E+04  0.15822592807E+04  0.00000000000E+00 0. -1.
         21   -1    0    0  502  503 -0.00000000000E+00 -0.00000000000E+00 -0.40224910933E+03  0.40224910933E+03  0.00000000000E+00 0. -1.
         -6    2    1    2    0  503 -0.10711017018E+02  0.10953926762E+02 -0.37870166631E+03  0.41613217618E+03  0.17180314777E+03 0.  0.
        -24    2    3    3    0    0 -0.53120923899E+02  0.32089527241E+02 -0.32909613024E+03  0.34737090060E+03  0.92253505803E+02 0.  0.
          6    2    1    2  501    0  0.10711017018E+02 -0.10953926762E+02  0.15587118377E+04  0.15683762139E+04  0.17316651182E+03 0.  0.
         24    2    5    5    0    0 -0.28084208971E+02  0.32082996039E+00  0.40558640663E+03  0.41453370317E+03  0.80926090315E+02 0.  0.
          5    1    5    5  501    0  0.38795225989E+02 -0.11274756722E+02  0.11531254311E+04  0.11538425107E+04  0.47000000000E+01 0. -1.
        -13    1    6    6    0    0  0.10366889329E+02 -0.31244733488E+02  0.11108998671E+03  0.11586496844E+03  0.00000000000E+00 0.  1.
         14    1    6    6    0    0 -0.38451098300E+02  0.31565563449E+02  0.29449641992E+03  0.29866873473E+03  0.00000000000E+00 0. -1.
         -5    1    3    3    0  503  0.42409906881E+02 -0.21135600479E+02 -0.49605536074E+02  0.68761275573E+02  0.47000000000E+01 0.  1.
         13    1    4    4    0    0  0.23844214554E+02 -0.59644144023E+01 -0.57684252048E+02  0.62702422132E+02  0.00000000000E+00 0. -1.
        -14    1    4    4    0    0 -0.76965138454E+02  0.38053941643E+02 -0.27141187819E+03  0.28466847847E+03  0.00000000000E+00 0.  1.
</event>
<event>
12    1  0.8331241E-002  0.2120151E+03  0.7818608E-02  0.1140713E+00
         21   -1    0    0  501  502  0.00000000000E+00  0.00000000000E+00  0.22291917983E+03  0.22291917983E+03  0.00000000000E+00 0. -1.
         21   -1    0    0  502  503 -0.00000000000E+00 -0.00000000000E+00 -0.19948623666E+03  0.19948623666E+03  0.00000000000E+00 0. -1.
         -6    2    1    2    0  503 -0.79334253555E+02 -0.86550783205E+02 -0.58205884341E+01  0.20838161486E+03  0.17205829332E+03 0.  0.
        -24    2    3    3    0    0 -0.64627225334E+02  0.89027108282E+00  0.39985446603E+02  0.10846906560E+03  0.77390124786E+02 0.  0.
          6    2    1    2  501    0  0.79334253555E+02  0.86550783205E+02  0.29253531602E+02  0.21402380162E+03  0.17653740876E+03 0.  0.
         24    2    5    5    0    0 -0.17354916429E+02  0.48819755394E+02 -0.23202397303E+02  0.97635913384E+02  0.79434619032E+02 0.  0.
          5    1    5    5  501    0  0.96689169984E+02  0.37731027810E+02  0.52455928905E+02  0.11638788824E+03  0.47000000000E+01 0. -1.
        -13    1    6    6    0    0 -0.31944321419E+02  0.79440617014E+01  0.18234327382E+02  0.37630286769E+02  0.00000000000E+00 0.  1.
         14    1    6    6    0    0  0.14589404990E+02  0.40875693693E+02 -0.41436724685E+02  0.60005626615E+02  0.00000000000E+00 0. -1.
         -5    1    3    3    0  503 -0.14707028221E+02 -0.87441054288E+02 -0.45806035037E+02  0.99912549261E+02  0.47000000000E+01 0.  1.
         13    1    4    4    0    0 -0.20239088564E+02 -0.55353624272E+01 -0.23008790484E+02  0.31139450584E+02  0.00000000000E+00 0. -1.
        -14    1    4    4    0    0 -0.44388136770E+02  0.64256335100E+01  0.62994237087E+02  0.77329615014E+02  0.00000000000E+00 0.  1.
</event>
<event>
12    1  0.8331241E-002  0.1880869E+03  0.7818608E-02  0.1160567E+00
         21   -1    0    0  501  502  0.00000000000E+00  0.00000000000E+00  0.26699268404E+03  0.26699268404E+03  0.00000000000E+00 0.  1.
         21   -1    0    0  502  503 -0.00000000000E+00 -0.00000000000E+00 -0.36894998824E+03  0.36894998824E+03  0.00000000000E+00 0.  1.
         -6    2    1    2    0  503  0.77122182260E+02 -0.16587901747E+01 -0.30621303400E+03  0.35936486313E+03  0.17154037447E+03 0.  0.
        -24    2    3    3    0    0  0.24237768439E+02 -0.27949077079E+02 -0.28015079960E+03  0.29464028918E+03  0.83425470708E+02 0.  0.
          6    2    1    2  501    0 -0.77122182260E+02  0.16587901747E+01  0.20425572980E+03  0.27657780915E+03  0.16977720334E+03 0.  0.
         24    2    5    5    0    0 -0.11412919228E+03 -0.21597375679E+02  0.17402638950E+03  0.22322735408E+03  0.77803265978E+02 0.  0.
          5    1    5    5  501    0  0.37007010024E+02  0.23256165854E+02  0.30229340301E+02  0.53350455070E+02  0.47000000000E+01 0. -1.
        -13    1    6    6    0    0 -0.67616358095E+02 -0.22148497232E+02  0.15924761086E+03  0.17441997986E+03  0.00000000000E+00 0.  1.
         14    1    6    6    0    0 -0.46512834190E+02  0.55112155335E+00  0.14778778645E+02  0.48807374213E+02  0.00000000000E+00 0. -1.
         -5    1    3    3    0  503  0.52884413821E+02  0.26290286904E+02 -0.26062234406E+02  0.64724573950E+02  0.47000000000E+01 0.  1.
         11    1    4    4    0    0 -0.11657115724E+02 -0.60145324087E+01 -0.19314110578E+01  0.13258706414E+02  0.00000000000E+00 0. -1.
        -12    1    4    4    0    0  0.35894884163E+02 -0.21934544670E+02 -0.27821938854E+03  0.28138158276E+03  0.00000000000E+00 0.  1.
</event>
<event>
12    1  0.8331241E-002  0.1930424E+03  0.7818608E-02  0.1156345E+00
         21   -1    0    0  503  502  0.00000000000E+00  0.00000000000E+00  0.54446719393E+03  0.54446719393E+03  0.00000000000E+00 0.  1.
         21   -1    0    0  501  503 -0.00000000000E+00 -0.00000000000E+00 -0.68121852128E+02  0.68121852128E+02  0.00000000000E+00 0. -1.
          6    2    1    2  501    0 -0.35107981920E+02 -0.79000558049E+02  0.21039333930E+03  0.28553588694E+03  0.17260280109E+03 0.  0.
         24    2    3    3    0    0 -0.38420169896E+02  0.31512435656E+01  0.17512600167E+03  0.19594925735E+03  0.78999716481E+02 0.  0.
         -6    2    1    2    0  502  0.35107981920E+02  0.79000558049E+02  0.26595200250E+03  0.32705315912E+03  0.16958668193E+03 0.  0.
        -24    2    5    5    0    0  0.11086204017E+02  0.21019845973E+02  0.40715729137E+02  0.93189357673E+02  0.80384998228E+02 0.  0.
          5    1    3    3  501    0  0.33121879759E+01 -0.82151801614E+02  0.35267337626E+02  0.89586629588E+02  0.47000000000E+01 0. -1.
        -11    1    4    4    0    0 -0.97840550562E+01 -0.31042847606E+02  0.30511685513E+02  0.44613328431E+02  0.00000000000E+00 0.  1.
         12    1    4    4    0    0 -0.28636114840E+02  0.34194091171E+02  0.14461431616E+03  0.15133592892E+03  0.00000000000E+00 0. -1.
         -5    1    5    5    0  502  0.24021777903E+02  0.57980712075E+02  0.22523627337E+03  0.23386380145E+03  0.47000000000E+01 0.  1.
         11    1    6    6    0    0  0.33716657109E+02  0.13421240588E+02 -0.95652986836E+01  0.37529156724E+02  0.00000000000E+00 0. -1.
        -12    1    6    6    0    0 -0.22630453093E+02  0.75986053857E+01  0.50281027820E+02  0.55660200949E+02  0.00000000000E+00 0.  1.
</event>
<event>
12    1  0.8331241E-002  0.1889029E+03  0.7818608E-02  0.1162310E+00
         21   -1    0    0  501  502  0.00000000000E+00  0.00000000000E+00  0.31420639375E+03  0.31420639375E+03  0.00000000000E+00 0. -1.
         21   -1    0    0  502  503 -0.00000000000E+00 -0.00000000000E+00 -0.19634120037E+03  0.19634120037E+03  0.00000000000E+00 0. -1.
         -6    2    1    2    0  503  0.73342757313E+02 -0.28440898676E+02 -0.11485436544E+03  0.21080990863E+03  0.15830744628E+03 0.  0.
        -24    2    3    3    0    0  0.91830215712E+02 -0.50178050086E+02 -0.52657002085E+02  0.14221769422E+03  0.80638002537E+02 0.  0.
          6    2    1    2  501    0 -0.73342757313E+02  0.28440898676E+02  0.23271955882E+03  0.29973768549E+03  0.17174470087E+03 0.  0.
         24    2    5    5    0    0 -0.11647299343E+03  0.23626808335E+02  0.19477131198E+03  0.24189693712E+03  0.80337288656E+02 0.  0.
          5    1    5    5  501    0  0.43130236118E+02  0.48140903413E+01  0.37948246842E+02  0.57840748368E+02  0.47000000000E+01 0. -1.
        -11    1    6    6    0    0 -0.47224759900E+02 -0.54208531467E+01  0.19803247482E+02  0.51494972641E+02  0.00000000000E+00 0.  1.
         12    1    6    6    0    0 -0.69248233531E+02  0.29047661482E+02  0.17496806450E+03  0.19040196448E+03  0.00000000000E+00 0. -1.
         -5    1    3    3    0  503 -0.18487458400E+02  0.21737151410E+02 -0.62197363351E+02  0.68592214407E+02  0.47000000000E+01 0.  1.
         13    1    4    4    0    0  0.12729558103E+02 -0.13876125312E+02 -0.51868753504E+02  0.55181120804E+02  0.00000000000E+00 0. -1.
        -14    1    4    4    0    0  0.79100657609E+02 -0.36301924774E+02 -0.78824858123E+00  0.87036573418E+02  0.00000000000E+00 0.  1.
</event>
<event>
12    1  0.8331241E-002  0.2334537E+03  0.7818608E-02  0.1124304E+00
         21   -1    0    0  503  502  0.00000000000E+00  0.00000000000E+00  0.29832760550E+03  0.29832760550E+03  0.00000000000E+00 0.  1.
         21   -1    0    0  501  503 -0.00000000000E+00 -0.00000000000E+00 -0.37553021424E+03  0.37553021424E+03  0.00000000000E+00 0.  1.
          6    2    1    2  501    0 -0.14215142285E+03 -0.70723268009E+02 -0.28026691904E+03  0.36476042329E+03  0.17114851105E+03 0.  0.
         24    2    3    3    0    0 -0.29348669216E+02  0.22223560990E+02 -0.94713487006E+02  0.12850687223E+03  0.78664735058E+02 0.  0.
         -6    2    1    2    0  502  0.14215142285E+03  0.70723268009E+02  0.20306431029E+03  0.30909739645E+03  0.17057924470E+03 0.  0.
        -24    2    5    5    0    0  0.74209138378E+01  0.43473076318E+02  0.10997635254E+03  0.14301807539E+03  0.80089908504E+02 0.  0.
          5    1    3    3  501    0 -0.11280275363E+03 -0.92946828999E+02 -0.18555343203E+03  0.23625355106E+03  0.47000000000E+01 0. -1.
        -13    1    4    4    0    0 -0.38415135605E+02 -0.18339288587E+02 -0.31932246469E+02  0.53213912786E+02  0.00000000000E+00 0.  1.
         14    1    4    4    0    0  0.90664663887E+01  0.40562849576E+02 -0.62781240537E+02  0.75292959444E+02  0.00000000000E+00 0. -1.
         -5    1    5    5    0  502  0.13473050901E+03  0.27250191692E+02  0.93087957757E+02  0.16607932106E+03  0.47000000000E+01 0.  1.
         11    1    6    6    0    0 -0.57782860336E+00 -0.17919791363E+02  0.62436504288E+02  0.64959755819E+02  0.00000000000E+00 0. -1.
        -12    1    6    6    0    0  0.79987424412E+01  0.61392867681E+02  0.47539848250E+02  0.78058319571E+02  0.00000000000E+00 0.  1.
</event>
<event>
12    1  0.8331241E-002  0.2641556E+03  0.7818608E-02  0.1105610E+00
         21   -1    0    0  501  502  0.00000000000E+00  0.00000000000E+00  0.21722695901E+03  0.21722695901E+03  0.00000000000E+00 0. -1.
         21   -1    0    0  502  503 -0.00000000000E+00 -0.00000000000E+00 -0.35212552138E+03  0.35212552138E+03  0.00000000000E+00 0.  1.
         -6    2    1    2    0  503 -0.12586262503E+03  0.14464739958E+03 -0.16231165584E+03  0.31003750593E+03  0.18169730564E+03 0.  0.
        -24    2    3    3    0    0 -0.47379966400E+02 -0.72028299872E+01 -0.67844669606E+02  0.11468111004E+03  0.79070322064E+02 0.  0.
          6    2    1    2  501    0  0.12586262503E+03 -0.14464739958E+03  0.27413093480E+02  0.25931497446E+03  0.17241956879E+03 0.  0.
         24    2    5    5    0    0  0.14093721198E+03 -0.15171316579E+03  0.53463511318E+02  0.22804386169E+03  0.79154743498E+02 0.  0.
          5    1    5    5  501    0 -0.15074586956E+02  0.70657662082E+01 -0.26050417838E+02  0.31271112765E+02  0.47000000000E+01 0. -1.
        -11    1    6    6    0    0  0.47269850194E+02 -0.65513188674E+02 -0.16988723911E+02  0.82553215369E+02  0.00000000000E+00 0.  1.
         12    1    6    6    0    0  0.93667361789E+02 -0.86199977115E+02  0.70452235229E+02  0.14549064632E+03  0.00000000000E+00 0. -1.
         -5    1    3    3    0  503 -0.78482658627E+02  0.15185022957E+03 -0.94466986238E+02  0.19535639589E+03  0.47000000000E+01 0.  1.
         11    1    4    4    0    0 -0.49740702783E+02 -0.12177125305E+01 -0.83810864060E+02  0.97467334382E+02  0.00000000000E+00 0. -1.
        -12    1    4    4    0    0  0.23607363829E+01 -0.59851174567E+01  0.15966194453E+02  0.17213775663E+02  0.00000000000E+00 0.  1.
</event>
<event>
12    1  0.8331241E-002  0.1966097E+03  0.7818608E-02  0.1153206E+00
         21   -1    0    0  503  502  0.00000000000E+00  0.00000000000E+00  0.10949984444E+03  0.10949984444E+03  0.00000000000E+00 0. -1.
         21   -1    0    0  501  503 -0.00000000000E+00 -0.00000000000E+00 -0.39034258574E+03  0.39034258574E+03  0.00000000000E+00 0.  1.
          6    2    1    2  501    0 -0.94399883555E+02  0.21033253501E+02 -0.22160651455E+03  0.29450291840E+03  0.16813323851E+03 0.  0.
         24    2    3    3    0    0 -0.15852396582E+02  0.42506444508E+02 -0.52761526461E+02  0.10698885055E+03  0.81269546358E+02 0.  0.
         -6    2    1    2    0  502  0.94399883555E+02 -0.21033253501E+02 -0.59236226749E+02  0.20533951177E+03  0.17117724372E+03 0.  0.
        -24    2    5    5    0    0  0.10587775912E+03 -0.28122450362E+02  0.88597273887E+01  0.13576115803E+03  0.79697083816E+02 0.  0.
          5    1    3    3  501    0 -0.78547486973E+02 -0.21473191007E+02 -0.16884498809E+03  0.18751406786E+03  0.47000000000E+01 0. -1.
        -11    1    4    4    0    0  0.63581875176E+01 -0.22975781777E+02 -0.15589477839E+02  0.28484116908E+02  0.00000000000E+00 0.  1.
         12    1    4    4    0    0 -0.22210584100E+02  0.65482226284E+02 -0.37172048623E+02  0.78504733641E+02  0.00000000000E+00 0. -1.
         -5    1    5    5    0  502 -0.11477875567E+02  0.70891968608E+01 -0.68095954137E+02  0.69578353743E+02  0.47000000000E+01 0.  1.
         11    1    6    6    0    0  0.50784050747E+02  0.25422953489E+02  0.14847584834E+02  0.58700912682E+02  0.00000000000E+00 0. -1.
        -12    1    6    6    0    0  0.55093708375E+02 -0.53545403850E+02 -0.59878574456E+01  0.77060245346E+02  0.00000000000E+00 0.  1.
</event>
<event>
12    1  0.8331241E-002  0.4408068E+03  0.7818608E-02  0.1030595E+00
         21   -1    0    0  501  502  0.00000000000E+00  0.00000000000E+00  0.55098821791E+03  0.55098821791E+03  0.00000000000E+00 0.  1.
         21   -1    0    0  502  503 -0.00000000000E+00 -0.00000000000E+00 -0.35199916657E+03  0.35199916657E+03  0.00000000000E+00 0.  1.
         -6    2    1    2    0  503 -0.20123827973E+03  0.35131223419E+03  0.11353253288E+03  0.45519261170E+03  0.17433745038E+03 0.  0.
        -24    2    3    3    0    0 -0.12397073645E+03  0.18826758948E+03  0.13340074093E+03  0.27361435005E+03  0.79092516259E+02 0.  0.
          6    2    1    2  501    0  0.20123827973E+03 -0.35131223419E+03  0.85456518464E+02  0.44779477279E+03  0.17117304363E+03 0.  0.
         24    2    5    5    0    0  0.55700090027E+02 -0.23887024107E+03  0.32988759084E+02  0.25648475671E+03  0.67340033397E+02 0.  0.
          5    1    5    5  501    0  0.14553818970E+03 -0.11244199312E+03  0.52467759380E+02  0.19131001608E+03  0.47000000000E+01 0. -1.
        -13    1    6    6    0    0  0.25943032545E+02 -0.16252321162E+03 -0.81780451913E+01  0.16478384531E+03  0.00000000000E+00 0.  1.
         14    1    6    6    0    0  0.29757057482E+02 -0.76347029452E+02  0.41166804275E+02  0.91700911394E+02  0.00000000000E+00 0. -1.
         -5    1    3    3    0  503 -0.77267543279E+02  0.16304464471E+03 -0.19868208052E+02  0.18157826165E+03  0.47000000000E+01 0.  1.
         13    1    4    4    0    0  0.62778295146E+01 -0.15107652603E+01  0.11410347546E+02  0.13110666887E+02  0.00000000000E+00 0. -1.
        -14    1    4    4    0    0 -0.13024856596E+03  0.18977835474E+03  0.12199039338E+03  0.26050368316E+03  0.00000000000E+00 0.  1.
</event>
<event>
12    1  0.8331241E-002  0.2229697E+03  0.7818608E-02  0.1131704E+00
         21   -1    0    0  503  502  0.00000000000E+00  0.00000000000E+00  0.12520943098E+03  0.12520943098E+03  0.00000000000E+00 0. -1.
         21   -1    0    0  501  503 -0.00000000000E+00 -0.00000000000E+00 -0.42017641028E+03  0.42017641028E+03  0.00000000000E+00 0. -1.
          6    2    1    2  501    0  0.10773700238E+03 -0.93660481704E+02 -0.21163193472E+03  0.30735176723E+03  0.17116508262E+03 0.  0.
         24    2    3    3    0    0  0.51234271932E+02 -0.34519208593E+02 -0.20084231913E+03  0.22471548864E+03  0.79642245698E+02 0.  0.
         -6    2    1    2    0  502 -0.10773700238E+03  0.93660481704E+02 -0.83335044591E+02  0.23803407404E+03  0.17127738680E+03 0.  0.
        -24    2    5    5    0    0 -0.71048983056E+02  0.13387998648E+02  0.73260044362E+01  0.11141970633E+03  0.84459955703E+02 0.  0.
          5    1    3    3  501    0  0.56502730451E+02 -0.59141273111E+02 -0.10789615587E+02  0.82636278584E+02  0.47000000000E+01 0. -1.
        -11    1    4    4    0    0  0.35415930145E+02  0.21859689636E+02 -0.71393674199E+02  0.82638918523E+02  0.00000000000E+00 0.  1.
         12    1    4    4    0    0  0.15818341787E+02 -0.56378898228E+02 -0.12944864493E+03  0.14207657012E+03  0.00000000000E+00 0. -1.
         -5    1    5    5    0  502 -0.36688019328E+02  0.80272483056E+02 -0.90661049027E+02  0.12661436770E+03  0.47000000000E+01 0.  1.
         13    1    6    6    0    0 -0.15961651850E+02  0.43095163322E+02 -0.87943146581E+01  0.46790035283E+02  0.00000000000E+00 0. -1.
        -14    1    6    6    0    0 -0.55087331206E+02 -0.29707164673E+02  0.16120319094E+02  0.64629671050E+02  0.00000000000E+00 0.  1.
</event>
<event>
12    1  0.8331241E-002  0.1754398E+03  0.7818608E-02  0.1172585E+00
         21   -1    0    0  501  502  0.00000000000E+00  0.00000000000E+00  0.61902577856E+02  0.61902577856E+02  0.00000000000E+00 0.  1.
         21   -1    0    0  502  503 -0.00000000000E+00 -0.00000000000E+00 -0.15066349762E+04  0.15066349762E+04  0.00000000000E+00 0.  1.
         -6    2    1    2    0  503 -0.18350631294E+02 -0.20621652404E+02 -0.13645673032E+04  0.13756501402E+04  0.17206796635E+03 0.  0.
        -24    2    3    3    0    0  0.56748210311E+02 -0.17984630104E+02 -0.96079334067E+03  0.96491629363E+03  0.66300859325E+02 0.  0.
          6    2    1    2  501    0  0.18350631294E+02  0.20621652404E+02 -0.80165095126E+02  0.19288741384E+03  0.17325447678E+03 0.  0.
         24    2    5    5    0    0 -0.37692094784E+02 -0.32089650211E+02 -0.56719647224E+02  0.11232037593E+03  0.83356516296E+02 0.  0.
          5    1    5    5  501    0  0.56042726078E+02  0.52711302615E+02 -0.23445447902E+02  0.80567037906E+02  0.47000000000E+01 0. -1.
        -11    1    6    6    0    0 -0.96437738867E+01  0.28403699516E+02 -0.21546388108E+02  0.36932632745E+02  0.00000000000E+00 0.  1.
         12    1    6    6    0    0 -0.28048320897E+02 -0.60493349727E+02 -0.35173259116E+02  0.75387743189E+02  0.00000000000E+00 0. -1.
         -5    1    3    3    0  503 -0.75098841605E+02 -0.26370223003E+01 -0.40377396256E+03  0.41073384660E+03  0.47000000000E+01 0.  1.
         11    1    4    4    0    0  0.34709789757E+02 -0.27220443559E+02 -0.25996651579E+03  0.26368221667E+03  0.00000000000E+00 0. -1.
        -12    1    4    4    0    0  0.22038420554E+02  0.92358134556E+01 -0.70082682487E+03  0.70123407696E+03  0.00000000000E+00 0.  1.
</event>
<event>
12    1  0.8331241E-002  0.1933787E+03  0.7818608E-02  0.1155768E+00
         21   -1    0    0  503  502  0.00000000000E+00  0.00000000000E+00  0.22952755887E+03  0.22952755887E+03  0.00000000000E+00 0. -1.
         21   -1    0    0  501  503 -0.00000000000E+00 -0.00000000000E+00 -0.28584744886E+03  0.28584744886E+03  0.00000000000E+00 0. -1.
          6    2    1    2  501    0  0.87379096414E+02  0.20586211841E+02 -0.19803604636E+03  0.27679160724E+03  0.17127877736E+03 0.  0.
         24    2    3    3    0    0  0.97879241712E+02 -0.37854632446E+02 -0.12415724501E+03  0.18189296330E+03  0.81588660094E+02 0.  0.
         -6    2    1    2    0  502 -0.87379096414E+02 -0.20586211841E+02  0.14171615636E+03  0.23858340049E+03  0.16964572321E+03 0.  0.
        -24    2    5    5    0    0 -0.83338758561E+01 -0.63596698105E+01  0.13611021064E+03  0.15793566017E+03  0.79421561461E+02 0.  0.
          5    1    3    3  501    0 -0.10500145298E+02  0.58440844287E+02 -0.73878801354E+02  0.94898643941E+02  0.47000000000E+01 0. -1.
        -13    1    4    4    0    0  0.24567396286E+02 -0.29803764115E+02 -0.13578693923E+01  0.38647964047E+02  0.00000000000E+00 0.  1.
         14    1    4    4    0    0  0.73311845426E+02 -0.80508683306E+01 -0.12279937561E+03  0.14324499926E+03  0.00000000000E+00 0. -1.
         -5    1    5    5    0  502 -0.79045220558E+02 -0.14226542031E+02  0.56059457231E+01  0.80647740319E+02  0.47000000000E+01 0.  1.
         13    1    6    6    0    0 -0.28075556991E+02  0.24877944444E+02  0.97615174171E+02  0.10457471611E+03  0.00000000000E+00 0. -1.
        -14    1    6    6    0    0  0.19741681135E+02 -0.31237614254E+02  0.38495036469E+02  0.53360944061E+02  0.00000000000E+00 0.  1.
</event>
<event>
12    1  0.8331241E-002  0.2373135E+03  0.7818608E-02  0.1121951E+00
         21   -1    0    0  503  502  0.00000000000E+00  0.00000000000E+00  0.88882433129E+02  0.88882433129E+02  0.00000000000E+00 0.  1.
         21   -1    0    0  501  503 -0.00000000000E+00 -0.00000000000E+00 -0.68080230163E+03  0.68080230163E+03  0.00000000000E+00 0. -1.
          6    2    1    2  501    0 -0.15505750472E+03  0.50331353367E+02 -0.40429461266E+03  0.46879830865E+03  0.17245766283E+03 0.  0.
         24    2    3    3    0    0 -0.13015435437E+03  0.58506777757E+01 -0.38472857318E+03  0.41399304158E+03  0.79998606603E+02 0.  0.
         -6    2    1    2    0  502  0.15505750472E+03 -0.50331353367E+02 -0.18762525584E+03  0.30088642611E+03  0.16956806858E+03 0.  0.
        -24    2    5    5    0    0  0.13403401380E+02 -0.31234293891E+02 -0.35264573275E+02  0.91921236981E+02  0.77786190268E+02 0.  0.
          5    1    3    3  501    0 -0.24903150347E+02  0.44480675592E+02 -0.19566039473E+02  0.54805267073E+02  0.47000000000E+01 0. -1.
        -13    1    4    4    0    0 -0.29864726953E+02 -0.19206431872E+01 -0.20866838414E+02  0.36483088296E+02  0.00000000000E+00 0.  1.
         14    1    4    4    0    0 -0.10028962742E+03  0.77713209629E+01 -0.36386173477E+03  0.37750995328E+03  0.00000000000E+00 0. -1.
         -5    1    5    5    0  502  0.14165410334E+03 -0.19097059476E+02 -0.15236068257E+03  0.20896518913E+03  0.47000000000E+01 0.  1.
         11    1    6    6    0    0  0.13167933643E+02 -0.24041181005E+02 -0.60104347318E+02  0.66059862451E+02  0.00000000000E+00 0. -1.
        -12    1    6    6    0    0  0.23546773675E+00 -0.71931128863E+01  0.24839774043E+02  0.25861374529E+02  0.00000000000E+00 0.  1.
</event>
<event>
12    1  0.8331241E-002  0.3016999E+03  0.7818608E-02  0.1084909E+00
         21   -1    0    0  503  502  0.00000000000E+00  0.00000000000E+00  0.97308855105E+03  0.97308855105E+03  0.00000000000E+00 0.  1.
         21   -1    0    0  501  503 -0.00000000000E+00 -0.00000000000E+00 -0.11685099210E+03  0.11685099210E+03  0.00000000000E+00 0.  1.
          6    2    1    2  501    0  0.19411379830E+03 -0.14553711016E+03  0.17582447013E+03  0.34563798336E+03  0.17230831123E+03 0.  0.
         24    2    3    3    0    0  0.53744234055E+02 -0.67855053396E+02  0.13086126495E+02  0.11706857377E+03  0.77724213038E+02 0.  0.
         -6    2    1    2    0  502 -0.19411379830E+03  0.14553711016E+03  0.68041308882E+03  0.74430155980E+03  0.17933662021E+03 0.  0.
        -24    2    5    5    0    0 -0.16676026743E+03  0.70739500977E+02  0.59726073532E+03  0.62906570650E+03  0.78677908913E+02 0.  0.
          5    1    3    3  501    0  0.14036956424E+03 -0.77682056767E+02  0.16273834363E+03  0.22856940959E+03  0.47000000000E+01 0. -1.
        -11    1    4    4    0    0  0.45553249849E+02 -0.71911444516E+02  0.35980317988E+02  0.92417193783E+02  0.00000000000E+00 0.  1.
         12    1    4    4    0    0  0.81909842064E+01  0.40563911201E+01 -0.22894191493E+02  0.24651379988E+02  0.00000000000E+00 0. -1.
         -5    1    5    5    0  502 -0.27353530869E+02  0.74797609186E+02  0.83152353501E+02  0.11523585329E+03  0.47000000000E+01 0.  1.
         13    1    6    6    0    0 -0.26191055972E+02 -0.14025827052E+02  0.14307715245E+03  0.14612928109E+03  0.00000000000E+00 0. -1.
        -14    1    6    6    0    0 -0.14056921146E+03  0.84765328029E+02  0.45418358287E+03  0.48293642541E+03  0.00000000000E+00 0.  1.
</event>
<event>
12    1  0.8331241E-002  0.1774347E+03  0.7818608E-02  0.1170363E+00
         21   -1    0    0  501  502  0.00000000000E+00  0.00000000000E+00  0.12711922867E+02  0.12711922867E+02  0.00000000000E+00 0. -1.
         21   -1    0    0  502  503 -0.00000000000E+00 -0.00000000000E+00 -0.26052380219E+04  0.26052380219E+04  0.00000000000E+00 0. -1.
         -6    2    1    2    0  503 -0.58229628352E+01 -0.43203037251E+02 -0.10013007779E+04  0.10168624718E+04  0.17177202727E+03 0.  0.
        -24    2    3    3    0    0 -0.56141356464E+02 -0.53415294073E+02 -0.57784561564E+03  0.59028001155E+03  0.92303255477E+02 0.  0.
          6    2    1    2  501    0  0.58229628352E+01  0.43203037251E+02 -0.15912253212E+04  0.16010874730E+04  0.17199611695E+03 0.  0.
         24    2    5    5    0    0  0.45113571480E+02  0.23293889671E+02 -0.52704047630E+03  0.53598109330E+03  0.83223969471E+02 0.  0.
          5    1    5    5  501    0 -0.39290608645E+02  0.19909147580E+02 -0.10641848449E+04  0.10651063797E+04  0.47000000000E+01 0. -1.
        -11    1    6    6    0    0  0.25218675117E+02  0.54588995337E+02 -0.30619172937E+03  0.31204056647E+03  0.00000000000E+00 0.  1.
         12    1    6    6    0    0  0.19894896363E+02 -0.31295105666E+02 -0.22084874692E+03  0.22394052683E+03  0.00000000000E+00 0. -1.
         -5    1    3    3    0  503  0.50318393628E+02  0.10212256822E+02 -0.42345516226E+03  0.42658246023E+03  0.47000000000E+01 0.  1.
         11    1    4    4    0    0  0.20580868959E+02  0.52727778157E+01 -0.64005309570E+02  0.67439261607E+02  0.00000000000E+00 0. -1.
        -12    1    4    4    0    0 -0.76722225422E+02 -0.58688071888E+02 -0.51384030607E+03  0.52284074994E+03  0.00000000000E+00 0.  1.
</event>
<event>
12    1  0.8331241E-002  0.1845897E+03  0.7818608E-02  0.1164456E+00
         21   -1    0    0  503  502  0.00000000000E+00  0.00000000000E+00  0.50952078661E+03  0.50952078661E+03  0.00000000000E+00 0. -1.
         21   -1    0    0  501  503 -0.00000000000E+00 -0.00000000000E+00 -0.91850364966E+02  0.91850364966E+02  0.00000000000E+00 0. -1.
          6    2    1    2  501    0  0.32550510127E+02  0.39893748003E+02  0.45490097437E+02  0.18592973709E+03  0.17276999546E+03 0.  0.
         24    2    3    3    0    0  0.25095391032E+02 -0.39759493239E+02  0.50458872066E+02  0.10563654708E+03  0.80014913331E+02 0.  0.
         -6    2    1    2    0  502 -0.32550510127E+02 -0.39893748003E+02  0.37218032420E+03  0.41544141448E+03  0.17726344321E+03 0.  0.
        -24    2    5    5    0    0  0.31074590055E+02  0.20535068574E+02  0.24907853981E+03  0.26419349031E+03  0.79817054169E+02 0.  0.
          5    1    3    3  501    0  0.74551190949E+01  0.79653241242E+02 -0.49687746291E+01  0.80293190013E+02  0.47000000000E+01 0. -1.
        -13    1    4    4    0    0 -0.56386573944E+01  0.22083060678E+02  0.62261931014E+01  0.23626711719E+02  0.00000000000E+00 0.  1.
         14    1    4    4    0    0  0.30734048426E+02 -0.61842553917E+02  0.44232678964E+02  0.82009835362E+02  0.00000000000E+00 0. -1.
         -5    1    5    5    0  502 -0.63625100182E+02 -0.60428816577E+02  0.12310178439E+03  0.15124792417E+03  0.47000000000E+01 0.  1.
         11    1    6    6    0    0 -0.25693419662E+02 -0.42163107547E+01  0.79980315778E+02  0.84111711446E+02  0.00000000000E+00 0. -1.
        -12    1    6    6    0    0  0.56768009717E+02  0.24751379329E+02  0.16909822404E+03  0.18008177886E+03  0.00000000000E+00 0.  1.
</event>
<event>
12    1  0.8331241E-002  0.2819055E+03  0.7818608E-02  0.1094743E+00
         21   -1    0    0  501  502  0.00000000000E+00  0.00000000000E+00  0.10812902716E+04  0.10812902716E+04  0.00000000000E+00 0. -1.
         21   -1    0    0  502  503 -0.00000000000E+00 -0.00000000000E+00 -0.22578656265E+03  0.22578656265E+03  0.00000000000E+00 0. -1.
         -6    2    1    2    0  503 -0.22093305208E+03 -0.37860394481E+02 -0.10945281742E+03  0.30178494022E+03  0.16985113462E+03 0.  0.
        -24    2    3    3    0    0 -0.84635573835E+02 -0.77363715050E+02 -0.52081960551E+02  0.14864768111E+03  0.78963774725E+02 0.  0.
          6    2    1    2  501    0  0.22093305208E+03  0.37860394481E+02  0.96495652633E+03  0.10052918940E+04  0.17095575868E+03 0.  0.
         24    2    5    5    0    0  0.10795670858E+03  0.81808376052E+02  0.46442191100E+03  0.49026561269E+03  0.79532372347E+02 0.  0.
          5    1    5    5  501    0  0.11297634350E+03 -0.43947981572E+02  0.50053461533E+03  0.51502628129E+03  0.47000000000E+01 0. -1.
        -13    1    6    6    0    0  0.10829695909E+03  0.55212974599E+02  0.29976786494E+03  0.32347716576E+03  0.00000000000E+00 0.  1.
         14    1    6    6    0    0 -0.34025050811E+00  0.26595401453E+02  0.16465404606E+03  0.16678844694E+03  0.00000000000E+00 0. -1.
         -5    1    3    3    0  503 -0.13629747824E+03  0.39503320569E+02 -0.57370856873E+02  0.15313725912E+03  0.47000000000E+01 0.  1.
         13    1    4    4    0    0 -0.80949698491E+02 -0.22520575504E+02 -0.35680708176E+02  0.91286050100E+02  0.00000000000E+00 0. -1.
        -14    1    4    4    0    0 -0.36858753435E+01 -0.54843139546E+02 -0.16401252375E+02  0.57361631007E+02  0.00000000000E+00 0.  1.
</event>
<event>
12    1  0.8331241E-002  0.1956882E+03  0.7818608E-02  0.1153804E+00
         21   -1    0    0  501  502  0.00000000000E+00  0.00000000000E+00  0.19194266249E+04  0.19194266249E+04  0.00000000000E+00 0.  1.
         21   -1    0    0  502  503 -0.00000000000E+00 -0.00000000000E+00 -0.31664180458E+02  0.31664180458E+02  0.00000000000E+00 0.  1.
         -6    2    1    2    0  503  0.51630666095E+02  0.72663947520E+02  0.34872700994E+03  0.39988049757E+03  0.17420708919E+03 0.  0.
        -24    2    3    3    0    0  0.72481937709E+02  0.10455194986E+03  0.23036829274E+03  0.27545181856E+03  0.81359772237E+02 0.  0.
          6    2    1    2  501    0 -0.51630666095E+02 -0.72663947520E+02  0.15390354345E+04  0.15512103078E+04  0.17227180669E+03 0.  0.
         24    2    5    5    0    0 -0.40233809549E+02 -0.65376216034E+02  0.15306534969E+04  0.15346167473E+04  0.79092507197E+02 0.  0.
          5    1    5    5  501    0 -0.11396856546E+02 -0.72877314861E+01  0.83819376096E+01  0.16593560421E+02  0.47000000000E+01 0. -1.
        -11    1    6    6    0    0  0.63267113549E+01 -0.52032594707E+02  0.48123886344E+03  0.48408497381E+03  0.00000000000E+00 0.  1.
         12    1    6    6    0    0 -0.46560520904E+02 -0.13343621327E+02  0.10494146334E+04  0.10505317735E+04  0.00000000000E+00 0. -1.
         -5    1    3    3    0  503 -0.20851271614E+02 -0.31888002341E+02  0.11835871720E+03  0.12442867901E+03  0.47000000000E+01 0.  1.
         11    1    4    4    0    0  0.96430721697E+00 -0.12721353855E+02  0.12257813188E+02  0.17692278442E+02  0.00000000000E+00 0. -1.
        -12    1    4    4    0    0  0.71517630492E+02  0.11727330372E+03  0.21811047955E+03  0.25775954012E+03  0.00000000000E+00 0.  1.
</event>
<event>
12    1  0.8331241E-002  0.2388734E+03  0.7818608E-02  0.1120559E+00
         21   -1    0    0  503  502  0.00000000000E+00  0.00000000000E+00  0.46509469145E+02  0.46509469145E+02  0.00000000000E+00 0. -1.
         21   -1    0    0  501  503 -0.00000000000E+00 -0.00000000000E+00 -0.15151697549E+04  0.15151697549E+04  0.00000000000E+00 0. -1.
          6    2    1    2  501    0  0.26997817337E+02 -0.16349279846E+03 -0.10752822995E+04  0.11014955961E+04  0.17205158321E+03 0.  0.
         24    2    3    3    0    0  0.82338671608E+02 -0.60383940183E+02 -0.48598971460E+03  0.50067791373E+03  0.63769064050E+02 0.  0.
         -6    2    1    2    0  502 -0.26997817337E+02  0.16349279846E+03 -0.39337798626E+03  0.46018362797E+03  0.17194171712E+03 0.  0.
        -24    2    5    5    0    0 -0.54907248453E+02  0.58960534149E+02 -0.28472477953E+03  0.30677717452E+03  0.80949887009E+02 0.  0.
          5    1    3    3  501    0 -0.55340854271E+02 -0.10310885828E+03 -0.58929258489E+03  0.60081768234E+03  0.47000000000E+01 0. -1.
        -11    1    4    4    0    0  0.63359855386E+02 -0.30655305270E+02 -0.19043918572E+03  0.20303029939E+03  0.00000000000E+00 0.  1.
         12    1    4    4    0    0  0.18978816222E+02 -0.29728634914E+02 -0.29555052888E+03  0.29764761434E+03  0.00000000000E+00 0. -1.
         -5    1    5    5    0  502  0.27909431117E+02  0.10453226431E+03 -0.10865320673E+03  0.15340645345E+03  0.47000000000E+01 0.  1.
         11    1    6    6    0    0 -0.68441530997E+02  0.69082193449E+02 -0.23877579578E+03  0.25781868293E+03  0.00000000000E+00 0. -1.
        -12    1    6    6    0    0  0.13534282544E+02 -0.10121659300E+02 -0.45948983752E+02  0.48958491590E+02  0.00000000000E+00 0.  1.
</event>
<event>
12    1  0.8331241E-002  0.1918540E+03  0.7818608E-02  0.1160350E+00
         21   -1    0    0  501  502  0.00000000000E+00  0.00000000000E+00  0.43823687687E+03  0.43823687687E+03  0.00000000000E+00 0.  1.
         21   -1    0    0  502  503 -0.00000000000E+00 -0.00000000000E+00 -0.10759754149E+03  0.10759754149E+03  0.00000000000E+00 0.  1.
         -6    2    1    2    0  503 -0.27711331874E+02 -0.25394182339E+02  0.25860374101E+02  0.19358906773E+03  0.18813608315E+03 0.  0.
        -24    2    3    3    0    0 -0.20084726362E+02  0.37380880668E+02  0.70717434805E+02  0.11591590929E+03  0.81454379674E+02 0.  0.
          6    2    1    2  501    0  0.27711331874E+02  0.25394182339E+02  0.30477896128E+03  0.35224535063E+03  0.17255083133E+03 0.  0.
         24    2    5    5    0    0  0.57201551831E+02  0.50210332804E+01  0.83963592965E+02  0.12849045089E+03  0.78502756120E+02 0.  0.
          5    1    5    5  501    0 -0.29490219958E+02  0.20373149059E+02  0.22081536831E+03  0.22375489974E+03  0.47000000000E+01 0. -1.
        -13    1    6    6    0    0  0.72187728762E+01  0.36790932498E+02  0.39271205879E+02  0.54294668312E+02  0.00000000000E+00 0.  1.
         14    1    6    6    0    0  0.49982778955E+02 -0.31769899218E+02  0.44692387086E+02  0.74195782574E+02  0.00000000000E+00 0. -1.
         -5    1    3    3    0  503 -0.76266055120E+01 -0.62775063007E+02 -0.44857060704E+02  0.77673158441E+02  0.47000000000E+01 0.  1.
         11    1    4    4    0    0  0.24047813497E+02 -0.23968504268E+01  0.45198978891E+02  0.51254169769E+02  0.00000000000E+00 0. -1.
        -12    1    4    4    0    0 -0.44132539858E+02  0.39777731095E+02  0.25518455914E+02  0.64661739519E+02  0.00000000000E+00 0.  1.
</event>
<event>
12    1  0.8331241E-002  0.2153931E+03  0.7818608E-02  0.1137509E+00
         21   -1    0    0  501  502  0.00000000000E+00  0.00000000000E+00  0.30962894361E+03  0.30962894361E+03  0.00000000000E+00 0.  1.
         21   -1    0    0  502  503 -0.00000000000E+00 -0.00000000000E+00 -0.28414764799E+03  0.28414764799E+03  0.00000000000E+00 0.  1.
         -6    2    1    2    0  503 -0.60400551522E+02  0.11456408627E+03 -0.19175809837E+03  0.28838404864E+03  0.17210762544E+03 0.  0.
        -24    2    3    3    0    0 -0.10472417207E+03  0.62025704742E+02 -0.11995744157E+03  0.18887380199E+03  0.80431244089E+02 0.  0.
          6    2    1    2  501    0  0.60400551522E+02 -0.11456408627E+03  0.21723939399E+03  0.30539254296E+03  0.17116803003E+03 0.  0.
         24    2    5    5    0    0  0.25496017833E+02 -0.33704117671E+02  0.19428710925E+03  0.21425770676E+03  0.79830254995E+02 0.  0.
          5    1    5    5  501    0  0.34904533689E+02 -0.80859968599E+02  0.22952284748E+02  0.91134836200E+02  0.47000000000E+01 0. -1.
        -11    1    6    6    0    0 -0.11629890104E+02 -0.46788122772E+02  0.80259240674E+02  0.93626537316E+02  0.00000000000E+00 0.  1.
         12    1    6    6    0    0  0.37125907937E+02  0.13084005101E+02  0.11402786857E+03  0.12063116944E+03  0.00000000000E+00 0. -1.
         -5    1    3    3    0  503  0.44323620550E+02  0.52538381529E+02 -0.71800656799E+02  0.99510246653E+02  0.47000000000E+01 0.  1.
         11    1    4    4    0    0 -0.79379495642E+02  0.64158342553E+01 -0.42687591641E+02  0.90357610292E+02  0.00000000000E+00 0. -1.
        -12    1    4    4    0    0 -0.25344676430E+02  0.55609870486E+02 -0.77269849929E+02  0.98516191699E+02  0.00000000000E+00 0.  1.
</event>
<event>
12    1  0.8331241E-002  0.2208356E+03  0.7818608E-02  0.1133782E+00
         21   -1    0    0  501  502  0.00000000000E+00  0.00000000000E+00  0.14218363951E+04  0.14218363951E+04  0.00000000000E+00 0. -1.
         21   -1    0    0  502  503 -0.00000000000E+00 -0.00000000000E+00 -0.36680880723E+02  0.36680880723E+02  0.00000000000E+00 0.  1.
         -6    2    1    2    0  503 -0.13431756568E+03  0.77225778024E+00  0.89046374317E+03  0.91677165765E+03  0.17176376084E+03 0.  0.
        -24    2    3    3    0    0 -0.91321462668E+02  0.63608742168E+02  0.66075560976E+03  0.67472826237E+03  0.79212187106E+02 0.  0.
          6    2    1    2  501    0  0.13431756568E+03 -0.77225778024E+00  0.49469177117E+03  0.54174561813E+03  0.17528993546E+03 0.  0.
         24    2    5    5    0    0  0.84023613296E+02  0.64603647675E+02  0.36183503841E+03  0.38529597096E+03  0.79339721046E+02 0.  0.
          5    1    5    5  501    0  0.50293952384E+02 -0.65375905455E+02  0.13285673276E+03  0.15644964717E+03  0.47000000000E+01 0. -1.
        -13    1    6    6    0    0  0.19982486737E+02 -0.18232111765E+02  0.90641796597E+02  0.94591992081E+02  0.00000000000E+00 0.  1.
         14    1    6    6    0    0  0.64041126560E+02  0.82835759440E+02  0.27119324181E+03  0.29070397888E+03  0.00000000000E+00 0. -1.
         -5    1    3    3    0  503 -0.42996103013E+02 -0.62836484388E+02  0.22970813341E+03  0.24204339528E+03  0.47000000000E+01 0.  1.
         11    1    4    4    0    0 -0.62527199247E+02 -0.44190117773E+01  0.31230216748E+03  0.31853072398E+03  0.00000000000E+00 0. -1.
        -12    1    4    4    0    0 -0.28794263420E+02  0.68027753945E+02  0.34845344229E+03  0.35619753839E+03  0.00000000000E+00 0.  1.
</event>
<event>
12    1  0.8331241E-002  0.2346524E+03  0.7818608E-02  0.1123468E+00
         21   -1    0    0  501  502  0.00000000000E+00  0.00000000000E+00  0.12208676614E+03  0.12208676614E+03  0.00000000000E+00 0.  1.
         21   -1    0    0  502  503 -0.00000000000E+00 -0.00000000000E+00 -0.50537389144E+03  0.50537389144E+03  0.00000000000E+00 0.  1.
         -6    2    1    2    0  503  0.87477563119E+01  0.15939731622E+03 -0.29531346577E+03  0.37718930659E+03  0.17198169170E+03 0.  0.
        -24    2    3    3    0    0 -0.57791979307E+02  0.67424195012E+02 -0.13320046556E+03  0.17922641542E+03  0.80584173477E+02 0.  0.
          6    2    1    2  501    0 -0.87477563119E+01 -0.15939731622E+03 -0.87973659526E+02  0.25027135100E+03  0.17150031108E+03 0.  0.
         24    2    5    5    0    0 -0.50583294816E+02 -0.48031228428E+02 -0.76554566949E+02  0.13066740680E+03  0.79672459859E+02 0.  0.
          5    1    5    5  501    0  0.41835538504E+02 -0.11136608779E+03 -0.11419092578E+02  0.11960394420E+03  0.47000000000E+01 0. -1.
        -11    1    6    6    0    0 -0.36447602205E+01 -0.33485239678E+02  0.63661576801E+01  0.34279345340E+02  0.00000000000E+00 0.  1.
         12    1    6    6    0    0 -0.46938534596E+02 -0.14545988751E+02 -0.82920724629E+02  0.96388061458E+02  0.00000000000E+00 0. -1.
         -5    1    3    3    0  503  0.66539735619E+02  0.91973121209E+02 -0.16211300021E+03  0.19796289117E+03  0.47000000000E+01 0.  1.
         11    1    4    4    0    0  0.17608134601E+02  0.15221270952E+02 -0.51045295629E+02  0.56101298554E+02  0.00000000000E+00 0. -1.
        -12    1    4    4    0    0 -0.75400113908E+02  0.52202924060E+02 -0.82155169926E+02  0.12312511687E+03  0.00000000000E+00 0.  1.
</event>
<event>
12    1  0.8331241E-002  0.2024329E+03  0.7818608E-02  0.1148155E+00
         21   -1    0    0  501  502  0.00000000000E+00  0.00000000000E+00  0.32314480625E+02  0.32314480625E+02  0.00000000000E+00 0. -1.
         21   -1    0    0  502  503 -0.00000000000E+00 -0.00000000000E+00 -0.17648858802E+04  0.17648858802E+04  0.00000000000E+00 0.  1.
         -6    2    1    2    0  503 -0.68515713205E+01  0.10174925898E+03 -0.13527744865E+04  0.13678369430E+04  0.17486919546E+03 0.  0.
        -24    2    3    3    0    0 -0.61927078584E+02  0.96571360040E+02 -0.11178054277E+04  0.11263981915E+04  0.78249095228E+02 0.  0.
          6    2    1    2  501    0  0.68515713205E+01 -0.10174925898E+03 -0.37979691310E+03  0.42936341787E+03  0.17235832929E+03 0.  0.
         24    2    5    5    0    0  0.54183654277E+02 -0.11552179382E+03 -0.28811143257E+03  0.32516012554E+03  0.80248092959E+02 0.  0.
          5    1    5    5  501    0 -0.47332082956E+02  0.13772534847E+02 -0.91685480534E+02  0.10420329234E+03  0.47000000000E+01 0. -1.
        -11    1    6    6    0    0 -0.13839182509E+02 -0.52095855203E+02 -0.14278962261E+03  0.15262495676E+03  0.00000000000E+00 0.  1.
         12    1    6    6    0    0  0.68022836786E+02 -0.63425938620E+02 -0.14532180996E+03  0.17253516878E+03  0.00000000000E+00 0. -1.
         -5    1    3    3    0  503  0.55075507263E+02  0.51778989368E+01 -0.23496905877E+03  0.24143875148E+03  0.47000000000E+01 0.  1.
         11    1    4    4    0    0 -0.55761833178E+02  0.10625205527E+03 -0.85926591214E+03  0.86760405085E+03  0.00000000000E+00 0. -1.
        -12    1    4    4    0    0 -0.61652454057E+01 -0.96806952297E+01 -0.25853951559E+03  0.25879414065E+03  0.00000000000E+00 0.  1.
</event>
<event>
12    1  0.8331241E-002  0.3883103E+03  0.7818608E-02  0.1047921E+00
         21   -1    0    0  501  502  0.00000000000E+00  0.00000000000E+00  0.20834941765E+04  0.20834941765E+04  0.00000000000E+00 0.  1.
         21   -1    0    0  502  503 -0.00000000000E+00 -0.00000000000E+00 -0.12371025608E+03  0.12371025608E+03  0.00000000000E+00 0. -1.
         -6    2    1    2    0  503 -0.32942722486E+03  0.11314776990E+03  0.26884918283E+03  0.47229731827E+03  0.17163962080E+03 0.  0.
        -24    2    3    3    0    0 -0.90353858995E+02  0.61010682936E+02  0.14441353861E+03  0.19774191465E+03  0.79752563660E+02 0.  0.
          6    2    1    2  501    0  0.32942722486E+03 -0.11314776990E+03  0.16909347376E+04  0.17349071143E+04  0.17122410517E+03 0.  0.
         24    2    5    5    0    0  0.85318034659E+02 -0.67041683915E+02  0.41482427683E+03  0.43483209111E+03  0.72291163966E+02 0.  0.
          5    1    5    5  501    0  0.24410919020E+03 -0.46106085984E+02  0.12761104607E+04  0.13000750232E+04  0.47000000000E+01 0. -1.
        -13    1    6    6    0    0  0.73165855744E+02 -0.30488026829E+02  0.35453406740E+03  0.36328661849E+03  0.00000000000E+00 0.  1.
         14    1    6    6    0    0  0.12152178916E+02 -0.36553657087E+02  0.60290209434E+02  0.71545472620E+02  0.00000000000E+00 0. -1.
         -5    1    3    3    0  503 -0.23907336587E+03  0.52137086963E+02  0.12443564422E+03  0.27455540362E+03  0.47000000000E+01 0.  1.
         13    1    4    4    0    0 -0.32846480447E+02  0.49230215022E+02  0.24155819452E+02  0.63921897361E+02  0.00000000000E+00 0. -1.
        -14    1    4    4    0    0 -0.57507378548E+02  0.11780467914E+02  0.12025771916E+03  0.13382001729E+03  0.00000000000E+00 0.  1.
</event>
<event>
12    1  0.8331241E-002  0.1994302E+03  0.7818608E-02  0.1150463E+00
         21   -1    0    0  501  502  0.00000000000E+00  0.00000000000E+00  0.37823974038E+03  0.37823974038E+03  0.00000000000E+00 0. -1.
         21   -1    0    0  502  503 -0.00000000000E+00 -0.00000000000E+00 -0.12306922222E+03  0.12306922222E+03  0.00000000000E+00 0.  1.
         -6    2    1    2    0  503  0.69605673726E+02  0.72363968147E+02  0.30663605943E+02  0.20177380239E+03  0.17231052464E+03 0.  0.
        -24    2    3    3    0    0  0.10534149282E+03  0.14660843667E+02  0.34949783116E+02  0.13360371617E+03  0.72915671754E+02 0.  0.
          6    2    1    2  501    0 -0.69605673726E+02 -0.72363968147E+02  0.22450691222E+03  0.29953516021E+03  0.17098673886E+03 0.  0.
         24    2    5    5    0    0 -0.37000114885E+02 -0.94307806673E+02  0.85631789260E+02  0.15512932828E+03  0.80432171802E+02 0.  0.
          5    1    5    5  501    0 -0.32605558841E+02  0.21943838527E+02  0.13887512296E+03  0.14440583193E+03  0.47000000000E+01 0. -1.
        -11    1    6    6    0    0 -0.17913049015E+02 -0.97031464439E+02  0.91916591976E+02  0.13485044418E+03  0.00000000000E+00 0.  1.
         12    1    6    6    0    0 -0.19087065870E+02  0.27236577655E+01 -0.62848027157E+01  0.20278884100E+02  0.00000000000E+00 0. -1.
         -5    1    3    3    0  503 -0.35735819092E+02  0.57703124479E+02 -0.42861771730E+01  0.68170086223E+02  0.47000000000E+01 0.  1.
         13    1    4    4    0    0  0.15957750405E+02  0.42001998322E+01  0.40202026478E+02  0.43456810854E+02  0.00000000000E+00 0. -1.
        -14    1    4    4    0    0  0.89383742412E+02  0.10460643835E+02 -0.52522433617E+01  0.90146905312E+02  0.00000000000E+00 0.  1.
</event>
<event>
12    1  0.8331241E-002  0.1862062E+03  0.7818608E-02  0.1162002E+00
         21   -1    0    0  501  502  0.00000000000E+00  0.00000000000E+00  0.30267815114E+03  0.30267815114E+03  0.00000000000E+00 0. -1.
         21   -1    0    0  502  503 -0.00000000000E+00 -0.00000000000E+00 -0.11624560303E+03  0.11624560303E+03  0.00000000000E+00 0.  1.
         -6    2    1    2    0  503  0.35329404275E+02  0.61750506299E+02  0.66452003808E+02  0.19741059091E+03  0.17173753451E+03 0.  0.
        -24    2    3    3    0    0 -0.24078495761E+02 -0.15291513065E+02  0.16564667930E+02  0.87977471538E+02  0.81560057287E+02 0.  0.
          6    2    1    2  501    0 -0.35329404275E+02 -0.61750506299E+02  0.11998054430E+03  0.22151316326E+03  0.17207980315E+03 0.  0.
         24    2    5    5    0    0 -0.22737062816E+02  0.21992700567E+02  0.13621888696E+02  0.85477339371E+02  0.78231494876E+02 0.  0.
          5    1    5    5  501    0 -0.12592341459E+02 -0.83743206866E+02  0.10635865560E+03  0.13603582389E+03  0.47000000000E+01 0. -1.
        -11    1    6    6    0    0  0.41365578760E+01 -0.24384081766E+02 -0.10286800754E+02  0.26786429855E+02  0.00000000000E+00 0.  1.
         12    1    6    6    0    0 -0.26873620692E+02  0.46376782333E+02  0.23908689449E+02  0.58690909516E+02  0.00000000000E+00 0. -1.
         -5    1    3    3    0  503  0.59407900036E+02  0.77042019364E+02  0.49887335877E+02  0.10943311937E+03  0.47000000000E+01 0.  1.
         11    1    4    4    0    0  0.18895658878E+02 -0.21899161488E+02  0.30775871271E+02  0.42234742225E+02  0.00000000000E+00 0. -1.
        -12    1    4    4    0    0 -0.42974154639E+02  0.66076484228E+01 -0.14211203341E+02  0.45742729313E+02  0.00000000000E+00 0.  1.
</event>
<event>
12    1  0.8331241E-002  0.1846122E+03  0.7818608E-02  0.1164210E+00
         21   -1    0    0  503  502  0.00000000000E+00  0.00000000000E+00  0.72903997217E+02  0.72903997217E+02  0.00000000000E+00 0. -1.
         21   -1    0    0  501  503 -0.00000000000E+00 -0.00000000000E+00 -0.45975915716E+03  0.45975915716E+03  0.00000000000E+00 0. -1.
          6    2    1    2  501    0 -0.41215964982E+02  0.37358134367E+02 -0.18426331644E+03  0.26083452967E+03  0.17603208830E+03 0.  0.
         24    2    3    3    0    0 -0.30038635037E+02  0.63414915297E+02 -0.41491846870E+02  0.11519912512E+03  0.81397137509E+02 0.  0.
         -6    2    1    2    0  502  0.41215964982E+02 -0.37358134367E+02 -0.20259184351E+03  0.27182862471E+03  0.17249046403E+03 0.  0.
        -24    2    5    5    0    0  0.38977527976E+02  0.13511542932E+02 -0.20709381541E+03  0.22049547343E+03  0.63471221395E+02 0.  0.
          5    1    3    3  501    0 -0.11177329944E+02 -0.26056780930E+02 -0.14277146957E+03  0.14563540455E+03  0.47000000000E+01 0. -1.
        -13    1    4    4    0    0  0.11107317669E+02 -0.14508436961E+02 -0.13576363414E+02  0.22763674843E+02  0.00000000000E+00 0.  1.
         14    1    4    4    0    0 -0.41145952706E+02  0.77923352258E+02 -0.27915483456E+02  0.92435450276E+02  0.00000000000E+00 0. -1.
         -5    1    5    5    0  502  0.22384370062E+01 -0.50869677299E+02  0.45019718981E+01  0.51333151274E+02  0.47000000000E+01 0.  1.
         13    1    6    6    0    0  0.55346172336E+02  0.83471276775E+01 -0.17925788800E+03  0.18779314083E+03  0.00000000000E+00 0. -1.
        -14    1    6    6    0    0 -0.16368644360E+02  0.51644152546E+01 -0.27835927411E+02  0.32702332607E+02  0.00000000000E+00 0.  1.
</event>
<event>
12    1  0.8331241E-002  0.1976277E+03  0.7818608E-02  0.1154095E+00
         21   -1    0    0  503  502  0.00000000000E+00  0.00000000000E+00  0.19578877373E+03  0.19578877373E+03  0.00000000000E+00 0.  1.
         21   -1    0    0  501  503 -0.00000000000E+00 -0.00000000000E+00 -0.36279914531E+03  0.36279914531E+03  0.00000000000E+00 0.  1.
          6    2    1    2  501    0  0.83301236672E+02 -0.49931852165E+02 -0.27801443092E+03  0.34109931296E+03  0.17211749362E+03 0.  0.
         24    2    3    3    0    0  0.11552673101E+03 -0.12787620846E+02 -0.23740148899E+03  0.27714872690E+03  0.83318671493E+02 0.  0.
         -6    2    1    2    0  502 -0.83301236672E+02  0.49931852165E+02  0.11100405934E+03  0.21748860608E+03  0.15983462294E+03 0.  0.
        -24    2    5    5    0    0 -0.40606137037E+02  0.75562553110E+02  0.26738963891E+02  0.11949625599E+03  0.78777060160E+02 0.  0.
          5    1    3    3  501    0 -0.32225494340E+02 -0.37144231319E+02 -0.40612941931E+02  0.63950586065E+02  0.47000000000E+01 0. -1.
        -13    1    4    4    0    0  0.14840442682E+02 -0.27723366676E+02 -0.10815094343E+03  0.11262970463E+03  0.00000000000E+00 0.  1.
         14    1    4    4    0    0  0.10068628833E+03  0.14935745830E+02 -0.12925054556E+03  0.16451902227E+03  0.00000000000E+00 0. -1.
         -5    1    5    5    0  502 -0.42695099635E+02 -0.25630700946E+02  0.84265095454E+02  0.97992350088E+02  0.47000000000E+01 0.  1.
         13    1    6    6    0    0 -0.41799125503E+00  0.52920916482E+02 -0.17343445189E+02  0.55691949229E+02  0.00000000000E+00 0. -1.
        -14    1    6    6    0    0 -0.40188145782E+02  0.22641636628E+02  0.44082409080E+02  0.63804306758E+02  0.00000000000E+00 0.  1.
</event>
<event>
12    1  0.8331241E-002  0.1757650E+03  0.7818608E-02  0.1172302E+00
         21   -1    0    0  501  502  0.00000000000E+00  0.00000000000E+00  0.34388785354E+03  0.34388785354E+03  0.00000000000E+00 0. -1.
         21   -1    0    0  502  503 -0.00000000000E+00 -0.00000000000E+00 -0.14634828942E+03  0.14634828942E+03  0.00000000000E+00 0. -1.
         -6    2    1    2    0  503  0.41417498566E+01  0.28550150144E+02 -0.54697539691E+02  0.18280016593E+03  0.17202271551E+03 0.  0.
        -24    2    3    3    0    0 -0.73213781985E+01  0.77908447477E+02 -0.72331814356E+02  0.12894199605E+03  0.72600400891E+02 0.  0.
          6    2    1    2  501    0 -0.41417498566E+01 -0.28550150144E+02  0.25223710381E+03  0.30743597703E+03  0.17338125120E+03 0.  0.
         24    2    5    5    0    0 -0.49831397191E+02  0.14787401640E+02  0.92700683179E+02  0.13585612164E+03  0.84626436366E+02 0.  0.
          5    1    5    5  501    0  0.45689647335E+02 -0.43337551784E+02  0.15953642063E+03  0.17157985539E+03  0.47000000000E+01 0. -1.
        -11    1    6    6    0    0 -0.66846891026E+02  0.16883512887E+02  0.96203087637E+02  0.11835790602E+03  0.00000000000E+00 0.  1.
         12    1    6    6    0    0  0.17015493835E+02 -0.20961112473E+01 -0.35024044574E+01  0.17498215617E+02  0.00000000000E+00 0. -1.
         -5    1    3    3    0  503  0.11463128055E+02 -0.49358297333E+02  0.17634274666E+02  0.53858169885E+02  0.47000000000E+01 0.  1.
         11    1    4    4    0    0 -0.34048753820E+02  0.39794116626E+02 -0.13809045220E+02  0.54162524725E+02  0.00000000000E+00 0. -1.
        -12    1    4    4    0    0  0.26727375621E+02  0.38114330851E+02 -0.58522769136E+02  0.74779471322E+02  0.00000000000E+00 0.  1.
</event>
<event>
12    1  0.8331241E-002  0.2466442E+03  0.7818608E-02  0.1115645E+00
         21   -1    0    0  503  502  0.00000000000E+00  0.00000000000E+00  0.48867040384E+02  0.48867040384E+02  0.00000000000E+00 0.  1.
         21   -1    0    0  501  503 -0.00000000000E+00 -0.00000000000E+00 -0.12542479708E+04  0.12542479708E+04  0.00000000000E+00 0.  1.
          6    2    1    2  501    0  0.97031540373E+02  0.14669417061E+03 -0.67395193182E+03  0.71723947461E+03  0.17113432740E+03 0.  0.
         24    2    3    3    0    0  0.48372959296E+02  0.22736779071E+01 -0.24190398978E+03  0.25907743947E+03  0.79110470651E+02 0.  0.
         -6    2    1    2    0  502 -0.97031540373E+02 -0.14669417061E+03 -0.53142899859E+03  0.58587553657E+03  0.17291345895E+03 0.  0.
        -24    2    5    5    0    0 -0.29575221581E+02 -0.14662854773E+03 -0.44463195036E+03  0.47584746364E+03  0.79740909371E+02 0.  0.
          5    1    3    3  501    0  0.48658581077E+02  0.14442049270E+03 -0.43204794204E+03  0.45816203514E+03  0.47000000000E+01 0. -1.
        -13    1    4    4    0    0  0.40034752681E+02  0.95865353663E+01 -0.41805486142E+02  0.58671813966E+02  0.00000000000E+00 0.  1.
         14    1    4    4    0    0  0.83382066153E+01 -0.73128574592E+01 -0.20009850364E+03  0.20040562550E+03  0.00000000000E+00 0. -1.
         -5    1    5    5    0  502 -0.67456318792E+02 -0.65622878754E-01 -0.86797048230E+02  0.11002807293E+03  0.47000000000E+01 0.  1.
         11    1    6    6    0    0 -0.29678500055E+02 -0.73715232478E+02 -0.33418898574E+03  0.34350695343E+03  0.00000000000E+00 0. -1.
        -12    1    6    6    0    0  0.10327847421E+00 -0.72913315255E+02 -0.11044296462E+03  0.13234051021E+03  0.00000000000E+00 0.  1.
</event>
<event>
12    1  0.8331241E-002  0.1829645E+03  0.7818608E-02  0.1165324E+00
         21   -1    0    0  501  502  0.00000000000E+00  0.00000000000E+00  0.59472940035E+02  0.59472940035E+02  0.00000000000E+00 0. -1.
         21   -1    0    0  502  503 -0.00000000000E+00 -0.00000000000E+00 -0.55911967273E+03  0.55911967273E+03  0.00000000000E+00 0. -1.
         -6    2    1    2    0  503  0.62460933615E+00 -0.64004049835E+02 -0.23858844938E+03  0.30066670626E+03  0.17140335921E+03 0.  0.
        -24    2    3    3    0    0 -0.15966290217E+01 -0.66179980965E+02 -0.56006654827E+02  0.11799796160E+03  0.80027710527E+02 0.  0.
          6    2    1    2  501    0 -0.62460933615E+00  0.64004049835E+02 -0.26105828332E+03  0.31792590650E+03  0.16978971171E+03 0.  0.
         24    2    5    5    0    0 -0.13941001202E+02  0.17681832026E+02 -0.27631241524E+02  0.79528448469E+02  0.71093529308E+02 0.  0.
          5    1    5    5  501    0  0.13316391866E+02  0.46322217809E+02 -0.23342704180E+03  0.23839745803E+03  0.47000000000E+01 0. -1.
        -13    1    6    6    0    0 -0.31189226368E+02 -0.27453618787E+01  0.10442697522E+02  0.33005375090E+02  0.00000000000E+00 0.  1.
         14    1    6    6    0    0  0.17248225166E+02  0.20427193905E+02 -0.38073939046E+02  0.46523073379E+02  0.00000000000E+00 0. -1.
         -5    1    3    3    0  503  0.22212383578E+01  0.21759311303E+01 -0.18258179455E+03  0.18266874466E+03  0.47000000000E+01 0.  1.
         11    1    4    4    0    0 -0.32282343868E+02 -0.59277800196E+02 -0.54072621960E+02  0.86486159397E+02  0.00000000000E+00 0. -1.
        -12    1    4    4    0    0  0.30685714846E+02 -0.69021807694E+01 -0.19340328672E+01  0.31511802204E+02  0.00000000000E+00 0.  1.
</event>
<event>
12    1  0.8331241E-002  0.2403394E+03  0.7818608E-02  0.1119863E+00
         21   -1    0    0  501  502  0.00000000000E+00  0.00000000000E+00  0.32239830119E+03  0.32239830119E+03  0.00000000000E+00 0.  1.
         21   -1    0    0  502  503 -0.00000000000E+00 -0.00000000000E+00 -0.17960425214E+03  0.17960425214E+03  0.00000000000E+00 0.  1.
         -6    2    1    2    0  503 -0.15661382274E+03  0.55720893058E+02  0.46297577631E+02  0.24301491507E+03  0.17111421873E+03 0.  0.
        -24    2    3    3    0    0 -0.84055370135E+02  0.87057434406E+02  0.69772839854E+02  0.16043231517E+03  0.78904856865E+02 0.  0.
          6    2    1    2  501    0  0.15661382274E+03 -0.55720893058E+02  0.96496471411E+02  0.25898763826E+03  0.17358087562E+03 0.  0.
         24    2    5    5    0    0  0.98537041055E+02  0.41655308252E+00 -0.74449920007E+01  0.12726731619E+03  0.80198627721E+02 0.  0.
          5    1    5    5  501    0  0.58076781688E+02 -0.56137446140E+02  0.10394146341E+03  0.13172032207E+03  0.47000000000E+01 0. -1.
        -13    1    6    6    0    0  0.15546871233E+02 -0.13875833932E+02 -0.33206186674E+02  0.39203249940E+02  0.00000000000E+00 0.  1.
         14    1    6    6    0    0  0.82990169823E+02  0.14292387014E+02  0.25761194674E+02  0.88064066252E+02  0.00000000000E+00 0. -1.
         -5    1    3    3    0  503 -0.72558452609E+02 -0.31336541349E+02 -0.23475262223E+02  0.82582599893E+02  0.47000000000E+01 0.  1.
         13    1    4    4    0    0 -0.68615442937E+01  0.20036318899E+02 -0.16354849758E+02  0.26758474840E+02  0.00000000000E+00 0. -1.
        -14    1    4    4    0    0 -0.77193825841E+02  0.67021115507E+02  0.86127689612E+02  0.13367384033E+03  0.00000000000E+00 0.  1.
</event>
<event>
12    1  0.8331241E-002  0.1790151E+03  0.7818608E-02  0.1168798E+00
         21   -1    0    0  501  502  0.00000000000E+00  0.00000000000E+00  0.19307669349E+03  0.19307669349E+03  0.00000000000E+00 0. -1.
         21   -1    0    0  502  503 -0.00000000000E+00 -0.00000000000E+00 -0.17306522790E+03  0.17306522790E+03  0.00000000000E+00 0. -1.
         -6    2    1    2    0  503  0.19358252279E+02 -0.44551696003E+02 -0.27419729262E+02  0.18110283535E+03  0.17229857768E+03 0.  0.
        -24    2    3    3    0    0  0.70066724381E+02 -0.32255100794E+02  0.15910566560E+02  0.11311636660E+03  0.81193773601E+02 0.  0.
          6    2    1    2  501    0 -0.19358252279E+02  0.44551696003E+02  0.47431194850E+02  0.18503908605E+03  0.17213410345E+03 0.  0.
         24    2    5    5    0    0  0.55996694352E+02  0.17484385613E+02  0.23418382676E+02  0.10131506069E+03  0.79214817784E+02 0.  0.
          5    1    5    5  501    0 -0.75354946631E+02  0.27067310390E+02  0.24012812174E+02  0.83724025357E+02  0.47000000000E+01 0. -1.
        -13    1    6    6    0    0  0.56145980556E+02 -0.45748623884E+01 -0.13847804074E+02  0.58009155968E+02  0.00000000000E+00 0.  1.
         14    1    6    6    0    0 -0.14928620408E+00  0.22059248002E+02  0.37266186750E+02  0.43305904720E+02  0.00000000000E+00 0. -1.
         -5    1    3    3    0  503 -0.50708472101E+02 -0.12296595210E+02 -0.43330295822E+02  0.67986468747E+02  0.47000000000E+01 0.  1.
         11    1    4    4    0    0 -0.10015493532E+02 -0.12206459860E+02 -0.17934090483E+02  0.23894337707E+02  0.00000000000E+00 0. -1.
        -12    1    4    4    0    0  0.80082217913E+02 -0.20048640934E+02  0.33844657043E+02  0.89222028892E+02  0.00000000000E+00 0.  1.
</event>
<event>
12    1  0.8331241E-002  0.2343049E+03  0.7818608E-02  0.1123991E+00
         21   -1    0    0  503  502  0.00000000000E+00  0.00000000000E+00  0.35174666376E+02  0.35174666376E+02  0.00000000000E+00 0.  1.
         21   -1    0    0  501  503 -0.00000000000E+00 -0.00000000000E+00 -0.18684194049E+04  0.18684194049E+04  0.00000000000E+00 0.  1.
          6    2    1    2  501    0  0.28330371654E+01 -0.15661420766E+03 -0.13078478703E+04  0.13283196496E+04  0.17155466602E+03 0.  0.
         24    2    3    3    0    0  0.25054396461E+02 -0.17738301138E+03 -0.10082163771E+04  0.10271116587E+04  0.79784967058E+02 0.  0.
         -6    2    1    2    0  502 -0.28330371654E+01  0.15661420766E+03 -0.52539686825E+03  0.57527442174E+03  0.17424911763E+03 0.  0.
        -24    2    5    5    0    0  0.61380185516E+02  0.64780370811E+02 -0.23608552848E+03  0.26498434313E+03  0.80723613232E+02 0.  0.
          5    1    3    3  501    0 -0.22221359295E+02  0.20768803720E+02 -0.29963149324E+03  0.30120799086E+03  0.47000000000E+01 0. -1.
        -11    1    4    4    0    0 -0.28897109169E+02 -0.60967485193E+02 -0.31971906854E+03  0.32676040145E+03  0.00000000000E+00 0.  1.
         12    1    4    4    0    0  0.53951505629E+02 -0.11641552619E+03 -0.68849730852E+03  0.70035125726E+03  0.00000000000E+00 0. -1.
         -5    1    5    5    0  502 -0.64213222681E+02  0.91833836851E+02 -0.28931133977E+03  0.31029007860E+03  0.47000000000E+01 0.  1.
         11    1    6    6    0    0  0.50665926449E+02 -0.10997814269E+01 -0.13136710374E+03  0.14080327257E+03  0.00000000000E+00 0. -1.
        -12    1    6    6    0    0  0.10714259067E+02  0.65880152238E+02 -0.10471842474E+03  0.12418107056E+03  0.00000000000E+00 0.  1.
</event>
<event>
12    1  0.8331241E-002  0.2083077E+03  0.7818608E-02  0.1143735E+00
         21   -1    0    0  503  502  0.00000000000E+00  0.00000000000E+00  0.97485559697E+03  0.97485559697E+03  0.00000000000E+00 0. -1.
         21   -1    0    0  501  503 -0.00000000000E+00 -0.00000000000E+00 -0.50849265247E+02  0.50849265247E+02  0.00000000000E+00 0.  1.
          6    2    1    2  501    0 -0.11349500561E+03 -0.23041705787E+02  0.26508513804E+03  0.33464100567E+03  0.16823327782E+03 0.  0.
         24    2    3    3    0    0 -0.13855669875E+03  0.37597147599E+01  0.17346851666E+03  0.23583766605E+03  0.79473166755E+02 0.  0.
         -6    2    1    2    0  502  0.11349500561E+03  0.23041705787E+02  0.65892119368E+03  0.69106385654E+03  0.17314756086E+03 0.  0.
        -24    2    5    5    0    0  0.39818488826E+02  0.59079216016E+02  0.50919797605E+03  0.52028311065E+03  0.79599438423E+02 0.  0.
          5    1    3    3  501    0  0.25061693142E+02 -0.26801420547E+02  0.91616621385E+02  0.98803339622E+02  0.47000000000E+01 0. -1.
        -13    1    4    4    0    0 -0.74063747004E+02 -0.91174216467E+01  0.34746401527E+02  0.82315723995E+02  0.00000000000E+00 0.  1.
         14    1    4    4    0    0 -0.64492951748E+02  0.12877136407E+02  0.13872211513E+03  0.15352194206E+03  0.00000000000E+00 0. -1.
         -5    1    5    5    0  502  0.73676516785E+02 -0.36037510229E+02  0.14972321763E+03  0.17078074589E+03  0.47000000000E+01 0.  1.
         13    1    6    6    0    0  0.36538044202E+02  0.39967494454E+02  0.13322005817E+03  0.14380546994E+03  0.00000000000E+00 0. -1.
        -14    1    6    6    0    0  0.32804446237E+01  0.19111721562E+02  0.37597791789E+03  0.37647764071E+03  0.00000000000E+00 0.  1.
</event>
<event>
12    1  0.8331241E-002  0.3031077E+03  0.7818608E-02  0.1083819E+00
         21   -1    0    0  503  502  0.00000000000E+00  0.00000000000E+00  0.48218843491E+03  0.48218843491E+03  0.00000000000E+00 0.  1.
         21   -1    0    0  501  503 -0.00000000000E+00 -0.00000000000E+00 -0.56756244490E+03  0.56756244490E+03  0.00000000000E+00 0.  1.
          6    2    1    2  501    0 -0.24777031602E+03  0.12275023524E+02 -0.47080999926E+03  0.55940898767E+03  0.17244000225E+03 0.  0.
         24    2    3    3    0    0 -0.24490832145E+03  0.67837927413E+01 -0.32679065101E+03  0.41517997776E+03  0.74539778560E+02 0.  0.
         -6    2    1    2    0  502  0.24777031602E+03 -0.12275023524E+02  0.38543598926E+03  0.49034189215E+03  0.17416504721E+03 0.  0.
        -24    2    5    5    0    0  0.76964632123E+02  0.34976800429E+02  0.92386368191E+02  0.14784008642E+03  0.78578107368E+02 0.  0.
          5    1    3    3  501    0 -0.28619945714E+01  0.54912307824E+01 -0.14401934825E+03  0.14422900991E+03  0.47000000000E+01 0. -1.
        -13    1    4    4    0    0 -0.15414055484E+03  0.16742630154E+02 -0.25741224835E+03  0.30050073530E+03  0.00000000000E+00 0.  1.
         14    1    4    4    0    0 -0.90767766602E+02 -0.99588374129E+01 -0.69378402656E+02  0.11467924246E+03  0.00000000000E+00 0. -1.
         -5    1    5    5    0  502  0.17080568390E+03 -0.47251823953E+02  0.29304962107E+03  0.34250180573E+03  0.47000000000E+01 0.  1.
         11    1    6    6    0    0  0.12130172789E+02  0.21342867471E+02  0.75611530089E+02  0.79496934320E+02  0.00000000000E+00 0. -1.
        -12    1    6    6    0    0  0.64834459334E+02  0.13633932958E+02  0.16774838102E+02  0.68343152096E+02  0.00000000000E+00 0.  1.
</event>
<event>
12    1  0.8331241E-002  0.2011436E+03  0.7818608E-02  0.1148897E+00
         21   -1    0    0  503  502  0.00000000000E+00  0.00000000000E+00  0.19306516049E+03  0.19306516049E+03  0.00000000000E+00 0.  1.
         21   -1    0    0  501  503 -0.00000000000E+00 -0.00000000000E+00 -0.62210452429E+03  0.62210452429E+03  0.00000000000E+00 0. -1.
          6    2    1    2  501    0 -0.10279043702E+03  0.16887071871E+02 -0.54656728962E+03  0.58220711664E+03  0.17140092605E+03 0.  0.
         24    2    3    3    0    0 -0.15879771161E+02 -0.60264912600E+01 -0.41442073798E+03  0.42232185678E+03  0.79515513641E+02 0.  0.
         -6    2    1    2    0  502  0.10279043702E+03 -0.16887071871E+02  0.11752792582E+03  0.23296256814E+03  0.17206887478E+03 0.  0.
        -24    2    5    5    0    0  0.53001210182E+02 -0.34871952027E+02 -0.20370732293E+01  0.10211799614E+03  0.79992213056E+02 0.  0.
          5    1    3    3  501    0 -0.86910665854E+02  0.22913563131E+02 -0.13214655163E+03  0.15988525987E+03  0.47000000000E+01 0. -1.
        -11    1    4    4    0    0  0.22042981973E+02  0.24228340824E+02 -0.16047342154E+03  0.16378224744E+03  0.00000000000E+00 0.  1.
         12    1    4    4    0    0 -0.37922753135E+02 -0.30254832084E+02 -0.25394731644E+03  0.25853960934E+03  0.00000000000E+00 0. -1.
         -5    1    5    5    0  502  0.49789226834E+02  0.17984880156E+02  0.11956499905E+03  0.13084457200E+03  0.47000000000E+01 0.  1.
         13    1    6    6    0    0 -0.51781229653E+01 -0.38815345689E+02 -0.15760955270E+02  0.42211985614E+02  0.00000000000E+00 0. -1.
        -14    1    6    6    0    0  0.58179333147E+02  0.39433936621E+01  0.13723882041E+02  0.59906010527E+02  0.00000000000E+00 0.  1.
</event>
<event>
12    1  0.8331241E-002  0.1825889E+03  0.7818608E-02  0.1166504E+00
         21   -1    0    0  501  502  0.00000000000E+00  0.00000000000E+00  0.16039186896E+03  0.16039186896E+03  0.00000000000E+00 0.  1.
         21   -1    0    0  502  503 -0.00000000000E+00 -0.00000000000E+00 -0.33477217584E+03  0.33477217584E+03  0.00000000000E+00 0.  1.
         -6    2    1    2    0  503  0.35287728863E+02 -0.40341544108E+02 -0.24363830496E+03  0.30446399825E+03  0.17454523367E+03 0.  0.
        -24    2    3    3    0    0  0.35434286592E+01  0.39087838964E+02 -0.75620563914E+02  0.11586712978E+03  0.78525836736E+02 0.  0.
          6    2    1    2  501    0 -0.35287728863E+02  0.40341544108E+02  0.69257998083E+02  0.19070004654E+03  0.16940240099E+03 0.  0.
         24    2    5    5    0    0 -0.36896482313E+02 -0.25555535194E+02 -0.42293054304E+01  0.91869449426E+02  0.80047941431E+02 0.  0.
          5    1    5    5  501    0  0.16087534498E+01  0.65897079302E+02  0.73487303514E+02  0.98830597114E+02  0.47000000000E+01 0. -1.
        -11    1    6    6    0    0 -0.52513381359E+02  0.90881665942E+01  0.21470892917E+01  0.53337228895E+02  0.00000000000E+00 0.  1.
         12    1    6    6    0    0  0.15616899046E+02 -0.34643701788E+02 -0.63763947221E+01  0.38532220531E+02  0.00000000000E+00 0. -1.
         -5    1    3    3    0  503  0.31744300204E+02 -0.79429383072E+02 -0.16801774105E+03  0.18859686847E+03  0.47000000000E+01 0.  1.
         13    1    4    4    0    0 -0.20436163838E+02  0.14773363623E+02  0.72480086790E+01  0.26237810407E+02  0.00000000000E+00 0. -1.
        -14    1    4    4    0    0  0.23979592498E+02  0.24314475341E+02 -0.82868572593E+02  0.89629319372E+02  0.00000000000E+00 0.  1.
</event>
<event>
12    1  0.8331241E-002  0.2456300E+03  0.7818608E-02  0.1116266E+00
         21   -1    0    0  501  502  0.00000000000E+00  0.00000000000E+00  0.59012563490E+03  0.59012563490E+03  0.00000000000E+00 0. -1.
         21   -1    0    0  502  503 -0.00000000000E+00 -0.00000000000E+00 -0.11570414063E+03  0.11570414063E+03  0.00000000000E+00 0.  1.
         -6    2    1    2    0  503 -0.69765825507E+02  0.15930506857E+03  0.11446153921E+03  0.27004853593E+03  0.17198660564E+03 0.  0.
        -24    2    3    3    0    0  0.18772880349E+02  0.12486481626E+03  0.70636394486E+02  0.16532047511E+03  0.79985723030E+02 0.  0.
          6    2    1    2  501    0  0.69765825507E+02 -0.15930506857E+03  0.35995995506E+03  0.43578123960E+03  0.17346107417E+03 0.  0.
         24    2    5    5    0    0  0.29521641904E+00 -0.17042706980E+02  0.16870560997E+03  0.18745673503E+03  0.79924362096E+02 0.  0.
          5    1    5    5  501    0  0.69470609088E+02 -0.14226236159E+03  0.19125434509E+03  0.24832450457E+03  0.47000000000E+01 0. -1.
        -13    1    6    6    0    0 -0.13682718810E+02 -0.98959239713E+01 -0.11046184891E+01  0.16922360571E+02  0.00000000000E+00 0.  1.
         14    1    6    6    0    0  0.13977935229E+02 -0.71467830090E+01  0.16981022846E+03  0.17053437446E+03  0.00000000000E+00 0. -1.
         -5    1    3    3    0  503 -0.88538705855E+02  0.34440252319E+02  0.43825144723E+02  0.10472806083E+03  0.47000000000E+01 0.  1.
         11    1    4    4    0    0 -0.48438806371E+01  0.65481924163E+02  0.76887098920E+02  0.10110871155E+03  0.00000000000E+00 0. -1.
        -12    1    4    4    0    0  0.23616760986E+02  0.59382892093E+02 -0.62507044341E+01  0.64211763554E+02  0.00000000000E+00 0.  1.
</event>
<event>
12    1  0.8331241E-002  0.1872537E+03  0.7818608E-02  0.1161553E+00
         21   -1    0    0  501  502  0.00000000000E+00  0.00000000000E+00  0.14449899784E+04  0.14449899784E+04  0.00000000000E+00 0.  1.
         21   -1    0    0  502  503 -0.00000000000E+00 -0.00000000000E+00 -0.40753681484E+02  0.40753681484E+02  0.00000000000E+00 0. -1.
         -6    2    1    2    0  503  0.46359575349E+02  0.53279789620E+02  0.22774173719E+03  0.29483933803E+03  0.17342430678E+03 0.  0.
        -24    2    3    3    0    0 -0.27417389480E+02 -0.10683724327E+02  0.14296697835E+03  0.16544373767E+03  0.77885930847E+02 0.  0.
          6    2    1    2  501    0 -0.46359575349E+02 -0.53279789620E+02  0.11764945597E+04  0.11909043219E+04  0.17066255751E+03 0.  0.
         24    2    5    5    0    0  0.11471415321E+02 -0.67437674839E+02  0.88338946250E+03  0.89177632715E+03  0.10103782387E+03 0.  0.
          5    1    5    5  501    0 -0.57830990670E+02  0.14157885218E+02  0.29310509724E+03  0.29912799472E+03  0.47000000000E+01 0. -1.
        -11    1    6    6    0    0 -0.35978453607E+02 -0.21517916530E+02  0.16075770638E+03  0.16613401222E+03  0.00000000000E+00 0.  1.
         12    1    6    6    0    0  0.47449868928E+02 -0.45919758309E+02  0.72263175612E+03  0.72564231493E+03  0.00000000000E+00 0. -1.
         -5    1    3    3    0  503  0.73776964829E+02  0.63963513947E+02  0.84774758834E+02  0.12939560036E+03  0.47000000000E+01 0.  1.
         13    1    4    4    0    0  0.15236430717E+02  0.41679570696E+01  0.30093573915E+00  0.15799090146E+02  0.00000000000E+00 0. -1.
        -14    1    4    4    0    0 -0.42653820197E+02 -0.14851681396E+02  0.14266604262E+03  0.14964464753E+03  0.00000000000E+00 0.  1.
</event>
<event>
12    1  0.8331241E-002  0.1990102E+03  0.7818608E-02  0.1150827E+00
         21   -1    0    0  503  502  0.00000000000E+00  0.00000000000E+00  0.41295115498E+03  0.41295115498E+03  0.00000000000E+00 0. -1.
         21   -1    0    0  501  503 -0.00000000000E+00 -0.00000000000E+00 -0.10732539318E+03  0.10732539318E+03  0.00000000000E+00 0. -1.
          6    2    1    2  501    0 -0.12459536745E+02 -0.98183772698E+02  0.65482301208E+02  0.20838884913E+03  0.17129707351E+03 0.  0.
         24    2    3    3    0    0 -0.11235090729E+02 -0.71439596518E+02 -0.27193844783E+02  0.11180878771E+03  0.80819902257E+02 0.  0.
         -6    2    1    2    0  502  0.12459536745E+02  0.98183772698E+02  0.24014346059E+03  0.31188769903E+03  0.17265503718E+03 0.  0.
        -24    2    5    5    0    0 -0.33674461915E+02  0.78358370133E+02  0.23381290454E+03  0.26105898314E+03  0.78799205556E+02 0.  0.
          5    1    3    3  501    0 -0.12244460161E+01 -0.26744176180E+02  0.92676145991E+02  0.96580061417E+02  0.47000000000E+01 0. -1.
        -13    1    4    4    0    0  0.22296920071E+02  0.68142879201E+01 -0.60270622668E+01  0.24081375461E+02  0.00000000000E+00 0.  1.
         14    1    4    4    0    0 -0.33532010800E+02 -0.78253884438E+02 -0.21166782516E+02  0.87727412249E+02  0.00000000000E+00 0. -1.
         -5    1    5    5    0  502  0.46133998660E+02  0.19825402565E+02  0.63305560583E+01  0.50828715892E+02  0.47000000000E+01 0.  1.
         13    1    6    6    0    0 -0.43470573532E+02  0.15021911012E+02  0.14066030781E+03  0.14798875216E+03  0.00000000000E+00 0. -1.
        -14    1    6    6    0    0  0.97961116166E+01  0.63336459121E+02  0.93152596730E+02  0.11307023098E+03  0.00000000000E+00 0.  1.
</event>
<event>
12    1  0.8331241E-002  0.2589664E+03  0.7818608E-02  0.1107779E+00
         21   -1    0    0  503  502  0.00000000000E+00  0.00000000000E+00  0.34810183395E+03  0.34810183395E+03  0.00000000000E+00 0.  1.
         21   -1    0    0  501  503 -0.00000000000E+00 -0.00000000000E+00 -0.25269303852E+03  0.25269303852E+03  0.00000000000E+00 0. -1.
          6    2    1    2  501    0  0.18988386136E+03 -0.39184126101E+02 -0.98794777725E+02  0.27717144719E+03  0.17167506077E+03 0.  0.
         24    2    3    3    0    0  0.70993958149E+02  0.41849459028E+02 -0.34903155922E+02  0.11967389057E+03  0.79448665668E+02 0.  0.
         -6    2    1    2    0  502 -0.18988386136E+03  0.39184126101E+02  0.19420357316E+03  0.32362342529E+03  0.17153954944E+03 0.  0.
        -24    2    5    5    0    0 -0.65368505880E+02 -0.22484972744E+02  0.13720802261E+03  0.17336453442E+03  0.80315657029E+02 0.  0.
          5    1    3    3  501    0  0.11888990321E+03 -0.81033585129E+02 -0.63891621803E+02  0.15749755662E+03  0.47000000000E+01 0. -1.
        -11    1    4    4    0    0  0.46967484162E+02  0.48590601392E+01  0.18232716358E+02  0.50616074322E+02  0.00000000000E+00 0.  1.
         12    1    4    4    0    0  0.24026473987E+02  0.36990398889E+02 -0.53135872280E+02  0.69057816250E+02  0.00000000000E+00 0. -1.
         -5    1    5    5    0  502 -0.12451535548E+03  0.61669098845E+02  0.56995550543E+02  0.15025889087E+03  0.47000000000E+01 0.  1.
         11    1    6    6    0    0 -0.18621523451E+02  0.28951130469E+02  0.62301722557E+02  0.71178885385E+02  0.00000000000E+00 0. -1.
        -12    1    6    6    0    0 -0.46746982429E+02 -0.51436103214E+02  0.74906300057E+02  0.10218564903E+03  0.00000000000E+00 0.  1.
</event>
<event>
12    1  0.8331241E-002  0.2246079E+03  0.7818608E-02  0.1130852E+00
         21   -1    0    0  501  502  0.00000000000E+00  0.00000000000E+00  0.38914389130E+03  0.38914389130E+03  0.00000000000E+00 0.  1.
         21   -1    0    0  502  503 -0.00000000000E+00 -0.00000000000E+00 -0.18284042266E+03  0.18284042266E+03  0.00000000000E+00 0.  1.
         -6    2    1    2    0  503  0.12790431876E+03  0.66225617210E+02 -0.52429565569E+02  0.23064598212E+03  0.17234663498E+03 0.  0.
        -24    2    3    3    0    0  0.39915266968E+02  0.20916576906E+02  0.86871540745E+01  0.11423152516E+03  0.10460708852E+03 0.  0.
          6    2    1    2  501    0 -0.12790431876E+03 -0.66225617210E+02  0.25873303421E+03  0.34133833185E+03  0.16977551845E+03 0.  0.
         24    2    5    5    0    0 -0.15352440884E+02 -0.69969643089E+02  0.13422930021E+03  0.17339425567E+03  0.83166185856E+02 0.  0.
          5    1    5    5  501    0 -0.11255187788E+03  0.37440258798E+01  0.12450373399E+03  0.16794407617E+03  0.47000000000E+01 0. -1.
        -11    1    6    6    0    0 -0.43244699036E+02 -0.21714908645E+02  0.90219151616E+02  0.10237742217E+03  0.00000000000E+00 0.  1.
         12    1    6    6    0    0  0.27892258152E+02 -0.48254734444E+02  0.44010148594E+02  0.71016833500E+02  0.00000000000E+00 0. -1.
         -5    1    3    3    0  503  0.87989051793E+02  0.45309040303E+02 -0.61116719644E+02  0.11641445696E+03  0.47000000000E+01 0.  1.
         11    1    4    4    0    0  0.20382458985E+02 -0.42162691139E+02 -0.39562335895E+01  0.46997754654E+02  0.00000000000E+00 0. -1.
        -12    1    4    4    0    0  0.19532807984E+02  0.63079268045E+02  0.12643387664E+02  0.67233770506E+02  0.00000000000E+00 0.  1.
</event>
<event>
12    1  0.8331241E-002  0.2010123E+03  0.7818608E-02  0.1149097E+00
         21   -1    0    0  503  502  0.00000000000E+00  0.00000000000E+00  0.28286508437E+03  0.28286508437E+03  0.00000000000E+00 0.  1.
         21   -1    0    0  501  503 -0.00000000000E+00 -0.00000000000E+00 -0.21080457242E+03  0.21080457242E+03  0.00000000000E+00 0. -1.
          6    2    1    2  501    0 -0.97486839380E+02  0.27690844955E+02 -0.10478597671E+03  0.22668494599E+03  0.17359578646E+03 0.  0.
         24    2    3    3    0    0 -0.10049464667E+03  0.35839600308E+02 -0.12422165512E+02  0.13379461960E+03  0.79768659751E+02 0.  0.
         -6    2    1    2    0  502  0.97486839380E+02 -0.27690844955E+02  0.17684648865E+03  0.26698471079E+03  0.17244039115E+03 0.  0.
        -24    2    5    5    0    0  0.85289560044E+02  0.12471894199E+02  0.18905087360E+03  0.22302044972E+03  0.81043389554E+02 0.  0.
          5    1    3    3  501    0  0.30078072891E+01 -0.81487553527E+01 -0.92363811198E+02  0.92890326393E+02  0.47000000000E+01 0. -1.
        -13    1    4    4    0    0 -0.88718229000E+02  0.12472045011E+02 -0.37895756701E+02  0.97275713513E+02  0.00000000000E+00 0.  1.
         14    1    4    4    0    0 -0.11776417670E+02  0.23367555297E+02  0.25473591189E+02  0.36518906086E+02  0.00000000000E+00 0. -1.
         -5    1    5    5    0  502  0.12197279336E+02 -0.40162739154E+02 -0.12204384942E+02  0.43964261069E+02  0.47000000000E+01 0.  1.
         11    1    6    6    0    0  0.25573086104E+02 -0.33029462994E+02  0.51465070819E+02  0.66284098190E+02  0.00000000000E+00 0. -1.
        -12    1    6    6    0    0  0.59716473940E+02  0.45501357193E+02  0.13758580278E+03  0.15673635153E+03  0.00000000000E+00 0.  1.
</event>
<event>
12    1  0.8331241E-002  0.1880461E+03  0.7818608E-02  0.1160356E+00
         21   -1    0    0  503  502  0.00000000000E+00  0.00000000000E+00  0.53671555054E+02  0.53671555054E+02  0.00000000000E+00 0. -1.
         21   -1    0    0  501  503 -0.00000000000E+00 -0.00000000000E+00 -0.80160682687E+03  0.80160682687E+03  0.00000000000E+00 0. -1.
          6    2    1    2  501    0 -0.49319514076E+02  0.62366073911E+02 -0.55516522069E+03  0.58598001561E+03  0.16982995845E+03 0.  0.
         24    2    3    3    0    0 -0.41164915103E+02  0.92326601319E+01 -0.13798339155E+03  0.16532288004E+03  0.80699727828E+02 0.  0.
         -6    2    1    2    0  502  0.49319514076E+02 -0.62366073911E+02 -0.19277005113E+03  0.26929836632E+03  0.17040943590E+03 0.  0.
        -24    2    5    5    0    0  0.29761788226E+02 -0.94679401163E+02 -0.81201569596E+02  0.15141591712E+03  0.80517898681E+02 0.  0.
          5    1    3    3  501    0 -0.81545989727E+01  0.53133413779E+02 -0.41718182914E+03  0.42065713557E+03  0.47000000000E+01 0. -1.
        -13    1    4    4    0    0 -0.42125336258E+02 -0.15213989746E+02 -0.13302148951E+03  0.14035927511E+03  0.00000000000E+00 0.  1.
         14    1    4    4    0    0  0.96042115457E+00  0.24446649878E+02 -0.49619020436E+01  0.24963604927E+02  0.00000000000E+00 0. -1.
         -5    1    5    5    0  502  0.19557725850E+02  0.32313327251E+02 -0.11156848153E+03  0.11788244920E+03  0.47000000000E+01 0.  1.
         11    1    6    6    0    0  0.20429828408E+02 -0.10027707047E+03 -0.90870593683E+02  0.13685880880E+03  0.00000000000E+00 0. -1.
        -12    1    6    6    0    0  0.93319598179E+01  0.55976693037E+01  0.96690240871E+01  0.14557108314E+02  0.00000000000E+00 0.  1.
</event>
<event>
12    1  0.8331241E-002  0.2054963E+03  0.7818608E-02  0.1146173E+00
         21   -1    0    0  501  502  0.00000000000E+00  0.00000000000E+00  0.14110055896E+03  0.14110055896E+03  0.00000000000E+00 0. -1.
         21   -1    0    0  502  503 -0.00000000000E+00 -0.00000000000E+00 -0.33997906470E+03  0.33997906470E+03  0.00000000000E+00 0. -1.
         -6    2    1    2    0  503  0.10014558721E+03  0.50172441751E+02 -0.18847225820E+03  0.27532000080E+03  0.16653197345E+03 0.  0.
        -24    2    3    3    0    0  0.88596989725E+02  0.85644932793E+02 -0.95690940394E+02  0.17520940866E+03  0.79731422337E+02 0.  0.
          6    2    1    2  501    0 -0.10014558721E+03 -0.50172441751E+02 -0.10406247533E+02  0.20575962286E+03  0.17228557648E+03 0.  0.
         24    2    5    5    0    0  0.32118245795E+01  0.14906107450E+02 -0.20330646755E+02  0.83127833193E+02  0.79147922256E+02 0.  0.
          5    1    5    5  501    0 -0.10335741179E+03 -0.65078549201E+02  0.99243992226E+01  0.12263178967E+03  0.47000000000E+01 0. -1.
        -11    1    6    6    0    0 -0.24385833254E+02  0.32744873646E+02 -0.27844362740E+02  0.49418661960E+02  0.00000000000E+00 0.  1.
         12    1    6    6    0    0  0.27597657834E+02 -0.17838766196E+02  0.75137159844E+01  0.33709171233E+02  0.00000000000E+00 0. -1.
         -5    1    3    3    0  503  0.11548597484E+02 -0.35472491042E+02 -0.92781317807E+02  0.10011059214E+03  0.47000000000E+01 0.  1.
         13    1    4    4    0    0  0.74084493602E+02  0.39401655532E+02 -0.21552719968E+02  0.86634418039E+02  0.00000000000E+00 0. -1.
        -14    1    4    4    0    0  0.14512496123E+02  0.46243277261E+02 -0.74138220425E+02  0.88574990621E+02  0.00000000000E+00 0.  1.
</event>
<event>
12    1  0.8331241E-002  0.1909944E+03  0.7818608E-02  0.1159105E+00
         21   -1    0    0  503  502  0.00000000000E+00  0.00000000000E+00  0.13750541069E+03  0.13750541069E+03  0.00000000000E+00 0. -1.
         21   -1    0    0  501  503 -0.00000000000E+00 -0.00000000000E+00 -0.38461895429E+03  0.38461895429E+03  0.00000000000E+00 0. -1.
          6    2    1    2  501    0 -0.57981316692E+02 -0.38288562761E+02 -0.27597341099E+03  0.33561910676E+03  0.17790731891E+03 0.  0.
         24    2    3    3    0    0 -0.96073249695E+00 -0.39212907972E+02 -0.50283749194E+02  0.10278844967E+03  0.80612869905E+02 0.  0.
         -6    2    1    2    0  502  0.57981316692E+02  0.38288562761E+02  0.28859867392E+02  0.18650525822E+03  0.17065600568E+03 0.  0.
        -24    2    5    5    0    0  0.59729581714E+02  0.39910716751E+02 -0.39296978137E+02  0.11814493781E+03  0.85167397492E+02 0.  0.
          5    1    3    3  501    0 -0.57020584195E+02  0.92434521131E+00 -0.22568966180E+03  0.23283065709E+03  0.47000000000E+01 0. -1.
        -11    1    4    4    0    0  0.97169852735E+01  0.14919386628E+02  0.10521557337E+02  0.20681176682E+02  0.00000000000E+00 0.  1.
         12    1    4    4    0    0 -0.10677717770E+02 -0.54132294600E+02 -0.60805306532E+02  0.82107272990E+02  0.00000000000E+00 0. -1.
         -5    1    5    5    0  502 -0.17482650219E+01 -0.16221539903E+01  0.68156845530E+02  0.68360320411E+02  0.47000000000E+01 0.  1.
         11    1    6    6    0    0  0.95315362775E+01  0.53181481265E+02 -0.17288208302E+01  0.54056534802E+02  0.00000000000E+00 0. -1.
        -12    1    6    6    0    0  0.50198045436E+02 -0.13270764513E+02 -0.37568157307E+02  0.64088403006E+02  0.00000000000E+00 0.  1.
</event>
<event>
12    1  0.8331241E-002  0.1771420E+03  0.7818608E-02  0.1170989E+00
         21   -1    0    0  501  502  0.00000000000E+00  0.00000000000E+00  0.37059545072E+03  0.37059545072E+03  0.00000000000E+00 0. -1.
         21   -1    0    0  502  503 -0.00000000000E+00 -0.00000000000E+00 -0.94715928189E+02  0.94715928189E+02  0.00000000000E+00 0. -1.
         -6    2    1    2    0  503  0.18317989001E+02  0.33527803714E+02  0.58855395059E+02  0.18517078834E+03  0.17136102528E+03 0.  0.
        -24    2    3    3    0    0  0.21765068921E+01 -0.45303349947E+02  0.51797251636E+02  0.10425845541E+03  0.78292653224E+02 0.  0.
          6    2    1    2  501    0 -0.18317989001E+02 -0.33527803714E+02  0.21702412747E+03  0.28014059057E+03  0.17297287716E+03 0.  0.
         24    2    5    5    0    0 -0.60575688592E+02 -0.54068683385E+02  0.20034360305E+03  0.23006094592E+03  0.78725110262E+02 0.  0.
          5    1    5    5  501    0  0.42257699591E+02  0.20540879672E+02  0.16680524426E+02  0.50079644642E+02  0.47000000000E+01 0. -1.
        -13    1    6    6    0    0 -0.61305229924E+01  0.38811603344E+01 -0.56871837300E+01  0.92190442281E+01  0.00000000000E+00 0.  1.
         14    1    6    6    0    0 -0.54445165600E+02 -0.57949843720E+02  0.20603078678E+03  0.22084190170E+03  0.00000000000E+00 0. -1.
         -5    1    3    3    0  503  0.16141482109E+02  0.78831153661E+02  0.70581434227E+01  0.80912332933E+02  0.47000000000E+01 0.  1.
         13    1    4    4    0    0  0.28672370958E+02 -0.51535259991E+02  0.19708499872E+02  0.62180486054E+02  0.00000000000E+00 0. -1.
        -14    1    4    4    0    0 -0.26495864066E+02  0.62319100442E+01  0.32088751764E+02  0.42077969357E+02  0.00000000000E+00 0.  1.
</event>
<event>
12    1  0.8331241E-002  0.1764413E+03  0.7818608E-02  0.1171860E+00
         21   -1    0    0  501  502  0.00000000000E+00  0.00000000000E+00  0.14634883543E+03  0.14634883543E+03  0.00000000000E+00 0.  1.
         21   -1    0    0  502  503 -0.00000000000E+00 -0.00000000000E+00 -0.56521598937E+03  0.56521598937E+03  0.00000000000E+00 0.  1.
         -6    2    1    2    0  503  0.84636526302E+01 -0.35498290994E+02 -0.49198493004E+03  0.52266690347E+03  0.17262606560E+03 0.  0.
        -24    2    3    3    0    0 -0.13818457057E+02  0.81376208376E+01 -0.10502091571E+03  0.13258508693E+03  0.79323652912E+02 0.  0.
          6    2    1    2  501    0 -0.84636526302E+01  0.35498290994E+02  0.73117776100E+02  0.18889792133E+03  0.17030693885E+03 0.  0.
         24    2    5    5    0    0 -0.37551898135E+02 -0.33414051828E+02  0.65846348026E+02  0.11359851439E+03  0.77731827520E+02 0.  0.
          5    1    5    5  501    0  0.29088245504E+02  0.68912342823E+02  0.72714280742E+01  0.75299406944E+02  0.47000000000E+01 0. -1.
        -13    1    6    6    0    0 -0.27526762485E+02 -0.40699273121E+02  0.80559977396E+02  0.94361345071E+02  0.00000000000E+00 0.  1.
         14    1    6    6    0    0 -0.10025135650E+02  0.72852212927E+01 -0.14713629370E+02  0.19237169317E+02  0.00000000000E+00 0. -1.
         -5    1    3    3    0  503  0.22282109687E+02 -0.43635911832E+02 -0.38696401433E+03  0.39008181654E+03  0.47000000000E+01 0.  1.
         13    1    4    4    0    0 -0.37654487666E+02  0.20219615613E+02 -0.94772619278E+02  0.10396414123E+03  0.00000000000E+00 0. -1.
        -14    1    4    4    0    0  0.23836030609E+02 -0.12081994775E+02 -0.10248296429E+02  0.28620945698E+02  0.00000000000E+00 0.  1.
</event>
<event>
12    1  0.8331241E-002  0.3028089E+03  0.7818608E-02  0.1083896E+00
         21   -1    0    0  501  502  0.00000000000E+00  0.00000000000E+00  0.75520181903E+03  0.75520181903E+03  0.00000000000E+00 0. -1.
         21   -1    0    0  502  503 -0.00000000000E+00 -0.00000000000E+00 -0.12390585718E+03  0.12390585718E+03  0.00000000000E+00 0.  1.
         -6    2    1    2    0  503  0.21456024808E+03  0.12665618963E+03  0.25107370009E+03  0.39303960421E+03  0.17135996374E+03 0.  0.
        -24    2    3    3    0    0  0.57760951563E+02  0.94543239477E+02  0.15229272532E+03  0.20489861470E+03  0.80719368594E+02 0.  0.
          6    2    1    2  501    0 -0.21456024808E+03 -0.12665618963E+03  0.38022226176E+03  0.48606807199E+03  0.17209099873E+03 0.  0.
         24    2    5    5    0    0 -0.76106902823E+02 -0.51305191627E+00  0.17149201312E+03  0.20558308718E+03  0.84037915801E+02 0.  0.
          5    1    5    5  501    0 -0.13845334526E+03 -0.12614313771E+03  0.20873024865E+03  0.28048498481E+03  0.47000000000E+01 0. -1.
        -13    1    6    6    0    0 -0.69366723337E+01 -0.12128867369E+02 -0.56418188647E+01  0.15068409565E+02  0.00000000000E+00 0.  1.
         14    1    6    6    0    0 -0.69170230489E+02  0.11615815452E+02  0.17713383198E+03  0.19051467762E+03  0.00000000000E+00 0. -1.
         -5    1    3    3    0  503  0.15679929652E+03  0.32112950150E+02  0.98780974769E+02  0.18814098951E+03  0.47000000000E+01 0.  1.
         11    1    4    4    0    0  0.73296322944E+02  0.49549501583E+02  0.11050170098E+03  0.14155610189E+03  0.00000000000E+00 0. -1.
        -12    1    4    4    0    0 -0.15535371381E+02  0.44993737893E+02  0.41791024339E+02  0.63342512809E+02  0.00000000000E+00 0.  1.
</event>
<event>
12    1  0.8331241E-002  0.1744036E+03  0.7818608E-02  0.1173548E+00
         21   -1    0    0  503  502  0.00000000000E+00  0.00000000000E+00  0.71395331912E+03  0.71395331912E+03  0.00000000000E+00 0. -1.
         21   -1    0    0  501  503 -0.00000000000E+00 -0.00000000000E+00 -0.45003064639E+02  0.45003064639E+02  0.00000000000E+00 0. -1.
          6    2    1    2  501    0  0.65481344950E+01 -0.21426096705E+02  0.42661856935E+03  0.46089045076E+03  0.17295851583E+03 0.  0.
         24    2    3    3    0    0 -0.49142318931E+02 -0.28529698009E+02  0.15432127141E+03  0.18282607652E+03  0.79883717158E+02 0.  0.
         -6    2    1    2    0  502 -0.65481344950E+01  0.21426096705E+02  0.24233168513E+03  0.29806593300E+03  0.17209502931E+03 0.  0.
        -24    2    5    5    0    0 -0.23023759709E+02  0.41900572857E+02  0.54306641687E+02  0.10815501346E+03  0.80389950171E+02 0.  0.
          5    1    3    3  501    0  0.55690453426E+02  0.71036013038E+01  0.27229729794E+03  0.27806437424E+03  0.47000000000E+01 0. -1.
        -11    1    4    4    0    0 -0.66159994110E+02 -0.26463451598E+02  0.14851895963E+03  0.16472808037E+03  0.00000000000E+00 0.  1.
         12    1    4    4    0    0  0.17017675178E+02 -0.20662464110E+01  0.58023117768E+01  0.18097996151E+02  0.00000000000E+00 0. -1.
         -5    1    5    5    0  502  0.16475625214E+02 -0.20474476151E+02  0.18802504344E+03  0.18991091954E+03  0.47000000000E+01 0.  1.
         13    1    6    6    0    0 -0.10190898002E+02 -0.88739613677E+00 -0.19420963898E+02  0.21950300971E+02  0.00000000000E+00 0. -1.
        -14    1    6    6    0    0 -0.12832861707E+02  0.42787968994E+02  0.73727605585E+02  0.86204712490E+02  0.00000000000E+00 0.  1.
</event>
<event>
12    1  0.8331241E-002  0.2077744E+03  0.7818608E-02  0.1143365E+00
         21   -1    0    0  503  502  0.00000000000E+00  0.00000000000E+00  0.56526036160E+03  0.56526036160E+03  0.00000000000E+00 0.  1.
         21   -1    0    0  501  503 -0.00000000000E+00 -0.00000000000E+00 -0.79454612421E+02  0.79454612421E+02  0.00000000000E+00 0.  1.
          6    2    1    2  501    0 -0.67857619184E+02  0.94305767915E+02  0.30691631682E+03  0.37063167283E+03  0.17225555732E+03 0.  0.
         24    2    3    3    0    0 -0.89329255333E+02  0.12198519650E+03  0.23303183319E+03  0.28872813904E+03  0.78740072190E+02 0.  0.
         -6    2    1    2    0  502  0.67857619184E+02 -0.94305767915E+02  0.17888943236E+03  0.27408330119E+03  0.17211040829E+03 0.  0.
        -24    2    5    5    0    0  0.16693382697E+02 -0.10566909168E+03  0.17594633501E+03  0.22137982840E+03  0.81285236407E+02 0.  0.
          5    1    3    3  501    0  0.21471636149E+02 -0.27679428584E+02  0.73884483633E+02  0.81903533791E+02  0.47000000000E+01 0. -1.
        -11    1    4    4    0    0 -0.90402020602E+02  0.88175101201E+02  0.21750659527E+03  0.25150843482E+03  0.00000000000E+00 0.  1.
         12    1    4    4    0    0  0.10727652692E+01  0.33810095298E+02  0.15525237920E+02  0.37219704215E+02  0.00000000000E+00 0. -1.
         -5    1    5    5    0  502  0.51164236487E+02  0.11363323766E+02  0.29430973477E+01  0.52703472792E+02  0.47000000000E+01 0.  1.
         13    1    6    6    0    0 -0.32002177764E+02 -0.35758621381E+02  0.49806322938E+02  0.69162765918E+02  0.00000000000E+00 0. -1.
        -14    1    6    6    0    0  0.48695560461E+02 -0.69910470299E+02  0.12614001207E+03  0.15221706249E+03  0.00000000000E+00 0.  1.
</event>
<event>
12    1  0.8331241E-002  0.2063463E+03  0.7818608E-02  0.1146450E+00
         21   -1    0    0  501  502  0.00000000000E+00  0.00000000000E+00  0.64061961496E+03  0.64061961496E+03  0.00000000000E+00 0.  1.
         21   -1    0    0  502  503 -0.00000000000E+00 -0.00000000000E+00 -0.66351465115E+02  0.66351465115E+02  0.00000000000E+00 0.  1.
         -6    2    1    2    0  503 -0.61595321054E+01 -0.91455880527E+02  0.21982576162E+03  0.30149983066E+03  0.18486931734E+03 0.  0.
        -24    2    3    3    0    0 -0.18332079828E+01  0.28557525642E+02  0.99731932370E+02  0.13159823394E+03  0.80949020505E+02 0.  0.
          6    2    1    2  501    0  0.61595321054E+01  0.91455880527E+02  0.35444238822E+03  0.40547124942E+03  0.17428542572E+03 0.  0.
         24    2    5    5    0    0  0.11684553963E+02  0.12265066167E+03  0.33965231166E+03  0.37019410948E+03  0.80624266024E+02 0.  0.
          5    1    5    5  501    0 -0.55250218576E+01 -0.31194781145E+02  0.14790076563E+02  0.35277139934E+02  0.47000000000E+01 0. -1.
        -13    1    6    6    0    0  0.29875931405E+02  0.32027846291E+02  0.18422279563E+03  0.18935784284E+03  0.00000000000E+00 0.  1.
         14    1    6    6    0    0 -0.18191377442E+02  0.90622815381E+02  0.15542951603E+03  0.18083626664E+03  0.00000000000E+00 0. -1.
         -5    1    3    3    0  503 -0.43263241226E+01 -0.12001340617E+03  0.12009382925E+03  0.16990159671E+03  0.47000000000E+01 0.  1.
         11    1    4    4    0    0 -0.35433588901E+02 -0.76479773273E+01  0.46839586661E+02  0.59228182972E+02  0.00000000000E+00 0. -1.
        -12    1    4    4    0    0  0.33600380918E+02  0.36205502969E+02  0.52892345709E+02  0.72370050972E+02  0.00000000000E+00 0.  1.
</event>
<event>
12    1  0.8331241E-002  0.2026098E+03  0.7818608E-02  0.1149174E+00
         21   -1    0    0  501  502  0.00000000000E+00  0.00000000000E+00  0.16058709008E+04  0.16058709008E+04  0.00000000000E+00 0. -1.
         21   -1    0    0  502  503 -0.00000000000E+00 -0.00000000000E+00 -0.32831099489E+02  0.32831099489E+02  0.00000000000E+00 0. -1.
         -6    2    1    2    0  503  0.86395357492E+02 -0.32485306539E+02  0.36518167878E+03  0.41396857134E+03  0.17173487300E+03 0.  0.
        -24    2    3    3    0    0 -0.57420484385E+01 -0.52305334551E+02  0.23052774319E+03  0.24954257749E+03  0.79747341397E+02 0.  0.
          6    2    1    2  501    0 -0.86395357492E+02  0.32485306539E+02  0.12078581226E+04  0.12247334290E+04  0.18036428384E+03 0.  0.
         24    2    5    5    0    0 -0.62444446702E+02 -0.16016148057E+02  0.33655078166E+03  0.35173594357E+03  0.79346830053E+02 0.  0.
          5    1    5    5  501    0 -0.23950910790E+02  0.48501454596E+02  0.87130734091E+03  0.87299748542E+03  0.47000000000E+01 0. -1.
        -11    1    6    6    0    0 -0.49465401255E+02  0.27533564040E+02  0.17628458286E+03  0.18515176809E+03  0.00000000000E+00 0.  1.
         12    1    6    6    0    0 -0.12979045447E+02 -0.43549712097E+02  0.16026619880E+03  0.16658417548E+03  0.00000000000E+00 0. -1.
         -5    1    3    3    0  503  0.92137405930E+02  0.19820028012E+02  0.13465393559E+03  0.16442599384E+03  0.47000000000E+01 0.  1.
         13    1    4    4    0    0  0.34743594901E+02 -0.14697954431E+02  0.66472638114E+02  0.76431399758E+02  0.00000000000E+00 0. -1.
        -14    1    4    4    0    0 -0.40485643340E+02 -0.37607380121E+02  0.16405510507E+03  0.17311117773E+03  0.00000000000E+00 0.  1.
</event>
<event>
12    1  0.8331241E-002  0.1785089E+03  0.7818608E-02  0.1169444E+00
         21   -1    0    0  501  502  0.00000000000E+00  0.00000000000E+00  0.50462151573E+03  0.50462151573E+03  0.00000000000E+00 0. -1.
         21   -1    0    0  502  503 -0.00000000000E+00 -0.00000000000E+00 -0.87634591315E+02  0.87634591315E+02  0.00000000000E+00 0. -1.
         -6    2    1    2    0  503  0.20116696563E+02 -0.45085370989E+02  0.50762361231E+02  0.18484250841E+03  0.17074121776E+03 0.  0.
        -24    2    3    3    0    0  0.49246297002E+02  0.20041835298E+02  0.57879452930E+02  0.11298967538E+03  0.81177353621E+02 0.  0.
          6    2    1    2  501    0 -0.20116696563E+02  0.45085370989E+02  0.36622456319E+03  0.40741359863E+03  0.17154602156E+03 0.  0.
         24    2    5    5    0    0  0.44200249471E+02 -0.10048087387E+02  0.21570421775E+03  0.23462808949E+03  0.80420176006E+02 0.  0.
          5    1    5    5  501    0 -0.64316946034E+02  0.55133458377E+02  0.15052034544E+03  0.17278550915E+03  0.47000000000E+01 0. -1.
        -11    1    6    6    0    0 -0.18573751478E+02  0.12443256518E+01  0.14617972904E+02  0.23668918905E+02  0.00000000000E+00 0.  1.
         12    1    6    6    0    0  0.62774000949E+02 -0.11292413039E+02  0.20108624484E+03  0.21095917058E+03  0.00000000000E+00 0. -1.
         -5    1    3    3    0  503 -0.29129600439E+02 -0.65127206287E+02 -0.71170916989E+01  0.71852833033E+02  0.47000000000E+01 0.  1.
         13    1    4    4    0    0  0.37241080058E+02  0.27337505546E+02 -0.68948564730E+01  0.46709488321E+02  0.00000000000E+00 0. -1.
        -14    1    4    4    0    0  0.12005216944E+02 -0.72956702477E+01  0.64774309403E+02  0.66280187061E+02  0.00000000000E+00 0.  1.
</event>
<event>
12    1  0.8331241E-002  0.1939580E+03  0.7818608E-02  0.1156191E+00
         21   -1    0    0  503  502  0.00000000000E+00  0.00000000000E+00  0.49512014738E+03  0.49512014738E+03  0.00000000000E+00 0. -1.
         21   -1    0    0  501  503 -0.00000000000E+00 -0.00000000000E+00 -0.53014275782E+03  0.53014275782E+03  0.00000000000E+00 0. -1.
          6    2    1    2  501    0 -0.70854134744E+02 -0.30937956491E+02 -0.49308296749E+03  0.52783049658E+03  0.17174619274E+03 0.  0.
         24    2    3    3    0    0 -0.28955032609E+02 -0.18169045538E+02 -0.47110656889E+03  0.47860010005E+03  0.77124239930E+02 0.  0.
         -6    2    1    2    0  502  0.70854134744E+02  0.30937956491E+02  0.45806035705E+03  0.49743240863E+03  0.17788267170E+03 0.  0.
        -24    2    5    5    0    0  0.26849745497E+02 -0.11202771958E+02  0.94268707734E+02  0.12854396834E+03  0.82404803293E+02 0.  0.
          5    1    3    3  501    0 -0.41899102134E+02 -0.12768910953E+02 -0.21976398597E+02  0.49230396524E+02  0.47000000000E+01 0. -1.
        -11    1    4    4    0    0 -0.36307632707E+02  0.20851075765E+02 -0.30234572413E+03  0.30523097558E+03  0.00000000000E+00 0.  1.
         12    1    4    4    0    0  0.73526000978E+01 -0.39020121303E+02 -0.16876084477E+03  0.17336912447E+03  0.00000000000E+00 0. -1.
         -5    1    5    5    0  502  0.44004389246E+02  0.42140728449E+02  0.36379164931E+03  0.36888844029E+03  0.47000000000E+01 0.  1.
         13    1    6    6    0    0  0.16651868805E+02  0.35628827714E+02  0.38980732573E+02  0.55373239122E+02  0.00000000000E+00 0. -1.
        -14    1    6    6    0    0  0.10197876693E+02 -0.46831599672E+02  0.55287975161E+02  0.73170729218E+02  0.00000000000E+00 0.  1.
</event>
<event>
12    1  0.8331241E-002  0.2175861E+03  0.7818608E-02  0.1136407E+00
         21   -1    0    0  503  502  0.00000000000E+00  0.00000000000E+00  0.49457345501E+03  0.49457345501E+03  0.00000000000E+00 0. -1.
         21   -1    0    0  501  503 -0.00000000000E+00 -0.00000000000E+00 -0.95124201270E+02  0.95124201270E+02  0.00000000000E+00 0. -1.
          6    2    1    2  501    0  0.12821220082E+03 -0.21397321683E+02  0.17074707309E+03  0.27658318186E+03  0.17449206202E+03 0.  0.
         24    2    3    3    0    0  0.99986765110E+02 -0.71298689657E+02  0.16074460317E+03  0.21819687224E+03  0.81793589390E+02 0.  0.
         -6    2    1    2    0  502 -0.12821220082E+03  0.21397321683E+02  0.22870218065E+03  0.31311447442E+03  0.16982276890E+03 0.  0.
        -24    2    5    5    0    0 -0.82663649303E+02  0.58977278178E+02  0.76185143343E+02  0.14949766493E+03  0.78954274722E+02 0.  0.
          5    1    3    3  501    0  0.28225435713E+02  0.49901367974E+02  0.10002469921E+02  0.58386309623E+02  0.47000000000E+01 0. -1.
        -11    1    4    4    0    0 -0.45055543352E+01 -0.22086256479E+02  0.30776547490E+01  0.22750268216E+02  0.00000000000E+00 0.  1.
         12    1    4    4    0    0  0.10449231945E+03 -0.49212433178E+02  0.15766694842E+03  0.19544660403E+03  0.00000000000E+00 0. -1.
         -5    1    5    5    0  502 -0.45548551521E+02 -0.37579956495E+02  0.15251703731E+03  0.16361680948E+03  0.47000000000E+01 0.  1.
         11    1    6    6    0    0 -0.77571544585E+02  0.77208353450E+02  0.68180067569E+02  0.12894570945E+03  0.00000000000E+00 0. -1.
        -12    1    6    6    0    0 -0.50921047175E+01 -0.18231075272E+02  0.80050757739E+01  0.20551955483E+02  0.00000000000E+00 0.  1.
</event>
<event>
12    1  0.8331241E-002  0.1952343E+03  0.7818608E-02  0.1153854E+00
         21   -1    0    0  501  502  0.00000000000E+00  0.00000000000E+00  0.29589137092E+03  0.29589137092E+03  0.00000000000E+00 0. -1.
         21   -1    0    0  502  503 -0.00000000000E+00 -0.00000000000E+00 -0.13952551522E+03  0.13952551522E+03  0.00000000000E+00 0.  1.
         -6    2    1    2    0  503  0.80780817602E+02 -0.45111168782E+02  0.17643300890E+02  0.19602987612E+03  0.17191820213E+03 0.  0.
        -24    2    3    3    0    0  0.65890956506E+02 -0.87355787119E+02 -0.20549536582E+02  0.13697821589E+03  0.79800353890E+02 0.  0.
          6    2    1    2  501    0 -0.80780817602E+02  0.45111168782E+02  0.13872255481E+03  0.23938701002E+03  0.17176040089E+03 0.  0.
         24    2    5    5    0    0 -0.30554627892E+02  0.89178826806E+02  0.67513853092E+02  0.14162506540E+03  0.81320909693E+02 0.  0.
          5    1    5    5  501    0 -0.50226189710E+02 -0.44067658023E+02  0.71208701715E+02  0.97761944622E+02  0.47000000000E+01 0. -1.
        -13    1    6    6    0    0 -0.58756152753E+01  0.42190044888E+02 -0.13577353834E+02  0.44708693558E+02  0.00000000000E+00 0.  1.
         14    1    6    6    0    0 -0.24679012617E+02  0.46988781917E+02  0.81091206926E+02  0.96916371839E+02  0.00000000000E+00 0. -1.
         -5    1    3    3    0  503  0.14889861096E+02  0.42244618337E+02  0.38192837472E+02  0.59051660231E+02  0.47000000000E+01 0.  1.
         11    1    4    4    0    0 -0.12724855637E+02 -0.31405172548E+02 -0.22131175802E+02  0.40472160260E+02  0.00000000000E+00 0. -1.
        -12    1    4    4    0    0  0.78615812143E+02 -0.55950614572E+02  0.15816392205E+01  0.96506055626E+02  0.00000000000E+00 0.  1.
</event>
<event>
12    1  0.8331241E-002  0.1992224E+03  0.7818608E-02  0.1150570E+00
         21   -1    0    0  503  502  0.00000000000E+00  0.00000000000E+00  0.75501861428E+03  0.75501861428E+03  0.00000000000E+00 0.  1.
         21   -1    0    0  501  503 -0.00000000000E+00 -0.00000000000E+00 -0.17700528281E+03  0.17700528281E+03  0.00000000000E+00 0.  1.
          6    2    1    2  501    0  0.98306269887E+02  0.11192180449E+02 -0.10188783835E+03  0.22376486281E+03  0.17291672743E+03 0.  0.
         24    2    3    3    0    0  0.13444817241E+03 -0.10218422397E+02 -0.76613291510E+02  0.17451505317E+03  0.80032369228E+02 0.  0.
         -6    2    1    2    0  502 -0.98306269887E+02 -0.11192180449E+02  0.67990116982E+03  0.70825903428E+03  0.17197636846E+03 0.  0.
        -24    2    5    5    0    0 -0.74682983085E+02  0.34297667519E+02  0.25161103380E+03  0.27688690193E+03  0.81267251552E+02 0.  0.
          5    1    3    3  501    0 -0.36141902527E+02  0.21410602846E+02 -0.25274546836E+02  0.49249809647E+02  0.47000000000E+01 0. -1.
        -13    1    4    4    0    0  0.35457504659E+02 -0.31575520496E+02 -0.51767555169E+02  0.70243347724E+02  0.00000000000E+00 0.  1.
         14    1    4    4    0    0  0.98990667755E+02  0.21357098099E+02 -0.24845736341E+02  0.10427170544E+03  0.00000000000E+00 0. -1.
         -5    1    5    5    0  502 -0.23623286803E+02 -0.45489847968E+02  0.42829013602E+03  0.43137213234E+03  0.47000000000E+01 0.  1.
         13    1    6    6    0    0 -0.14592491335E+02  0.39734737522E+02  0.17120633956E+03  0.17636156292E+03  0.00000000000E+00 0. -1.
        -14    1    6    6    0    0 -0.60090491749E+02 -0.54370700030E+01  0.80404694233E+02  0.10052533901E+03  0.00000000000E+00 0.  1.
</event>
<event>
12    1  0.8331241E-002  0.1947248E+03  0.7818608E-02  0.1154837E+00
         21   -1    0    0  503  502  0.00000000000E+00  0.00000000000E+00  0.12777594592E+03  0.12777594592E+03  0.00000000000E+00 0. -1.
         21   -1    0    0  501  503 -0.00000000000E+00 -0.00000000000E+00 -0.78053245356E+03  0.78053245356E+03  0.00000000000E+00 0. -1.
          6    2    1    2  501    0 -0.82356505189E+02 -0.42816203993E+02 -0.68455178125E+03  0.71100488840E+03  0.16822897742E+03 0.  0.
         24    2    3    3    0    0 -0.90954761708E+01 -0.55000203177E+02 -0.21808366740E+03  0.23863827289E+03  0.79246383296E+02 0.  0.
         -6    2    1    2    0  502  0.82356505189E+02  0.42816203993E+02  0.31795273609E+02  0.19730351109E+03  0.17117802077E+03 0.  0.
        -24    2    5    5    0    0  0.57099391347E+02  0.10273598259E+03  0.12874337649E+02  0.12941836187E+03  0.52615028364E+02 0.  0.
          5    1    3    3  501    0 -0.73261029018E+02  0.12183999184E+02 -0.46646811384E+03  0.47236661550E+03  0.47000000000E+01 0. -1.
        -11    1    4    4    0    0  0.27642049066E+02 -0.40213566788E+02 -0.16711039470E+03  0.17408933869E+03  0.00000000000E+00 0.  1.
         12    1    4    4    0    0 -0.36737525237E+02 -0.14786636389E+02 -0.50973272705E+02  0.64548934201E+02  0.00000000000E+00 0. -1.
         -5    1    5    5    0  502  0.25257113841E+02 -0.59919778595E+02  0.18920935960E+02  0.67885149216E+02  0.47000000000E+01 0.  1.
         11    1    6    6    0    0  0.26112025513E+02  0.13287190826E+02  0.18393462447E+02  0.34593449918E+02  0.00000000000E+00 0. -1.
        -12    1    6    6    0    0  0.30987365835E+02  0.89448791762E+02 -0.55191247981E+01  0.94824911956E+02  0.00000000000E+00 0.  1.
</event>
<event>
12    1  0.8331241E-002  0.1780830E+03  0.7818608E-02  0.1170139E+00
         21   -1    0    0  503  502  0.00000000000E+00  0.00000000000E+00  0.10212895733E+04  0.10212895733E+04  0.00000000000E+00 0.  1.
         21   -1    0    0  501  503 -0.00000000000E+00 -0.00000000000E+00 -0.46007713683E+02  0.46007713683E+02  0.00000000000E+00 0.  1.
          6    2    1    2  501    0  0.36049987215E+02 -0.39543819444E+00  0.17831257438E+03  0.25067399873E+03  0.17245962283E+03 0.  0.
         24    2    3    3    0    0  0.85132768209E+01 -0.70695414082E+02  0.95152930406E+02  0.13825525734E+03  0.70640771254E+02 0.  0.
         -6    2    1    2    0  502 -0.36049987215E+02  0.39543819444E+00  0.79696928526E+03  0.81662328828E+03  0.17439551417E+03 0.  0.
        -24    2    5    5    0    0 -0.10145177274E+02 -0.63700934571E+02  0.57539229561E+03  0.58446416931E+03  0.79757994383E+02 0.  0.
          5    1    3    3  501    0  0.27536710394E+02  0.70299975888E+02  0.83159643975E+02  0.11241874139E+03  0.47000000000E+01 0. -1.
        -11    1    4    4    0    0 -0.10068475947E+02 -0.49524095654E+01  0.60723740849E+02  0.61751706625E+02  0.00000000000E+00 0.  1.
         12    1    4    4    0    0  0.18581752767E+02 -0.65743004517E+02  0.34429189558E+02  0.76503550717E+02  0.00000000000E+00 0. -1.
         -5    1    5    5    0  502 -0.25904809941E+02  0.64096372765E+02  0.22157698965E+03  0.23215911897E+03  0.47000000000E+01 0.  1.
         11    1    6    6    0    0 -0.34131935668E+02 -0.31688355508E+02  0.14684305284E+03  0.15405201418E+03  0.00000000000E+00 0. -1.
        -12    1    6    6    0    0  0.23986758394E+02 -0.32012579063E+02  0.42854924278E+03  0.43041215513E+03  0.00000000000E+00 0.  1.
</event>
<event>
12    1  0.8331241E-002  0.1882048E+03  0.7818608E-02  0.1160126E+00
         21   -1    0    0  501  502  0.00000000000E+00  0.00000000000E+00  0.19639106376E+03  0.19639106376E+03  0.00000000000E+00 0. -1.
         21   -1    0    0  502  503 -0.00000000000E+00 -0.00000000000E+00 -0.32379036061E+03  0.32379036061E+03  0.00000000000E+00 0. -1.
         -6    2    1    2    0  503  0.14611283819E+02 -0.72913312249E+02 -0.23688081565E+03  0.30244939208E+03  0.17272311145E+03 0.  0.
        -24    2    3    3    0    0  0.71360079086E+02 -0.64044178064E+02 -0.18810810127E+03  0.22695134592E+03  0.83236638698E+02 0.  0.
          6    2    1    2  501    0 -0.14611283819E+02  0.72913312249E+02  0.10948151880E+03  0.21773203230E+03  0.17289070019E+03 0.  0.
         24    2    5    5    0    0 -0.16698608519E+02  0.10061602784E+03  0.40943362314E+02  0.14362827889E+03  0.92467805177E+02 0.  0.
          5    1    5    5  501    0  0.20873247005E+01 -0.27702715588E+02  0.68538156485E+02  0.74103753412E+02  0.47000000000E+01 0. -1.
        -11    1    6    6    0    0  0.16668956325E+02 -0.57824834220E+01 -0.10814091589E+02  0.20693858905E+02  0.00000000000E+00 0.  1.
         12    1    6    6    0    0 -0.33367564844E+02  0.10639851126E+03  0.51757453903E+02  0.12293441998E+03  0.00000000000E+00 0. -1.
         -5    1    3    3    0  503 -0.56748795268E+02 -0.88691341850E+01 -0.48772714380E+02  0.75498046157E+02  0.47000000000E+01 0.  1.
         11    1    4    4    0    0 -0.11365257613E+02 -0.38459684263E+02 -0.52706215069E+02  0.66228857012E+02  0.00000000000E+00 0. -1.
        -12    1    4    4    0    0  0.82725336699E+02 -0.25584493801E+02 -0.13540188620E+03  0.16072248891E+03  0.00000000000E+00 0.  1.
</event>
<event>
12    1  0.8331241E-002  0.1955395E+03  0.7818608E-02  0.1153912E+00
         21   -1    0    0  503  502  0.00000000000E+00  0.00000000000E+00  0.29243941496E+03  0.29243941496E+03  0.00000000000E+00 0.  1.
         21   -1    0    0  501  503 -0.00000000000E+00 -0.00000000000E+00 -0.17687600634E+03  0.17687600634E+03  0.00000000000E+00 0.  1.
          6    2    1    2  501    0  0.73990144177E+02 -0.54166911409E+02 -0.63276491431E+02  0.20552274705E+03  0.17270520971E+03 0.  0.
         24    2    3    3    0    0  0.61978276886E+02  0.24932936085E+02 -0.21113834422E+01  0.10470443887E+03  0.80595306754E+02 0.  0.
         -6    2    1    2    0  502 -0.73990144177E+02  0.54166911409E+02  0.17883990005E+03  0.26379267425E+03  0.17086330621E+03 0.  0.
        -24    2    5    5    0    0 -0.11530251121E+03  0.59906048187E+02  0.92581866117E+02  0.16786463987E+03  0.52189382872E+02 0.  0.
          5    1    3    3  501    0  0.12011867292E+02 -0.79099847494E+02 -0.61165107989E+02  0.10081830818E+03  0.47000000000E+01 0. -1.
        -13    1    4    4    0    0  0.19133747468E+02 -0.29596549922E+02 -0.27926089590E+01  0.35353284490E+02  0.00000000000E+00 0.  1.
         14    1    4    4    0    0  0.42844529417E+02  0.54529486007E+02  0.68122551681E+00  0.69351154377E+02  0.00000000000E+00 0. -1.
         -5    1    5    5    0  502  0.41312367035E+02 -0.57391367784E+01  0.86258033938E+02  0.95928034379E+02  0.47000000000E+01 0.  1.
         11    1    6    6    0    0 -0.11621400925E+03  0.50097011706E+02  0.73391134185E+02  0.14629307949E+03  0.00000000000E+00 0. -1.
        -12    1    6    6    0    0  0.91149804241E+00  0.98090364810E+01  0.19190731932E+02  0.21571560385E+02  0.00000000000E+00 0.  1.
</event>
<event>
12    1  0.8331241E-002  0.1775522E+03  0.7818608E-02  0.1170202E+00
         21   -1    0    0  503  502  0.00000000000E+00  0.00000000000E+00  0.85030859659E+02  0.85030859659E+02  0.00000000000E+00 0.  1.
         21   -1    0    0  501  503 -0.00000000000E+00 -0.00000000000E+00 -0.46069339815E+03  0.46069339815E+03  0.00000000000E+00 0.  1.
          6    2    1    2  501    0  0.16646151600E+02  0.40003610062E+02 -0.30843428579E+03  0.35587060001E+03  0.17214758819E+03 0.  0.
         24    2    3    3    0    0 -0.54513339158E+02  0.38310152375E+02 -0.20617236751E+03  0.23118647570E+03  0.80627349586E+02 0.  0.
         -6    2    1    2    0  502 -0.16646151600E+02 -0.40003610062E+02 -0.67228252701E+02  0.18985365780E+03  0.17218417534E+03 0.  0.
        -24    2    5    5    0    0  0.20896121169E+02  0.30418165237E+02  0.12170085783E+01  0.84613492120E+02  0.76131788909E+02 0.  0.
          5    1    3    3  501    0  0.71159490759E+02  0.16934576867E+01 -0.10226191828E+03  0.12468412431E+03  0.47000000000E+01 0. -1.
        -11    1    4    4    0    0 -0.23745677130E+02  0.15123105851E+02 -0.79481640936E+01  0.29253013954E+02  0.00000000000E+00 0.  1.
         12    1    4    4    0    0 -0.30767662029E+02  0.23187046524E+02 -0.19822420341E+03  0.20193346175E+03  0.00000000000E+00 0. -1.
         -5    1    5    5    0  502 -0.37542272770E+02 -0.70421775299E+02 -0.68445261279E+02  0.10524016568E+03  0.47000000000E+01 0.  1.
         11    1    6    6    0    0 -0.12035269379E+02  0.46419330732E+02  0.19389358104E+01  0.47993347942E+02  0.00000000000E+00 0. -1.
        -12    1    6    6    0    0  0.32931390548E+02 -0.16001165495E+02 -0.72192723209E+00  0.36620144177E+02  0.00000000000E+00 0.  1.
</event>
<event>
12    1  0.8331241E-002  0.1892142E+03  0.7818608E-02  0.1161928E+00
         21   -1    0    0  501  502  0.00000000000E+00  0.00000000000E+00  0.50259530068E+02  0.50259530068E+02  0.00000000000E+00 0. -1.
         21   -1    0    0  502  503 -0.00000000000E+00 -0.00000000000E+00 -0.67384817462E+03  0.67384817462E+03  0.00000000000E+00 0. -1.
         -6    2    1    2    0  503 -0.62097890465E+02  0.42674869747E+02 -0.35303951568E+03  0.40054828515E+03  0.17356479076E+03 0.  0.
        -24    2    3    3    0    0 -0.52000724307E+02  0.81332372263E+02 -0.14998199130E+03  0.19354392898E+03  0.75137371682E+02 0.  0.
          6    2    1    2  501    0  0.62097890465E+02 -0.42674869747E+02 -0.27054912886E+03  0.32355941954E+03  0.16067536940E+03 0.  0.
         24    2    5    5    0    0  0.45389916940E+02  0.31116167971E+02 -0.11627466210E+03  0.15166708486E+03  0.80340818474E+02 0.  0.
          5    1    5    5  501    0  0.16707973525E+02 -0.73791037717E+02 -0.15427446676E+03  0.17189233468E+03  0.47000000000E+01 0. -1.
        -11    1    6    6    0    0 -0.20694438585E+02 -0.65246726075E-01 -0.45286973528E+02  0.49791304630E+02  0.00000000000E+00 0.  1.
         12    1    6    6    0    0  0.66084355525E+02  0.31181414697E+02 -0.70987688575E+02  0.10187578023E+03  0.00000000000E+00 0. -1.
         -5    1    3    3    0  503 -0.10097166158E+02 -0.38657502516E+02 -0.20305752438E+03  0.20700435617E+03  0.47000000000E+01 0.  1.
         13    1    4    4    0    0 -0.63129157578E+02  0.31791761790E+02 -0.75723790221E+02  0.10358619145E+03  0.00000000000E+00 0. -1.
        -14    1    4    4    0    0  0.11128433271E+02  0.49540610473E+02 -0.74258201080E+02  0.89957737526E+02  0.00000000000E+00 0.  1.
</event>
<event>
12    1  0.8331241E-002  0.2085186E+03  0.7818608E-02  0.1146384E+00
         21   -1    0    0  501  502  0.00000000000E+00  0.00000000000E+00  0.62026797612E+03  0.62026797612E+03  0.00000000000E+00 0. -1.
         21   -1    0    0  502  503 -0.00000000000E+00 -0.00000000000E+00 -0.64386992536E+02  0.64386992536E+02  0.00000000000E+00 0. -1.
         -6    2    1    2    0  503  0.79366771312E+02 -0.61211169901E+00  0.28533374729E+03  0.35340534852E+03  0.19282254523E+03 0.  0.
        -24    2    3    3    0    0  0.99901674512E+02  0.39627317400E+02  0.27646269965E+03  0.30712706646E+03  0.79653887569E+02 0.  0.
          6    2    1    2  501    0 -0.79366771312E+02  0.61211169901E+00  0.27054723629E+03  0.33124962013E+03  0.17387077013E+03 0.  0.
         24    2    5    5    0    0 -0.58515167898E+02 -0.50960546833E+02  0.93683596616E+02  0.14578435247E+03  0.80345870716E+02 0.  0.
          5    1    5    5  501    0 -0.20851603414E+02  0.51572658532E+02  0.17686363967E+03  0.18546526767E+03  0.47000000000E+01 0. -1.
        -13    1    6    6    0    0  0.90890434763E+01 -0.21765857970E+02 -0.35075816093E+01  0.23846727516E+02  0.00000000000E+00 0.  1.
         14    1    6    6    0    0 -0.67604211374E+02 -0.29194688863E+02  0.97191178226E+02  0.12193762495E+03  0.00000000000E+00 0. -1.
         -5    1    3    3    0  503 -0.20534903200E+02 -0.40239429099E+02  0.88710476465E+01  0.46278282056E+02  0.47000000000E+01 0.  1.
         13    1    4    4    0    0  0.48857695998E+02  0.53981189087E+02  0.10591145188E+03  0.12852345651E+03  0.00000000000E+00 0. -1.
        -14    1    4    4    0    0  0.51043978514E+02 -0.14353871687E+02  0.17055124776E+03  0.17860360995E+03  0.00000000000E+00 0.  1.
</event>
<event>
12    1  0.8331241E-002  0.2047545E+03  0.7818608E-02  0.1146743E+00
         21   -1    0    0  501  502  0.00000000000E+00  0.00000000000E+00  0.39515309182E+03  0.39515309182E+03  0.00000000000E+00 0. -1.
         21   -1    0    0  502  503 -0.00000000000E+00 -0.00000000000E+00 -0.12977006539E+03  0.12977006539E+03  0.00000000000E+00 0. -1.
         -6    2    1    2    0  503 -0.86303992341E+02  0.57357541135E+02  0.16315263515E+02  0.20540346055E+03  0.17659594322E+03 0.  0.
        -24    2    3    3    0    0 -0.50458568752E+02 -0.41210765927E+02 -0.15203323116E+02  0.95785410701E+02  0.68551509689E+02 0.  0.
          6    2    1    2  501    0  0.86303992341E+02 -0.57357541135E+02  0.24906776291E+03  0.31951969666E+03  0.17123031102E+03 0.  0.
         24    2    5    5    0    0  0.45436911123E+02  0.38924571171E+01  0.44463364748E+02  0.10201859238E+03  0.79694029087E+02 0.  0.
          5    1    5    5  501    0  0.40867081218E+02 -0.61249998252E+02  0.20460439817E+03  0.21750110428E+03  0.47000000000E+01 0. -1.
        -11    1    6    6    0    0  0.14000481936E+02 -0.35899618606E+02  0.31254823932E+02  0.49615119969E+02  0.00000000000E+00 0.  1.
         12    1    6    6    0    0  0.31436429187E+02  0.39792075723E+02  0.13208540815E+02  0.52403472413E+02  0.00000000000E+00 0. -1.
         -5    1    3    3    0  503 -0.35845423589E+02  0.98568307062E+02  0.31518586632E+02  0.10961804985E+03  0.47000000000E+01 0.  1.
         13    1    4    4    0    0 -0.41156128137E+02 -0.25201035898E+02 -0.41483066271E+02  0.63637755152E+02  0.00000000000E+00 0. -1.
        -14    1    4    4    0    0 -0.93024406156E+01 -0.16009730029E+02  0.26279743155E+02  0.32147655549E+02  0.00000000000E+00 0.  1.
</event>
<event>
12    1  0.8331241E-002  0.2346358E+03  0.7818608E-02  0.1123533E+00
         21   -1    0    0  503  502  0.00000000000E+00  0.00000000000E+00  0.13582395750E+03  0.13582395750E+03  0.00000000000E+00 0. -1.
         21   -1    0    0  501  503 -0.00000000000E+00 -0.00000000000E+00 -0.72948339637E+03  0.72948339637E+03  0.00000000000E+00 0.  1.
          6    2    1    2  501    0  0.15556508362E+03  0.33507157847E+02 -0.58598303490E+03  0.63121318000E+03  0.17242603209E+03 0.  0.
         24    2    3    3    0    0  0.65296351149E+02 -0.26320275653E+02 -0.16277006968E+03  0.19433897638E+03  0.79480637710E+02 0.  0.
         -6    2    1    2    0  502 -0.15556508362E+03 -0.33507157847E+02 -0.76764039707E+01  0.23409417387E+03  0.17151655953E+03 0.  0.
        -24    2    5    5    0    0 -0.12489902444E+03  0.34290236043E+02  0.23797531678E+02  0.15316462161E+03  0.78214398956E+02 0.  0.
          5    1    3    3  501    0  0.90268732472E+02  0.59827433500E+02 -0.42321296522E+03  0.43687420362E+03  0.47000000000E+01 0. -1.
        -11    1    4    4    0    0  0.22394348110E+02 -0.50107273685E+02 -0.10557371305E+03  0.11898762369E+03  0.00000000000E+00 0.  1.
         12    1    4    4    0    0  0.42902003040E+02  0.23786998032E+02 -0.57196356631E+02  0.75351352688E+02  0.00000000000E+00 0. -1.
         -5    1    5    5    0  502 -0.30666059178E+02 -0.67797393890E+02 -0.31473935649E+02  0.80929552260E+02  0.47000000000E+01 0.  1.
         11    1    6    6    0    0 -0.29379228861E+02  0.22856417310E+02  0.41065991210E+02  0.55425360033E+02  0.00000000000E+00 0. -1.
        -12    1    6    6    0    0 -0.95519795583E+02  0.11433818733E+02 -0.17268459532E+02  0.97739261577E+02  0.00000000000E+00 0.  1.
</event>
<event>
12    1  0.8331241E-002  0.1911813E+03  0.7818608E-02  0.1157502E+00
         21   -1    0    0  501  502  0.00000000000E+00  0.00000000000E+00  0.11083331812E+03  0.11083331812E+03  0.00000000000E+00 0.  1.
         21   -1    0    0  502  503 -0.00000000000E+00 -0.00000000000E+00 -0.33317884286E+03  0.33317884286E+03  0.00000000000E+00 0.  1.
         -6    2    1    2    0  503  0.76177410580E+02 -0.35390517423E+02 -0.86155022575E+02  0.20928223005E+03  0.17123340005E+03 0.  0.
        -24    2    3    3    0    0  0.18618768756E+02  0.24953795705E+02 -0.92016247066E+02  0.12555124816E+03  0.79541031672E+02 0.  0.
          6    2    1    2  501    0 -0.76177410580E+02  0.35390517423E+02 -0.13619050216E+03  0.23472993093E+03  0.17174050480E+03 0.  0.
         24    2    5    5    0    0 -0.23819290251E+02 -0.14341292287E+02 -0.13867563266E+03  0.16232211688E+03  0.79652415424E+02 0.  0.
          5    1    5    5  501    0 -0.52358120329E+02  0.49731809710E+02  0.24851304949E+01  0.72407814047E+02  0.47000000000E+01 0. -1.
        -13    1    6    6    0    0  0.26986531377E+01 -0.17343125834E+02  0.33005795513E+01  0.17859467176E+02  0.00000000000E+00 0.  1.
         14    1    6    6    0    0 -0.26517943388E+02  0.30018335463E+01 -0.14197621221E+03  0.14446264971E+03  0.00000000000E+00 0. -1.
         -5    1    3    3    0  503  0.57558641824E+02 -0.60344313128E+02  0.58612244910E+01  0.83730981889E+02  0.47000000000E+01 0.  1.
         13    1    4    4    0    0 -0.30246960798E+02  0.12967385839E+02 -0.50712779869E+02  0.60455088909E+02  0.00000000000E+00 0. -1.
        -14    1    4    4    0    0  0.48865729554E+02  0.11986409867E+02 -0.41303467198E+02  0.65096159248E+02  0.00000000000E+00 0.  1.
</event>
<event>
12    1  0.8331241E-002  0.2014070E+03  0.7818608E-02  0.1148632E+00
         21   -1    0    0  503  502  0.00000000000E+00  0.00000000000E+00  0.10160618207E+03  0.10160618207E+03  0.00000000000E+00 0. -1.
         21   -1    0    0  501  503 -0.00000000000E+00 -0.00000000000E+00 -0.92391195636E+03  0.92391195636E+03  0.00000000000E+00 0. -1.
          6    2    1    2  501    0  0.54764552964E+01  0.10479334785E+03 -0.79766124588E+03  0.82260899251E+03  0.17149476395E+03 0.  0.
         24    2    3    3    0    0  0.54422957990E+02  0.67304844098E+02 -0.32520809443E+03  0.34612686446E+03  0.80942579773E+02 0.  0.
         -6    2    1    2    0  502 -0.54764552964E+01 -0.10479334785E+03 -0.24644528411E+02  0.20290914591E+03  0.17191024227E+03 0.  0.
        -24    2    5    5    0    0 -0.29348095948E+02 -0.45270295953E+02 -0.74588093689E+02  0.12148864083E+03  0.79280487508E+02 0.  0.
          5    1    3    3  501    0 -0.48946502693E+02  0.37488503756E+02 -0.47245315145E+03  0.47648212806E+03  0.47000000000E+01 0. -1.
        -13    1    4    4    0    0 -0.11516187654E+02  0.15725596111E+02 -0.14378747185E+02  0.24221175070E+02  0.00000000000E+00 0.  1.
         14    1    4    4    0    0  0.65939145644E+02  0.51579247986E+02 -0.31082934725E+03  0.32190568939E+03  0.00000000000E+00 0. -1.
         -5    1    5    5    0  502  0.23871640652E+02 -0.59523051901E+02  0.49943565278E+02  0.81420505081E+02  0.47000000000E+01 0.  1.
         13    1    6    6    0    0 -0.47717828811E+02 -0.28342763500E+02 -0.15942769981E+02  0.57744916174E+02  0.00000000000E+00 0. -1.
        -14    1    6    6    0    0  0.18369732863E+02 -0.16927532452E+02 -0.58645323707E+02  0.63743724657E+02  0.00000000000E+00 0.  1.
</event>
<event>
12    1  0.8331241E-002  0.2061647E+03  0.7818608E-02  0.1144691E+00
         21   -1    0    0  503  502  0.00000000000E+00  0.00000000000E+00  0.14219309985E+03  0.14219309985E+03  0.00000000000E+00 0.  1.
         21   -1    0    0  501  503 -0.00000000000E+00 -0.00000000000E+00 -0.68832296656E+03  0.68832296656E+03  0.00000000000E+00 0.  1.
          6    2    1    2  501    0 -0.91386847826E+02 -0.65295412645E+02 -0.58547605920E+03  0.62063038894E+03  0.17258278277E+03 0.  0.
         24    2    3    3    0    0 -0.64104223543E+02 -0.11126969829E+03 -0.45379173960E+03  0.47843043620E+03  0.80488770176E+02 0.  0.
         -6    2    1    2    0  502  0.91386847826E+02  0.65295412645E+02  0.39346192486E+02  0.20988567747E+03  0.17288385661E+03 0.  0.
        -24    2    5    5    0    0  0.54191190660E+02 -0.99273161008E+01  0.71125853726E+02  0.12003016734E+03  0.79455127299E+02 0.  0.
          5    1    3    3  501    0 -0.27282624283E+02  0.45974285647E+02 -0.13168431961E+03  0.14219995274E+03  0.47000000000E+01 0. -1.
        -13    1    4    4    0    0 -0.52211660313E+02 -0.22167405814E+02 -0.11974925909E+03  0.13250409958E+03  0.00000000000E+00 0.  1.
         14    1    4    4    0    0 -0.11892563230E+02 -0.89102292479E+02 -0.33404248051E+03  0.34592633662E+03  0.00000000000E+00 0. -1.
         -5    1    5    5    0  502  0.37195657166E+02  0.75222728746E+02 -0.31779661240E+02  0.89855510129E+02  0.47000000000E+01 0.  1.
         13    1    6    6    0    0 -0.59850701073E+01 -0.27449193804E+02  0.42927644877E+02  0.51303625596E+02  0.00000000000E+00 0. -1.
        -14    1    6    6    0    0  0.60176260767E+02  0.17521877703E+02  0.28198208849E+02  0.68726541747E+02  0.00000000000E+00 0.  1.
</event>
<event>
12    1  0.8331241E-002  0.2019698E+03  0.7818608E-02  0.1148459E+00
         21   -1    0    0  503  502  0.00000000000E+00  0.00000000000E+00  0.28997953802E+03  0.28997953802E+03  0.00000000000E+00 0. -1.
         21   -1    0    0  501  503 -0.00000000000E+00 -0.00000000000E+00 -0.15038053686E+03  0.15038053686E+03  0.00000000000E+00 0.  1.
          6    2    1    2  501    0 -0.10158163404E+03  0.23622306785E+02  0.10123590030E+02  0.20045239900E+03  0.17088544537E+03 0.  0.
         24    2    3    3    0    0 -0.97710388788E+02 -0.73781879489E+01 -0.47448868373E+02  0.13478128526E+03  0.79453395221E+02 0.  0.
         -6    2    1    2    0  502  0.10158163404E+03 -0.23622306785E+02  0.12947541113E+03  0.23990767587E+03  0.17295944352E+03 0.  0.
        -24    2    5    5    0    0  0.82033787944E+02 -0.59965786172E+02  0.14611164193E+03  0.19516596205E+03  0.80098083373E+02 0.  0.
          5    1    3    3  501    0 -0.38712452517E+01  0.31000494734E+02  0.57572458403E+02  0.65671113742E+02  0.47000000000E+01 0. -1.
        -11    1    4    4    0    0 -0.27346115036E+02  0.34657809198E+02 -0.14965123055E+02  0.46614682815E+02  0.00000000000E+00 0.  1.
         12    1    4    4    0    0 -0.70364273753E+02 -0.42035997147E+02 -0.32483745318E+02  0.88166602445E+02  0.00000000000E+00 0. -1.
         -5    1    5    5    0  502  0.19547846096E+02  0.36343479388E+02 -0.16636230792E+02  0.44741713825E+02  0.47000000000E+01 0.  1.
         13    1    6    6    0    0  0.19675460577E+02  0.93994543591E+01  0.74347349732E+02  0.77479041703E+02  0.00000000000E+00 0. -1.
        -14    1    6    6    0    0  0.62358327367E+02 -0.69365240532E+02  0.71764292194E+02  0.11768692034E+03  0.00000000000E+00 0.  1.
</event>
<event>
12    1  0.8331241E-002  0.2279550E+03  0.7818608E-02  0.1128370E+00
         21   -1    0    0  501  502  0.00000000000E+00  0.00000000000E+00  0.76296884065E+02  0.76296884065E+02  0.00000000000E+00 0.  1.
         21   -1    0    0  502  503 -0.00000000000E+00 -0.00000000000E+00 -0.67723610297E+03  0.67723610297E+03  0.00000000000E+00 0.  1.
         -6    2    1    2    0  503  0.11304799710E+03 -0.97006105459E+02 -0.31303092398E+03  0.38630737402E+03  0.17045525427E+03 0.  0.
        -24    2    3    3    0    0  0.83711626919E+02 -0.11727168259E+03 -0.30788781124E+03  0.34997752623E+03  0.83241098827E+02 0.  0.
          6    2    1    2  501    0 -0.11304799710E+03  0.97006105459E+02 -0.28790829492E+03  0.36722561301E+03  0.17254979115E+03 0.  0.
         24    2    5    5    0    0 -0.36458084906E+02  0.59272474526E+02 -0.25329447512E+03  0.27497569120E+03  0.81308802935E+02 0.  0.
          5    1    5    5  501    0 -0.76589912189E+02  0.37733630933E+02 -0.34613819799E+02  0.92249921808E+02  0.47000000000E+01 0. -1.
        -13    1    6    6    0    0 -0.38518930757E+02  0.70849883548E+02 -0.14394463004E+03  0.16499536522E+03  0.00000000000E+00 0.  1.
         14    1    6    6    0    0  0.20608458511E+01 -0.11577409022E+02 -0.10934984508E+03  0.10998032598E+03  0.00000000000E+00 0. -1.
         -5    1    3    3    0  503  0.29336370177E+02  0.20265577135E+02 -0.51431127390E+01  0.36329847790E+02  0.47000000000E+01 0.  1.
         11    1    4    4    0    0  0.52799659189E+02 -0.17458868133E+02 -0.15602677079E+03  0.16564108575E+03  0.00000000000E+00 0. -1.
        -12    1    4    4    0    0  0.30911967730E+02 -0.99812814461E+02 -0.15186104046E+03  0.18433644048E+03  0.00000000000E+00 0.  1.
</event>
<event>
12    1  0.8331241E-002  0.2642839E+03  0.7818608E-02  0.1104990E+00
         21   -1    0    0  501  502  0.00000000000E+00  0.00000000000E+00  0.11202942675E+04  0.11202942675E+04  0.00000000000E+00 0. -1.
         21   -1    0    0  502  503 -0.00000000000E+00 -0.00000000000E+00 -0.12571339386E+03  0.12571339386E+03  0.00000000000E+00 0. -1.
         -6    2    1    2    0  503 -0.19737118537E+03 -0.18283114884E+02  0.94301576300E+03  0.97934912005E+03  0.17480364000E+03 0.  0.
        -24    2    3    3    0    0 -0.20995852195E+02  0.18028704503E+02  0.28261089088E+03  0.29481753458E+03  0.79262873115E+02 0.  0.
          6    2    1    2  501    0  0.19737118537E+03  0.18283114884E+02  0.51565110585E+02  0.26665854127E+03  0.17075760568E+03 0.  0.
         24    2    5    5    0    0  0.13168406904E+03 -0.46069594697E+01  0.98544895324E+02  0.18258748246E+03  0.79152853654E+02 0.  0.
          5    1    5    5  501    0  0.65687116335E+02  0.22890074354E+02 -0.46979784739E+02  0.84071058816E+02  0.47000000000E+01 0. -1.
        -13    1    6    6    0    0  0.34133925286E+02  0.28984343037E+02  0.54157076050E+02  0.70272369271E+02  0.00000000000E+00 0.  1.
         14    1    6    6    0    0  0.97550143751E+02 -0.33591302506E+02  0.44387819274E+02  0.11231511319E+03  0.00000000000E+00 0. -1.
         -5    1    3    3    0  503 -0.17637533318E+03 -0.36311819387E+02  0.66040487212E+03  0.68453158547E+03  0.47000000000E+01 0.  1.
         11    1    4    4    0    0 -0.31456636650E+01 -0.10719855455E+02  0.24066200225E+03  0.24092116933E+03  0.00000000000E+00 0. -1.
        -12    1    4    4    0    0 -0.17850188530E+02  0.28748559958E+02  0.41948888628E+02  0.53896365252E+02  0.00000000000E+00 0.  1.
</event>
<event>
12    1  0.8331241E-002  0.1914341E+03  0.7818608E-02  0.1157335E+00
         21   -1    0    0  503  502  0.00000000000E+00  0.00000000000E+00  0.41510922403E+03  0.41510922403E+03  0.00000000000E+00 0. -1.
         21   -1    0    0  501  503 -0.00000000000E+00 -0.00000000000E+00 -0.96796925838E+02  0.96796925838E+02  0.00000000000E+00 0. -1.
          6    2    1    2  501    0  0.81777647590E+02  0.22390767191E+02  0.23679684724E+03  0.30449916784E+03  0.17163352311E+03 0.  0.
         24    2    3    3    0    0  0.10436103776E+03  0.15467291257E+02  0.10065588359E+03  0.16624434509E+03  0.79844298940E+02 0.  0.
         -6    2    1    2    0  502 -0.81777647590E+02 -0.22390767191E+02  0.81515450959E+02  0.20740698203E+03  0.17083312720E+03 0.  0.
        -24    2    5    5    0    0 -0.21973284647E+02 -0.59788290816E+01 -0.24850185910E+02  0.84193134406E+02  0.77151672087E+02 0.  0.
          5    1    3    3  501    0 -0.22583390169E+02  0.69234759331E+01  0.13614096365E+03  0.13825482275E+03  0.47000000000E+01 0. -1.
        -11    1    4    4    0    0  0.61527966044E+02 -0.22954629633E+02  0.22974581234E+02  0.69573249241E+02  0.00000000000E+00 0.  1.
         12    1    4    4    0    0  0.42833071715E+02  0.38421920891E+02  0.77681302354E+02  0.96671095850E+02  0.00000000000E+00 0. -1.
         -5    1    5    5    0  502 -0.59804362943E+02 -0.16411938109E+02  0.10636563687E+03  0.12321384762E+03  0.47000000000E+01 0.  1.
         11    1    6    6    0    0 -0.20306849628E+01 -0.38259715049E+02  0.92104185419E+00  0.38324636921E+02  0.00000000000E+00 0. -1.
        -12    1    6    6    0    0 -0.19942599684E+02  0.32280885967E+02 -0.25771227765E+02  0.45868497485E+02  0.00000000000E+00 0.  1.
</event>
<event>
12    1  0.8331241E-002  0.1783710E+03  0.7818608E-02  0.1170050E+00
         21   -1    0    0  503  502  0.00000000000E+00  0.00000000000E+00  0.28012347644E+03  0.28012347644E+03  0.00000000000E+00 0.  1.
         21   -1    0    0  501  503 -0.00000000000E+00 -0.00000000000E+00 -0.11893872466E+03  0.11893872466E+03  0.00000000000E+00 0.  1.
          6    2    1    2  501    0 -0.44459046184E+02  0.36439369135E+01  0.32563042787E+02  0.18131900431E+03  0.17270305297E+03 0.  0.
         24    2    3    3    0    0 -0.26691946355E+02 -0.55608406401E+02 -0.18233408652E+02  0.10113871058E+03  0.78050155183E+02 0.  0.
         -6    2    1    2    0  502  0.44459046184E+02 -0.36439369135E+01  0.12862170900E+03  0.21774319679E+03  0.16993725506E+03 0.  0.
        -24    2    5    5    0    0 -0.17256444772E+02  0.33078554126E+02  0.11207067582E+03  0.14389626137E+03  0.82184682431E+02 0.  0.
          5    1    3    3  501    0 -0.17767099829E+02  0.59252343315E+02  0.50796451438E+02  0.80180293735E+02  0.47000000000E+01 0. -1.
        -11    1    4    4    0    0 -0.52606106294E+02 -0.29063774745E+02 -0.69430015625E+00  0.60104804089E+02  0.00000000000E+00 0.  1.
         12    1    4    4    0    0  0.25914159939E+02 -0.26544631656E+02 -0.17539108496E+02  0.41033906491E+02  0.00000000000E+00 0. -1.
         -5    1    5    5    0  502  0.61715490956E+02 -0.36722491039E+02  0.16551033174E+02  0.73846935422E+02  0.47000000000E+01 0.  1.
         13    1    6    6    0    0 -0.42010368809E+01 -0.15286589619E+02 -0.49460984268E+01  0.16606999208E+02  0.00000000000E+00 0. -1.
        -14    1    6    6    0    0 -0.13055407891E+02  0.48365143745E+02  0.11701677425E+03  0.12728926216E+03  0.00000000000E+00 0.  1.
</event>
<event>
12    1  0.8331241E-002  0.2002416E+03  0.7818608E-02  0.1150811E+00
         21   -1    0    0  501  502  0.00000000000E+00  0.00000000000E+00  0.43803999075E+03  0.43803999075E+03  0.00000000000E+00 0.  1.
         21   -1    0    0  502  503 -0.00000000000E+00 -0.00000000000E+00 -0.97214215823E+02  0.97214215823E+02  0.00000000000E+00 0.  1.
         -6    2    1    2    0  503 -0.28245124630E+02 -0.86962483705E+02  0.89489831562E+02  0.21390324665E+03  0.17142318495E+03 0.  0.
        -24    2    3    3    0    0  0.41308921214E+02 -0.18568921421E+01  0.29492217330E+02  0.88593507519E+02  0.72588867406E+02 0.  0.
          6    2    1    2  501    0  0.28245124630E+02  0.86962483705E+02  0.25133594336E+03  0.32135095992E+03  0.17814719300E+03 0.  0.
         24    2    5    5    0    0 -0.17361913084E+02  0.11896099737E+03  0.19161221377E+03  0.23954068769E+03  0.78812090886E+02 0.  0.
          5    1    5    5  501    0  0.45607037714E+02 -0.31998513666E+02  0.59723729590E+02  0.81810272228E+02  0.47000000000E+01 0. -1.
        -11    1    6    6    0    0  0.22959915894E+02  0.42034187578E+02  0.31312034154E+02  0.57223021119E+02  0.00000000000E+00 0.  1.
         12    1    6    6    0    0 -0.40321828979E+02  0.76926809793E+02  0.16030017962E+03  0.18231766657E+03  0.00000000000E+00 0. -1.
         -5    1    3    3    0  503 -0.69554045844E+02 -0.85105591563E+02  0.59997614232E+02  0.12530973914E+03  0.47000000000E+01 0.  1.
         13    1    4    4    0    0  0.31602033682E+02  0.82232747773E+01 -0.19233717659E+02  0.37897845267E+02  0.00000000000E+00 0. -1.
        -14    1    4    4    0    0  0.97068875324E+01 -0.10080166919E+02  0.48725934989E+02  0.50695662253E+02  0.00000000000E+00 0.  1.
</event>
<event>
12    1  0.8331241E-002  0.1872559E+03  0.7818608E-02  0.1162530E+00
         21   -1    0    0  501  502  0.00000000000E+00  0.00000000000E+00  0.12279473065E+03  0.12279473065E+03  0.00000000000E+00 0.  1.
         21   -1    0    0  502  503 -0.00000000000E+00 -0.00000000000E+00 -0.27561429590E+03  0.27561429590E+03  0.00000000000E+00 0.  1.
         -6    2    1    2    0  503  0.55619646502E+02  0.24074669494E+02 -0.69872498907E+02  0.19360423127E+03  0.17008026774E+03 0.  0.
        -24    2    3    3    0    0  0.15876962024E+01 -0.34265676992E+02 -0.73308167221E+02  0.11387380108E+03  0.80103044842E+02 0.  0.
          6    2    1    2  501    0 -0.55619646502E+02 -0.24074669494E+02 -0.82947066337E+02  0.20480479528E+03  0.17717689908E+03 0.  0.
         24    2    5    5    0    0 -0.95484014884E+02 -0.45905358587E+02 -0.30047303008E+02  0.13490328018E+03  0.77920186990E+02 0.  0.
          5    1    5    5  501    0  0.39864368382E+02  0.21830689093E+02 -0.52899763330E+02  0.69901515099E+02  0.47000000000E+01 0. -1.
        -11    1    6    6    0    0 -0.24222908006E+02 -0.14520419218E+01  0.24716066739E+02  0.34637287034E+02  0.00000000000E+00 0.  1.
         12    1    6    6    0    0 -0.71261106879E+02 -0.44453316665E+02 -0.54763369747E+02  0.10026599315E+03  0.00000000000E+00 0. -1.
         -5    1    3    3    0  503  0.54031950300E+02  0.58340346486E+02  0.34356683141E+01  0.79730430189E+02  0.47000000000E+01 0.  1.
         13    1    4    4    0    0 -0.23308444154E+02 -0.46745126117E+01 -0.71290989862E+02  0.75150115586E+02  0.00000000000E+00 0. -1.
        -14    1    4    4    0    0  0.24896140356E+02 -0.29591164380E+02 -0.20171773588E+01  0.38723685498E+02  0.00000000000E+00 0.  1.
</event>
<event>
12    1  0.8331241E-002  0.2391497E+03  0.7818608E-02  0.1120699E+00
         21   -1    0    0  501  502  0.00000000000E+00  0.00000000000E+00  0.11032018127E+03  0.11032018127E+03  0.00000000000E+00 0.  1.
         21   -1    0    0  502  503 -0.00000000000E+00 -0.00000000000E+00 -0.51949938058E+03  0.51949938058E+03  0.00000000000E+00 0.  1.
         -6    2    1    2    0  503  0.10261952168E+03  0.12727249089E+03 -0.23765165796E+03  0.33715113321E+03  0.17453802716E+03 0.  0.
        -24    2    3    3    0    0  0.91993678079E+02  0.10016272312E+03 -0.76233354091E+02  0.17306028372E+03  0.75119435680E+02 0.  0.
          6    2    1    2  501    0 -0.10261952168E+03 -0.12727249089E+03 -0.17152754135E+03  0.29266842865E+03  0.17176745477E+03 0.  0.
         24    2    5    5    0    0 -0.66551238272E+02 -0.15176615751E+03 -0.14326344454E+03  0.24049746027E+03  0.99260163082E+02 0.  0.
          5    1    5    5  501    0 -0.36068283409E+02  0.24493666623E+02 -0.28264096805E+02  0.52170968372E+02  0.47000000000E+01 0. -1.
        -11    1    6    6    0    0 -0.90649672495E+02 -0.95460958526E+02 -0.10373012600E+03  0.16760100467E+03  0.00000000000E+00 0.  1.
         12    1    6    6    0    0  0.24098434223E+02 -0.56305198988E+02 -0.39533318538E+02  0.72896455604E+02  0.00000000000E+00 0. -1.
         -5    1    3    3    0  503  0.10625843602E+02  0.27109767774E+02 -0.16141830387E+03  0.16409084949E+03  0.47000000000E+01 0.  1.
         13    1    4    4    0    0  0.42740205724E+02  0.20554279098E+02 -0.62482347187E+02  0.78442636905E+02  0.00000000000E+00 0. -1.
        -14    1    4    4    0    0  0.49253472355E+02  0.79608444018E+02 -0.13751006904E+02  0.94617646816E+02  0.00000000000E+00 0.  1.
</event>
<event>
12    1  0.8331241E-002  0.2005508E+03  0.7818608E-02  0.1153593E+00
         21   -1    0    0  501  502  0.00000000000E+00  0.00000000000E+00  0.38056409089E+03  0.38056409089E+03  0.00000000000E+00 0.  1.
         21   -1    0    0  502  503 -0.00000000000E+00 -0.00000000000E+00 -0.17651175811E+03  0.17651175811E+03  0.00000000000E+00 0.  1.
         -6    2    1    2    0  503 -0.55444350573E+02  0.84435132107E+00 -0.89146837642E+02  0.20184862195E+03  0.17239755968E+03 0.  0.
        -24    2    3    3    0    0  0.15374590329E+02  0.47737456744E+02 -0.19625234937E+02  0.91986758825E+02  0.74573260279E+02 0.  0.
          6    2    1    2  501    0  0.55444350573E+02 -0.84435132107E+00  0.29319917042E+03  0.35522722705E+03  0.19273256176E+03 0.  0.
         24    2    5    5    0    0 -0.42372550000E+02  0.12563565192E+02  0.79276184873E+02  0.11957270872E+03  0.77843708928E+02 0.  0.
          5    1    5    5  501    0  0.97816900573E+02 -0.13407916513E+02  0.21392298554E+03  0.23565451832E+03  0.47000000000E+01 0. -1.
        -13    1    6    6    0    0 -0.11135578981E+02 -0.19568208624E+02  0.70369049139E+02  0.73883144117E+02  0.00000000000E+00 0.  1.
         14    1    6    6    0    0 -0.31236971019E+02  0.32131773816E+02  0.89071357349E+01  0.45689564607E+02  0.00000000000E+00 0. -1.
         -5    1    3    3    0  503 -0.70818940902E+02 -0.46893105423E+02 -0.69521602705E+02  0.10986186313E+03  0.47000000000E+01 0.  1.
         11    1    4    4    0    0  0.33752006850E+02 -0.21052277495E+01  0.36004099243E+01  0.34008718028E+02  0.00000000000E+00 0. -1.
        -12    1    4    4    0    0 -0.18377416521E+02  0.49842684494E+02 -0.23225644861E+02  0.57978040798E+02  0.00000000000E+00 0.  1.
</event>
<event>
12    1  0.8331241E-002  0.2032101E+03  0.7818608E-02  0.1147064E+00
         21   -1    0    0  501  502  0.00000000000E+00  0.00000000000E+00  0.17044177258E+03  0.17044177258E+03  0.00000000000E+00 0. -1.
         21   -1    0    0  502  503 -0.00000000000E+00 -0.00000000000E+00 -0.11024990351E+04  0.11024990351E+04  0.00000000000E+00 0. -1.
         -6    2    1    2    0  503  0.14582508603E+02 -0.10701312716E+03 -0.10282364177E+04  0.10481191604E+04  0.17210225119E+03 0.  0.
        -24    2    3    3    0    0 -0.18807553599E+02 -0.75670752115E+02 -0.32559451620E+03  0.34397075814E+03  0.78894275306E+02 0.  0.
          6    2    1    2  501    0 -0.14582508603E+02  0.10701312716E+03  0.96179155193E+02  0.22482164721E+03  0.17213333268E+03 0.  0.
         24    2    5    5    0    0 -0.23954524753E+02  0.74035533631E+02  0.12948683758E+03  0.17679198900E+03  0.91834017511E+02 0.  0.
          5    1    5    5  501    0  0.93720161505E+01  0.32977593527E+02 -0.33307682391E+02  0.48029658210E+02  0.47000000000E+01 0. -1.
        -13    1    6    6    0    0  0.12571215234E+02 -0.16644733692E+02  0.35533965239E+02  0.41203704903E+02  0.00000000000E+00 0.  1.
         14    1    6    6    0    0 -0.36525739987E+02  0.90680267324E+02  0.93952872345E+02  0.13558828410E+03  0.00000000000E+00 0. -1.
         -5    1    3    3    0  503  0.33390062202E+02 -0.31342375043E+02 -0.70264190149E+03  0.70414840230E+03  0.47000000000E+01 0.  1.
         13    1    4    4    0    0 -0.17711555058E+02 -0.80288833004E+02 -0.32834669745E+03  0.33848419404E+03  0.00000000000E+00 0. -1.
        -14    1    4    4    0    0 -0.10959985415E+01  0.46180808892E+01  0.27521812546E+01  0.54865640943E+01  0.00000000000E+00 0.  1.
</event>
<event>
12    1  0.8331241E-002  0.1867247E+03  0.7818608E-02  0.1161545E+00
         21   -1    0    0  501  502  0.00000000000E+00  0.00000000000E+00  0.73838896059E+03  0.73838896059E+03  0.00000000000E+00 0. -1.
         21   -1    0    0  502  503 -0.00000000000E+00 -0.00000000000E+00 -0.48368444055E+02  0.48368444055E+02  0.00000000000E+00 0. -1.
         -6    2    1    2    0  503  0.30019890407E+01  0.71894537977E+02  0.28127313860E+03  0.33737946643E+03  0.17185019448E+03 0.  0.
        -24    2    3    3    0    0  0.53885545888E+02  0.26543870016E+02  0.91416406912E+02  0.13560363039E+03  0.80144594531E+02 0.  0.
          6    2    1    2  501    0 -0.30019890407E+01 -0.71894537977E+02  0.40874737794E+03  0.44937793822E+03  0.17230286084E+03 0.  0.
         24    2    5    5    0    0  0.10988061746E+02 -0.11277273148E+03  0.26389567701E+03  0.29814681217E+03  0.80076006347E+02 0.  0.
          5    1    5    5  501    0 -0.13990050787E+02  0.40878193502E+02  0.14485170093E+03  0.15123112605E+03  0.47000000000E+01 0. -1.
        -13    1    6    6    0    0 -0.59929831146E+01 -0.31244399102E+02  0.14032994348E+02  0.34771443057E+02  0.00000000000E+00 0.  1.
         14    1    6    6    0    0  0.16981044861E+02 -0.81528332377E+02  0.24986268267E+03  0.26337536911E+03  0.00000000000E+00 0. -1.
         -5    1    3    3    0  503 -0.50883556847E+02  0.45350667962E+02  0.18985673168E+03  0.20177583604E+03  0.47000000000E+01 0.  1.
         11    1    4    4    0    0  0.70836457884E+01 -0.19107304602E+02 -0.31676185987E+01  0.20622825568E+02  0.00000000000E+00 0. -1.
        -12    1    4    4    0    0  0.46801900100E+02  0.45651174618E+02  0.94584025510E+02  0.11498080483E+03  0.00000000000E+00 0.  1.
</event>
<event>
12    1  0.8331241E-002  0.2292457E+03  0.7818608E-02  0.1127284E+00
         21   -1    0    0  501  502  0.00000000000E+00  0.00000000000E+00  0.50919014533E+03  0.50919014533E+03  0.00000000000E+00 0. -1.
         21   -1    0    0  502  503 -0.00000000000E+00 -0.00000000000E+00 -0.10298591404E+03  0.10298591404E+03  0.00000000000E+00 0. -1.
         -6    2    1    2    0  503  0.13028266601E+03 -0.76223079026E+02  0.19542253673E+03  0.30075592262E+03  0.17169923206E+03 0.  0.
        -24    2    3    3    0    0  0.10819578088E+03 -0.11818546990E+03  0.16788175320E+03  0.24571723169E+03  0.80737491866E+02 0.  0.
          6    2    1    2  501    0 -0.13028266601E+03  0.76223079026E+02  0.21078169456E+03  0.31142013675E+03  0.17253998950E+03 0.  0.
         24    2    5    5    0    0 -0.14488443188E+03  0.99657135064E+02  0.20744859564E+03  0.28321435548E+03  0.79072170518E+02 0.  0.
          5    1    5    5  501    0  0.14601765864E+02 -0.23434056038E+02  0.33330989217E+01  0.28205781272E+02  0.47000000000E+01 0. -1.
        -13    1    6    6    0    0 -0.83334309149E+01 -0.59578493358E+01  0.45062927949E+02  0.46212655354E+02  0.00000000000E+00 0.  1.
         14    1    6    6    0    0 -0.13655100096E+03  0.10561498440E+03  0.16238566769E+03  0.23700170013E+03  0.00000000000E+00 0. -1.
         -5    1    3    3    0  503  0.22086885129E+02  0.41962390873E+02  0.27540783528E+02  0.55038690935E+02  0.47000000000E+01 0.  1.
         11    1    4    4    0    0  0.38698688788E+02 -0.42198428467E+02  0.11380315159E+02  0.58376428909E+02  0.00000000000E+00 0. -1.
        -12    1    4    4    0    0  0.69497092095E+02 -0.75987041431E+02  0.15650143805E+03  0.18734080278E+03  0.00000000000E+00 0.  1.
</event>
<event>
12    1  0.8331241E-002  0.1907332E+03  0.7818608E-02  0.1157877E+00
         21   -1    0    0  501  502  0.00000000000E+00  0.00000000000E+00  0.76598815176E+02  0.76598815176E+02  0.00000000000E+00 0.  1.
         21   -1    0    0  502  503 -0.00000000000E+00 -0.00000000000E+00 -0.97140324801E+03  0.97140324801E+03  0.00000000000E+00 0.  1.
         -6    2    1    2    0  503 -0.77421760823E+02 -0.29676940392E+02 -0.82213508272E+03  0.84389427850E+03  0.17139605947E+03 0.  0.
        -24    2    3    3    0    0  0.20746573811E+02  0.70215378984E+01 -0.27913059628E+03  0.29084838300E+03  0.78734806754E+02 0.  0.
          6    2    1    2  501    0  0.77421760823E+02  0.29676940392E+02 -0.72669350113E+02  0.20410778469E+03  0.17176816784E+03 0.  0.
         24    2    5    5    0    0  0.18158677900E+02 -0.43834903032E+02 -0.23347941312E+02  0.97473852530E+02  0.81882777533E+02 0.  0.
          5    1    5    5  501    0  0.59263082923E+02  0.73511843424E+02 -0.49321408801E+02  0.10663393216E+03  0.47000000000E+01 0. -1.
        -13    1    6    6    0    0  0.79952254491E+01 -0.10863072112E+02  0.30597372354E+02  0.33438438371E+02  0.00000000000E+00 0.  1.
         14    1    6    6    0    0  0.10163452451E+02 -0.32971830920E+02 -0.53945313666E+02  0.64035414159E+02  0.00000000000E+00 0. -1.
         -5    1    3    3    0  503 -0.98168334634E+02 -0.36698478290E+02 -0.54300448644E+03  0.55304589550E+03  0.47000000000E+01 0.  1.
         13    1    4    4    0    0 -0.25319908523E+02  0.21647727228E+02 -0.10764217838E+03  0.11267901503E+03  0.00000000000E+00 0. -1.
        -14    1    4    4    0    0  0.46066482334E+02 -0.14626189330E+02 -0.17148841789E+03  0.17816936796E+03  0.00000000000E+00 0.  1.
</event>
<event>
12    1  0.8331241E-002  0.2046484E+03  0.7818608E-02  0.1146532E+00
         21   -1    0    0  501  502  0.00000000000E+00  0.00000000000E+00  0.86780611662E+03  0.86780611662E+03  0.00000000000E+00 0. -1.
         21   -1    0    0  502  503 -0.00000000000E+00 -0.00000000000E+00 -0.54122243679E+03  0.54122243679E+03  0.00000000000E+00 0. -1.
         -6    2    1    2    0  503  0.40941891818E+02 -0.96097598123E+02 -0.50947342214E+03  0.54903929199E+03  0.17598292363E+03 0.  0.
        -24    2    3    3    0    0 -0.10553309636E+01 -0.39823187833E+01 -0.35779604392E+03  0.36661914926E+03  0.79841210994E+02 0.  0.
          6    2    1    2  501    0 -0.40941891818E+02  0.96097598123E+02  0.83605710197E+03  0.85998926142E+03  0.17227613047E+03 0.  0.
         24    2    5    5    0    0 -0.75476069370E+02  0.29349552700E+02  0.33672531570E+03  0.35501180275E+03  0.78047476355E+02 0.  0.
          5    1    5    5  501    0  0.34534177553E+02  0.66748045423E+02  0.49933178627E+03  0.50497745867E+03  0.47000000000E+01 0. -1.
        -13    1    6    6    0    0 -0.44526468798E+02  0.49977202974E+02  0.14488860820E+03  0.15960274442E+03  0.00000000000E+00 0.  1.
         14    1    6    6    0    0 -0.30949600572E+02 -0.20627650274E+02  0.19183670750E+03  0.19540905833E+03  0.00000000000E+00 0. -1.
         -5    1    3    3    0  503  0.41997222781E+02 -0.92115279340E+02 -0.15167737822E+03  0.18242014273E+03  0.47000000000E+01 0.  1.
         11    1    4    4    0    0 -0.65613552054E+01 -0.28851059677E+02 -0.31797621629E+03  0.31934982253E+03  0.00000000000E+00 0. -1.
        -12    1    4    4    0    0  0.55060242417E+01  0.24868740893E+02 -0.39819827626E+02  0.47269326722E+02  0.00000000000E+00 0.  1.
</event>
<event>
12    1  0.8331241E-002  0.2089159E+03  0.7818608E-02  0.1143390E+00
         21   -1    0    0  501  502  0.00000000000E+00  0.00000000000E+00  0.53474010052E+02  0.53474010052E+02  0.00000000000E+00 0. -1.
         21   -1    0    0  502  503 -0.00000000000E+00 -0.00000000000E+00 -0.10100880383E+04  0.10100880383E+04  0.00000000000E+00 0.  1.
         -6    2    1    2    0  503 -0.11555017510E+03 -0.24242376346E+02 -0.72651608853E+03  0.75595733602E+03  0.17235524713E+03 0.  0.
        -24    2    3    3    0    0 -0.11973038197E+03  0.10480621346E+02 -0.35210569487E+03  0.37988767016E+03  0.76752939943E+02 0.  0.
          6    2    1    2  501    0  0.11555017510E+03  0.24242376346E+02 -0.23009793974E+03  0.30760471236E+03  0.16654147055E+03 0.  0.
         24    2    5    5    0    0  0.43201225852E+02 -0.18413158027E+02 -0.43457730820E+02  0.10288411579E+03  0.80567838565E+02 0.  0.
          5    1    5    5  501    0  0.72348949247E+02  0.42655534373E+02 -0.18664020892E+03  0.20472059656E+03  0.47000000000E+01 0. -1.
        -11    1    6    6    0    0 -0.20728388080E+02 -0.18807617688E+02 -0.21478548901E+02  0.35280598328E+02  0.00000000000E+00 0.  1.
         12    1    6    6    0    0  0.63929613932E+02  0.39445966027E+00 -0.21979181920E+02  0.67603517466E+02  0.00000000000E+00 0. -1.
         -5    1    3    3    0  503  0.41802068756E+01 -0.34722997691E+02 -0.37441039366E+03  0.37606966585E+03  0.47000000000E+01 0.  1.
         13    1    4    4    0    0 -0.11921045665E+02  0.69909696586E+01 -0.25309933666E+01  0.14049587678E+02  0.00000000000E+00 0. -1.
        -14    1    4    4    0    0 -0.10780933631E+03  0.34896516869E+01 -0.34957470150E+03  0.36583808248E+03  0.00000000000E+00 0.  1.
</event>
<event>
12    1  0.8331241E-002  0.1883274E+03  0.7818608E-02  0.1160421E+00
         21   -1    0    0  501  502  0.00000000000E+00  0.00000000000E+00  0.46235376561E+02  0.46235376561E+02  0.00000000000E+00 0.  1.
         21   -1    0    0  502  503 -0.00000000000E+00 -0.00000000000E+00 -0.84928566545E+03  0.84928566545E+03  0.00000000000E+00 0.  1.
         -6    2    1    2    0  503  0.53392667720E+02 -0.51197486101E+02 -0.54545486375E+03  0.57642448402E+03  0.17109125586E+03 0.  0.
        -24    2    3    3    0    0  0.65210707284E+02  0.79733225108E+01 -0.46061183837E+03  0.47220702095E+03  0.80623785421E+02 0.  0.
          6    2    1    2  501    0 -0.53392667720E+02  0.51197486101E+02 -0.25759542514E+03  0.31909655799E+03  0.17319137024E+03 0.  0.
         24    2    5    5    0    0 -0.11613247198E+02  0.94200614678E+02 -0.20241869409E+03  0.23747945994E+03  0.80090841288E+02 0.  0.
          5    1    5    5  501    0 -0.41779420522E+02 -0.43003128577E+02 -0.55176731041E+02  0.81617098055E+02  0.47000000000E+01 0. -1.
        -11    1    6    6    0    0  0.56713841175E+01  0.53808319967E+02 -0.35113415101E+02  0.64501564442E+02  0.00000000000E+00 0.  1.
         12    1    6    6    0    0 -0.17284631315E+02  0.40392294711E+02 -0.16730527899E+03  0.17297789550E+03  0.00000000000E+00 0. -1.
         -5    1    3    3    0  503 -0.11818039565E+02 -0.59170808612E+02 -0.84843025386E+02  0.10421746306E+03  0.47000000000E+01 0.  1.
         11    1    4    4    0    0  0.24049072581E+02  0.42453323665E+02 -0.17950865592E+03  0.18602150449E+03  0.00000000000E+00 0. -1.
        -12    1    4    4    0    0  0.41161634704E+02 -0.34480001154E+02 -0.28110318245E+03  0.28618551646E+03  0.00000000000E+00 0.  1.
</event>
<event>
12    1  0.8331241E-002  0.2231906E+03  0.7818608E-02  0.1131561E+00
         21   -1    0    0  501  502  0.00000000000E+00  0.00000000000E+00  0.95613293205E+02  0.95613293205E+02  0.00000000000E+00 0.  1.
         21   -1    0    0  502  503 -0.00000000000E+00 -0.00000000000E+00 -0.52080978994E+03  0.52080978994E+03  0.00000000000E+00 0.  1.
         -6    2    1    2    0  503 -0.20193035478E+02  0.14063176353E+03 -0.21928392377E+03  0.31275546134E+03  0.17188800942E+03 0.  0.
        -24    2    3    3    0    0 -0.67936691449E+01  0.81651778478E+02 -0.22458679464E+03  0.25185889252E+03  0.79249646992E+02 0.  0.
          6    2    1    2  501    0  0.20193035478E+02 -0.14063176353E+03 -0.20591257297E+03  0.30366762181E+03  0.17213072134E+03 0.  0.
         24    2    5    5    0    0 -0.11005475309E+02 -0.16309978914E+03 -0.14039001089E+03  0.22755287033E+03  0.73132017151E+02 0.  0.
          5    1    5    5  501    0  0.31198510787E+02  0.22468025616E+02 -0.65522562079E+02  0.76114751474E+02  0.47000000000E+01 0. -1.
        -13    1    6    6    0    0 -0.37420807198E+02 -0.47857533440E+02 -0.51312763036E+02  0.79521443452E+02  0.00000000000E+00 0.  1.
         14    1    6    6    0    0  0.26415331889E+02 -0.11524225570E+03 -0.89077247858E+02  0.14803142688E+03  0.00000000000E+00 0. -1.
         -5    1    3    3    0  503 -0.13399366333E+02  0.58979985050E+02  0.53028708704E+01  0.60896568820E+02  0.47000000000E+01 0.  1.
         13    1    4    4    0    0 -0.35915325047E+01 -0.13680705533E+02 -0.59856730342E+02  0.61505194715E+02  0.00000000000E+00 0. -1.
        -14    1    4    4    0    0 -0.32021366402E+01  0.95332484010E+02 -0.16473006429E+03  0.19035369781E+03  0.00000000000E+00 0.  1.
</event>
<event>
12    1  0.8331241E-002  0.3229790E+03  0.7818608E-02  0.1074471E+00
         21   -1    0    0  501  502  0.00000000000E+00  0.00000000000E+00  0.41746453820E+03  0.41746453820E+03  0.00000000000E+00 0.  1.
         21   -1    0    0  502  503 -0.00000000000E+00 -0.00000000000E+00 -0.45019890317E+03  0.45019890317E+03  0.00000000000E+00 0. -1.
         -6    2    1    2    0  503 -0.11194410027E+03  0.24906777275E+03 -0.30663319772E+03  0.44418265636E+03  0.16943458105E+03 0.  0.
        -24    2    3    3    0    0 -0.46550096430E+02  0.20689446384E+03 -0.28344473569E+03  0.36285149078E+03  0.79674685584E+02 0.  0.
          6    2    1    2  501    0  0.11194410027E+03 -0.24906777275E+03  0.27389883275E+03  0.42348078501E+03  0.17247947032E+03 0.  0.
         24    2    5    5    0    0  0.78782500557E+01 -0.13084408206E+03  0.19147451901E+03  0.24565390370E+03  0.80629450813E+02 0.  0.
          5    1    5    5  501    0  0.10406585021E+03 -0.11822369069E+03  0.82424313740E+02  0.17782688131E+03  0.47000000000E+01 0. -1.
        -13    1    6    6    0    0  0.79535346207E+01 -0.33595795906E+02  0.12026299728E+03  0.12512044090E+03  0.00000000000E+00 0.  1.
         14    1    6    6    0    0 -0.75284565026E-01 -0.97248286155E+02  0.71211521728E+02  0.12053346280E+03  0.00000000000E+00 0. -1.
         -5    1    3    3    0  503 -0.65394003840E+02  0.42173308911E+02 -0.23188462027E+02  0.81331165576E+02  0.47000000000E+01 0.  1.
         13    1    4    4    0    0 -0.14334713474E+02  0.27134024681E+02 -0.97532528921E+02  0.10224643516E+03  0.00000000000E+00 0. -1.
        -14    1    4    4    0    0 -0.32215382956E+02  0.17976043916E+03 -0.18591220677E+03  0.26060505562E+03  0.00000000000E+00 0.  1.
</event>
<event>
12    1  0.8331241E-002  0.3276957E+03  0.7818608E-02  0.1072192E+00
         21   -1    0    0  501  502  0.00000000000E+00  0.00000000000E+00  0.85537525153E+03  0.85537525153E+03  0.00000000000E+00 0. -1.
         21   -1    0    0  502  503 -0.00000000000E+00 -0.00000000000E+00 -0.13354010584E+03  0.13354010584E+03  0.00000000000E+00 0.  1.
         -6    2    1    2    0  503 -0.10279129501E+03  0.25919628570E+03  0.23894251794E+03  0.40533183079E+03  0.17161468855E+03 0.  0.
        -24    2    3    3    0    0 -0.69827592542E+02  0.11797696111E+03  0.49550263198E+02  0.16675056692E+03  0.80969543350E+02 0.  0.
          6    2    1    2  501    0  0.10279129501E+03 -0.25919628570E+03  0.48289262775E+03  0.58358352658E+03  0.17215016035E+03 0.  0.
         24    2    5    5    0    0  0.27941425680E+01 -0.54316331674E+02  0.10152449076E+03  0.13924247291E+03  0.78250705560E+02 0.  0.
          5    1    5    5  501    0  0.99997152441E+02 -0.20487995402E+03  0.38136813700E+03  0.44434105367E+03  0.47000000000E+01 0. -1.
        -13    1    6    6    0    0 -0.11989430503E+02 -0.31124971057E+02 -0.72156682202E+00  0.33362118125E+02  0.00000000000E+00 0.  1.
         14    1    6    6    0    0  0.14783573071E+02 -0.23191360617E+02  0.10224605758E+03  0.10588035479E+03  0.00000000000E+00 0. -1.
         -5    1    3    3    0  503 -0.32963702467E+02  0.14121932458E+03  0.18939225474E+03  0.23858126387E+03  0.47000000000E+01 0.  1.
         11    1    4    4    0    0 -0.15616486950E+02  0.74233926212E+02  0.59467802968E+02  0.96389678157E+02  0.00000000000E+00 0. -1.
        -12    1    4    4    0    0 -0.54211105592E+02  0.43743034903E+02 -0.99175397698E+01  0.70360888760E+02  0.00000000000E+00 0.  1.
</event>
<event>
12    1  0.8331241E-002  0.1859866E+03  0.7818608E-02  0.1162572E+00
         21   -1    0    0  503  502  0.00000000000E+00  0.00000000000E+00  0.41561742832E+03  0.41561742832E+03  0.00000000000E+00 0.  1.
         21   -1    0    0  501  503 -0.00000000000E+00 -0.00000000000E+00 -0.11056082069E+03  0.11056082069E+03  0.00000000000E+00 0.  1.
          6    2    1    2  501    0 -0.54448085841E+02  0.47437686536E+02  0.28475855409E+03  0.33908729283E+03  0.16934529776E+03 0.  0.
         24    2    3    3    0    0 -0.89349590205E+02  0.61716002429E+02  0.17287479981E+03  0.22092617493E+03  0.84442075615E+02 0.  0.
         -6    2    1    2    0  502  0.54448085841E+02 -0.47437686536E+02  0.20298053543E+02  0.18709095619E+03  0.17139453537E+03 0.  0.
        -24    2    5    5    0    0  0.50067306474E+02  0.32856345580E+02  0.30475451953E+02  0.10589987133E+03  0.81852030848E+02 0.  0.
          5    1    3    3  501    0  0.34901504364E+02 -0.14278315893E+02  0.11188375427E+03  0.11816111789E+03  0.47000000000E+01 0. -1.
        -13    1    4    4    0    0 -0.26303519319E+02  0.68895977118E+02  0.10084920721E+03  0.12493635734E+03  0.00000000000E+00 0.  1.
         14    1    4    4    0    0 -0.63046070886E+02 -0.71799746892E+01  0.72025592603E+02  0.95989817588E+02  0.00000000000E+00 0. -1.
         -5    1    5    5    0  502  0.43807793672E+01 -0.80294032116E+02 -0.10177398410E+02  0.81191084853E+02  0.47000000000E+01 0.  1.
         11    1    6    6    0    0 -0.46592044687E+01  0.10535668045E+02  0.43819855607E+02  0.45308809661E+02  0.00000000000E+00 0. -1.
        -12    1    6    6    0    0  0.54726510943E+02  0.22320677535E+02 -0.13344403654E+02  0.60591061672E+02  0.00000000000E+00 0.  1.
</event>
<event>
12    1  0.8331241E-002  0.1904166E+03  0.7818608E-02  0.1159454E+00
         21   -1    0    0  503  502  0.00000000000E+00  0.00000000000E+00  0.12795625731E+03  0.12795625731E+03  0.00000000000E+00 0.  1.
         21   -1    0    0  501  503 -0.00000000000E+00 -0.00000000000E+00 -0.78310060403E+03  0.78310060403E+03  0.00000000000E+00 0.  1.
          6    2    1    2  501    0  0.73693114606E+02  0.26491666415E+02 -0.69648490431E+03  0.72204550415E+03  0.17356844360E+03 0.  0.
         24    2    3    3    0    0  0.96906900717E+02  0.41151747668E+02 -0.34688697308E+03  0.37133964255E+03  0.80486920005E+02 0.  0.
         -6    2    1    2    0  502 -0.73693114606E+02 -0.26491666415E+02  0.41340557588E+02  0.18901135719E+03  0.16698433434E+03 0.  0.
        -24    2    5    5    0    0 -0.86793932392E+02 -0.53919482858E+02 -0.10419644699E+02  0.12880234555E+03  0.77723727989E+02 0.  0.
          5    1    3    3  501    0 -0.23213786111E+02 -0.14660081252E+02 -0.34959793122E+03  0.35070586160E+03  0.47000000000E+01 0. -1.
        -13    1    4    4    0    0  0.51700134940E+02  0.38488063420E+02 -0.29721446271E+03  0.30412279070E+03  0.00000000000E+00 0.  1.
         14    1    4    4    0    0  0.45206765777E+02  0.26636842477E+01 -0.49672510368E+02  0.67216851846E+02  0.00000000000E+00 0. -1.
         -5    1    5    5    0  502  0.13100817785E+02  0.27427816442E+02  0.51760202287E+02  0.60209011637E+02  0.47000000000E+01 0.  1.
         11    1    6    6    0    0 -0.30913690238E+02 -0.47907773705E+01 -0.38204442350E+02  0.49378003273E+02  0.00000000000E+00 0. -1.
        -12    1    6    6    0    0 -0.55880242153E+02 -0.49128705487E+02  0.27784797651E+02  0.79424342279E+02  0.00000000000E+00 0.  1.
</event>
<event>
12    1  0.8331241E-002  0.1949347E+03  0.7818608E-02  0.1154150E+00
         21   -1    0    0  503  502  0.00000000000E+00  0.00000000000E+00  0.22004871938E+03  0.22004871938E+03  0.00000000000E+00 0. -1.
         21   -1    0    0  501  503 -0.00000000000E+00 -0.00000000000E+00 -0.18232821120E+03  0.18232821120E+03  0.00000000000E+00 0. -1.
          6    2    1    2  501    0 -0.19257249166E+01  0.91256901530E+02 -0.28052227300E+02  0.19664508968E+03  0.17190355827E+03 0.  0.
         24    2    3    3    0    0  0.53370716555E+02  0.38748490254E+02  0.20628898859E+02  0.10605385534E+03  0.80448678564E+02 0.  0.
         -6    2    1    2    0  502  0.19257249166E+01 -0.91256901530E+02  0.65772735480E+02  0.20573184089E+03  0.17224403366E+03 0.  0.
        -24    2    5    5    0    0  0.46613762727E+02 -0.32339361997E+02 -0.12226709683E+02  0.98147917217E+02  0.79150767618E+02 0.  0.
          5    1    3    3  501    0 -0.55296441471E+02  0.52508411277E+02 -0.48681126159E+02  0.90591234335E+02  0.47000000000E+01 0. -1.
        -13    1    4    4    0    0  0.50552292696E+01  0.44495528345E+02 -0.13324651512E+02  0.46722090317E+02  0.00000000000E+00 0.  1.
         14    1    4    4    0    0  0.48315487285E+02 -0.57470380909E+01  0.33953550371E+02  0.59331765027E+02  0.00000000000E+00 0. -1.
         -5    1    5    5    0  502 -0.44688037810E+02 -0.58917539534E+02  0.77999445163E+02  0.10758392368E+03  0.47000000000E+01 0.  1.
         11    1    6    6    0    0  0.60448156779E+02 -0.45264637917E+02  0.17012845262E+00  0.75517521460E+02  0.00000000000E+00 0. -1.
        -12    1    6    6    0    0 -0.13834394052E+02  0.12925275920E+02 -0.12396838135E+02  0.22630395758E+02  0.00000000000E+00 0.  1.
</event>
<event>
12    1  0.8331241E-002  0.1977031E+03  0.7818608E-02  0.1152958E+00
         21   -1    0    0  503  502  0.00000000000E+00  0.00000000000E+00  0.34602777002E+03  0.34602777002E+03  0.00000000000E+00 0.  1.
         21   -1    0    0  501  503 -0.00000000000E+00 -0.00000000000E+00 -0.28706757828E+03  0.28706757828E+03  0.00000000000E+00 0.  1.
          6    2    1    2  501    0  0.94394748763E+02 -0.25619627487E+02 -0.21919093354E+03  0.29517989792E+03  0.17181319181E+03 0.  0.
         24    2    3    3    0    0  0.65062242910E+02  0.33484166905E+02 -0.19770551943E+03  0.22562871223E+03  0.80414914553E+02 0.  0.
         -6    2    1    2    0  502 -0.94394748763E+02  0.25619627487E+02  0.27815112529E+03  0.33791545038E+03  0.16508200749E+03 0.  0.
        -24    2    5    5    0    0 -0.37320321847E+02 -0.41387986681E+02  0.18870953988E+03  0.21233918764E+03  0.79817719203E+02 0.  0.
          5    1    3    3  501    0  0.29332505853E+02 -0.59103794392E+02 -0.21485414111E+02  0.69551185689E+02  0.47000000000E+01 0. -1.
        -11    1    4    4    0    0 -0.15905692984E+02  0.18894596019E+02 -0.64469432512E+02  0.69038428114E+02  0.00000000000E+00 0.  1.
         12    1    4    4    0    0  0.80967935894E+02  0.14589570887E+02 -0.13323608692E+03  0.15659028412E+03  0.00000000000E+00 0. -1.
         -5    1    5    5    0  502 -0.57074426917E+02  0.67007614168E+02  0.89441585403E+02  0.12557626274E+03  0.47000000000E+01 0.  1.
         11    1    6    6    0    0  0.18952914925E+02  0.78844749046E+01  0.60730836238E+02  0.64106258656E+02  0.00000000000E+00 0. -1.
        -12    1    6    6    0    0 -0.56273236771E+02 -0.49272461585E+02  0.12797870365E+03  0.14823292898E+03  0.00000000000E+00 0.  1.
</event>
<event>
12    1  0.8331241E-002  0.2230018E+03  0.7818608E-02  0.1131713E+00
         21   -1    0    0  501  502  0.00000000000E+00  0.00000000000E+00  0.22688663616E+02  0.22688663616E+02  0.00000000000E+00 0. -1.
         21   -1    0    0  502  503 -0.00000000000E+00 -0.00000000000E+00 -0.25220299124E+04  0.25220299124E+04  0.00000000000E+00 0. -1.
         -6    2    1    2    0  503  0.12464180927E+03  0.69660791776E+02 -0.17112072360E+04  0.17256428601E+04  0.17095282849E+03 0.  0.
        -24    2    3    3    0    0  0.45039587927E+02  0.11720828108E+02 -0.12768283146E+04  0.12802209361E+04  0.80679352758E+02 0.  0.
          6    2    1    2  501    0 -0.12464180927E+03 -0.69660791776E+02 -0.78813401271E+03  0.81907571584E+03  0.17129389875E+03 0.  0.
         24    2    5    5    0    0 -0.42068510627E+02 -0.77140975396E+02 -0.62401523385E+03  0.63514266723E+03  0.79313970912E+02 0.  0.
          5    1    5    5  501    0 -0.82573298644E+02  0.74801836200E+01 -0.16411877886E+03  0.18393304861E+03  0.47000000000E+01 0. -1.
        -11    1    6    6    0    0 -0.64199624676E+02 -0.59346212366E+02 -0.40750287449E+03  0.41677590795E+03  0.00000000000E+00 0.  1.
         12    1    6    6    0    0  0.22131114049E+02 -0.17794763030E+02 -0.21651235936E+03  0.21836675928E+03  0.00000000000E+00 0. -1.
         -5    1    3    3    0  503  0.79602221345E+02  0.57939963667E+02 -0.43437892139E+03  0.44542192400E+03  0.47000000000E+01 0.  1.
         11    1    4    4    0    0 -0.22438128730E+01 -0.23372238308E+02 -0.14736808343E+03  0.14922683483E+03  0.00000000000E+00 0. -1.
        -12    1    4    4    0    0  0.47283400800E+02  0.35093066417E+02 -0.11294602312E+04  0.11309941013E+04  0.00000000000E+00 0.  1.
</event>
<event>
12    1  0.8331241E-002  0.3623809E+03  0.7818608E-02  0.1057846E+00
         21   -1    0    0  501  502  0.00000000000E+00  0.00000000000E+00  0.75845516500E+03  0.75845516500E+03  0.00000000000E+00 0.  1.
         21   -1    0    0  502  503 -0.00000000000E+00 -0.00000000000E+00 -0.24469171133E+03  0.24469171133E+03  0.00000000000E+00 0. -1.
         -6    2    1    2    0  503 -0.20652559927E+03 -0.23938602984E+03 -0.15675021181E+02  0.36271971175E+03  0.17709146949E+03 0.  0.
        -24    2    3    3    0    0 -0.91516933361E+02 -0.17583496242E+03  0.44126679281E+02  0.21827572682E+03  0.80024033838E+02 0.  0.
          6    2    1    2  501    0  0.20652559927E+03  0.23938602984E+03  0.52943847486E+03  0.64042716458E+03  0.17286804226E+03 0.  0.
         24    2    5    5    0    0  0.16560885646E+03  0.20728357151E+03  0.51708597425E+03  0.58676691910E+03  0.80775864160E+02 0.  0.
          5    1    5    5  501    0  0.40916742813E+02  0.32102458332E+02  0.12352500605E+02  0.53660245477E+02  0.47000000000E+01 0. -1.
        -13    1    6    6    0    0  0.63872154564E+02  0.38381356472E+02  0.19935521483E+03  0.21282688348E+03  0.00000000000E+00 0.  1.
         14    1    6    6    0    0  0.10173670189E+03  0.16890221504E+03  0.31773075942E+03  0.37394003562E+03  0.00000000000E+00 0. -1.
         -5    1    3    3    0  503 -0.11500866591E+03 -0.63551067417E+02 -0.59801700462E+02  0.14444398493E+03  0.47000000000E+01 0.  1.
         13    1    4    4    0    0 -0.99999063204E+02 -0.17487589306E+03  0.50429907661E+02  0.20766455211E+03  0.00000000000E+00 0. -1.
        -14    1    4    4    0    0  0.84821298435E+01 -0.95906936177E+00 -0.63032283798E+01  0.10611174710E+02  0.00000000000E+00 0.  1.
</event>
<event>
12    1  0.8331241E-002  0.2046155E+03  0.7818608E-02  0.1146998E+00
         21   -1    0    0  503  502  0.00000000000E+00  0.00000000000E+00  0.29218961987E+03  0.29218961987E+03  0.00000000000E+00 0. -1.
         21   -1    0    0  501  503 -0.00000000000E+00 -0.00000000000E+00 -0.18396484502E+03  0.18396484502E+03  0.00000000000E+00 0.  1.
          6    2    1    2  501    0  0.12029187777E+03  0.13312194414E+02 -0.62236961213E+02  0.21387136021E+03  0.16498535996E+03 0.  0.
         24    2    3    3    0    0 -0.22294492522E+01  0.17333928768E+02 -0.22621381766E+02  0.84956139790E+02  0.80002395243E+02 0.  0.
         -6    2    1    2    0  502 -0.12029187777E+03 -0.13312194414E+02  0.17046173607E+03  0.26228310467E+03  0.15839151858E+03 0.  0.
        -24    2    5    5    0    0 -0.14827490466E+03 -0.20310115143E+02  0.15413184183E+03  0.22880510990E+03  0.78722331761E+02 0.  0.
          5    1    3    3  501    0  0.12252132702E+03 -0.40217343545E+01 -0.39615579447E+02  0.12891522042E+03  0.47000000000E+01 0. -1.
        -13    1    4    4    0    0 -0.24090601159E+02 -0.17751116941E+02 -0.30660708841E+02  0.42843182462E+02  0.00000000000E+00 0.  1.
         14    1    4    4    0    0  0.21861151907E+02  0.35085045710E+02  0.80393270748E+01  0.42112957328E+02  0.00000000000E+00 0. -1.
         -5    1    5    5    0  502  0.27983026895E+02  0.69979207289E+01  0.16329894233E+02  0.33477994779E+02  0.47000000000E+01 0.  1.
         11    1    6    6    0    0 -0.81620181877E+01  0.47444545479E+01  0.53897614489E+02  0.54718198412E+02  0.00000000000E+00 0. -1.
        -12    1    6    6    0    0 -0.14011288647E+03 -0.25054569691E+02  0.10023422734E+03  0.17408691148E+03  0.00000000000E+00 0.  1.
</event>
<event>
12    1  0.8331241E-002  0.1939492E+03  0.7818608E-02  0.1155067E+00
         21   -1    0    0  501  502  0.00000000000E+00  0.00000000000E+00  0.46056044988E+02  0.46056044988E+02  0.00000000000E+00 0. -1.
         21   -1    0    0  502  503 -0.00000000000E+00 -0.00000000000E+00 -0.11623793213E+04  0.11623793213E+04  0.00000000000E+00 0. -1.
         -6    2    1    2    0  503 -0.12695542083E+02 -0.86904408009E+02 -0.88818014947E+03  0.90899323435E+03  0.17231125687E+03 0.  0.
        -24    2    3    3    0    0  0.25827490123E+02  0.98654604574E+01 -0.29817244670E+03  0.30984416209E+03  0.79575186165E+02 0.  0.
          6    2    1    2  501    0  0.12695542083E+02  0.86904408009E+02 -0.22814312686E+03  0.29944213196E+03  0.17292411961E+03 0.  0.
         24    2    5    5    0    0 -0.38743615623E+02 -0.23990491743E+01 -0.89723488665E+02  0.12680615469E+03  0.80763068673E+02 0.  0.
          5    1    5    5  501    0  0.51439157706E+02  0.89303457184E+02 -0.13841963819E+03  0.17263597727E+03  0.47000000000E+01 0. -1.
        -13    1    6    6    0    0 -0.40673374411E+02  0.31600922644E+02 -0.71680762694E+02  0.88267057492E+02  0.00000000000E+00 0.  1.
         14    1    6    6    0    0  0.19297587888E+01 -0.33999971818E+02 -0.18042725970E+02  0.38539097201E+02  0.00000000000E+00 0. -1.
         -5    1    3    3    0  503 -0.38523032206E+02 -0.96769868467E+02 -0.59000770278E+03  0.59914907226E+03  0.47000000000E+01 0.  1.
         13    1    4    4    0    0  0.52244869603E+02  0.14948647603E+02 -0.23464677078E+03  0.24085700219E+03  0.00000000000E+00 0. -1.
        -14    1    4    4    0    0 -0.26417379480E+02 -0.50831871458E+01 -0.63525675918E+02  0.68987159899E+02  0.00000000000E+00 0.  1.
</event>
<event>
12    1  0.8331241E-002  0.1852417E+03  0.7818608E-02  0.1162847E+00
         21   -1    0    0  501  502  0.00000000000E+00  0.00000000000E+00  0.59647991320E+03  0.59647991320E+03  0.00000000000E+00 0. -1.
         21   -1    0    0  502  503 -0.00000000000E+00 -0.00000000000E+00 -0.98141231323E+02  0.98141231323E+02  0.00000000000E+00 0. -1.
         -6    2    1    2    0  503 -0.50156278659E+02  0.46033310075E+02  0.25629551844E+02  0.18691216099E+03  0.17217596833E+03 0.  0.
        -24    2    3    3    0    0 -0.90251910867E+01 -0.19414458547E+02  0.60216277225E+02  0.10209760826E+03  0.79621267849E+02 0.  0.
          6    2    1    2  501    0  0.50156278659E+02 -0.46033310075E+02  0.47270913004E+03  0.50770898354E+03  0.17227818324E+03 0.  0.
         24    2    5    5    0    0  0.19000930091E+01  0.24208508940E+02  0.33987896786E+03  0.34982131912E+03  0.79168050742E+02 0.  0.
          5    1    5    5  501    0  0.48256185649E+02 -0.70241819015E+02  0.13283016218E+03  0.15788766442E+03  0.47000000000E+01 0. -1.
        -13    1    6    6    0    0  0.35272222459E+02  0.29339500276E+02  0.14647547031E+03  0.15349266874E+03  0.00000000000E+00 0.  1.
         14    1    6    6    0    0 -0.33372129450E+02 -0.51309913368E+01  0.19340349755E+03  0.19632865038E+03  0.00000000000E+00 0. -1.
         -5    1    3    3    0  503 -0.41131087572E+02  0.65447768622E+02 -0.34586725382E+02  0.84814552732E+02  0.47000000000E+01 0.  1.
         13    1    4    4    0    0  0.20347617304E+02  0.10041278477E+02 -0.63861333790E+01  0.23571921919E+02  0.00000000000E+00 0. -1.
        -14    1    4    4    0    0 -0.29372808391E+02 -0.29455737024E+02  0.66602410604E+02  0.78525686337E+02  0.00000000000E+00 0.  1.
</event>
<event>
12    1  0.8331241E-002  0.1831205E+03  0.7818608E-02  0.1166329E+00
         21   -1    0    0  501  502  0.00000000000E+00  0.00000000000E+00  0.33574934714E+02  0.33574934714E+02  0.00000000000E+00 0. -1.
         21   -1    0    0  502  503 -0.00000000000E+00 -0.00000000000E+00 -0.97972080117E+03  0.97972080117E+03  0.00000000000E+00 0. -1.
         -6    2    1    2    0  503 -0.37824540952E+01 -0.54102632406E+02 -0.52740754332E+03  0.55626740253E+03  0.16832499687E+03 0.  0.
        -24    2    3    3    0    0 -0.36470825618E+02 -0.88399332221E+02 -0.42648877537E+03  0.44468119829E+03  0.81878749015E+02 0.  0.
          6    2    1    2  501    0  0.37824540952E+01  0.54102632406E+02 -0.41873832314E+03  0.45702833336E+03  0.17490486682E+03 0.  0.
         24    2    5    5    0    0 -0.63432547604E+02  0.31091812078E+02 -0.19594548429E+03  0.22313499582E+03  0.80026274871E+02 0.  0.
          5    1    5    5  501    0  0.67215001699E+02  0.23010820329E+02 -0.22279283884E+03  0.23389333754E+03  0.47000000000E+01 0. -1.
        -13    1    6    6    0    0 -0.31287123367E+02  0.17739134489E+01 -0.16917182214E+03  0.17204980751E+03  0.00000000000E+00 0.  1.
         14    1    6    6    0    0 -0.32145424237E+02  0.29317898629E+02 -0.26773662151E+02  0.51085188307E+02  0.00000000000E+00 0. -1.
         -5    1    3    3    0  503  0.32688371523E+02  0.34296699815E+02 -0.10091876796E+03  0.11158620424E+03  0.47000000000E+01 0.  1.
         11    1    4    4    0    0 -0.57912554877E+02 -0.70029846279E+02 -0.25117647776E+03  0.26710983951E+03  0.00000000000E+00 0. -1.
        -12    1    4    4    0    0  0.21441729259E+02 -0.18369485943E+02 -0.17531229760E+03  0.17757135878E+03  0.00000000000E+00 0.  1.
</event>
<event>
12    1  0.8331241E-002  0.1797848E+03  0.7818608E-02  0.1168201E+00
         21   -1    0    0  501  502  0.00000000000E+00  0.00000000000E+00  0.25327794664E+03  0.25327794664E+03  0.00000000000E+00 0. -1.
         21   -1    0    0  502  503 -0.00000000000E+00 -0.00000000000E+00 -0.15134428795E+03  0.15134428795E+03  0.00000000000E+00 0. -1.
         -6    2    1    2    0  503  0.50310732003E+02 -0.80767896295E+00 -0.29972180426E+02  0.18226598318E+03  0.17259992736E+03 0.  0.
        -24    2    3    3    0    0  0.54042115962E+02  0.50294395394E+02 -0.58767345784E+02  0.12330331043E+03  0.79372721549E+02 0.  0.
          6    2    1    2  501    0 -0.50310732003E+02  0.80767896295E+00  0.13190583911E+03  0.22235625141E+03  0.17178862026E+03 0.  0.
         24    2    5    5    0    0 -0.11775822857E+02 -0.44758531539E+02  0.14309580667E+02  0.90400998530E+02  0.76325489103E+02 0.  0.
          5    1    5    5  501    0 -0.38534909145E+02  0.45566210502E+02  0.11759625844E+03  0.13195525288E+03  0.47000000000E+01 0. -1.
        -13    1    6    6    0    0 -0.42683556645E+02 -0.28128964710E+02  0.19910638837E+02  0.54859440413E+02  0.00000000000E+00 0.  1.
         14    1    6    6    0    0  0.30907733787E+02 -0.16629566829E+02 -0.56010581702E+01  0.35541558117E+02  0.00000000000E+00 0. -1.
         -5    1    3    3    0  503 -0.37313839599E+01 -0.51102074357E+02  0.28795165358E+02  0.58962672750E+02  0.47000000000E+01 0.  1.
         13    1    4    4    0    0 -0.12201330695E+02  0.17620636911E+02 -0.42605494627E+02  0.47692635577E+02  0.00000000000E+00 0. -1.
        -14    1    4    4    0    0  0.66243446658E+02  0.32673758483E+02 -0.16161851157E+02  0.75610674850E+02  0.00000000000E+00 0.  1.
</event>
<event>
12    1  0.8331241E-002  0.1782643E+03  0.7818608E-02  0.1169595E+00
         21   -1    0    0  501  502  0.00000000000E+00  0.00000000000E+00  0.45287148907E+03  0.45287148907E+03  0.00000000000E+00 0.  1.
         21   -1    0    0  502  503 -0.00000000000E+00 -0.00000000000E+00 -0.75597540619E+02  0.75597540619E+02  0.00000000000E+00 0.  1.
         -6    2    1    2    0  503 -0.42829906961E+02  0.18588063860E+02  0.11657609279E+03  0.21265019831E+03  0.17161061850E+03 0.  0.
        -24    2    3    3    0    0 -0.10945536188E+01 -0.50573625220E+02  0.42784113727E+02  0.10313981008E+03  0.79047140501E+02 0.  0.
          6    2    1    2  501    0  0.42829906961E+02 -0.18588063860E+02  0.26069785567E+03  0.31581883139E+03  0.17204140565E+03 0.  0.
         24    2    5    5    0    0  0.24910408943E+02  0.54354448357E+02  0.10990108305E+03  0.14728552569E+03  0.77716429998E+02 0.  0.
          5    1    5    5  501    0  0.17919498018E+02 -0.72942512217E+02  0.15079677262E+03  0.16853330570E+03  0.47000000000E+01 0. -1.
        -13    1    6    6    0    0  0.24641682713E+02 -0.13132561067E+02  0.17832121444E+02  0.33130971044E+02  0.00000000000E+00 0.  1.
         14    1    6    6    0    0  0.26872623010E+00  0.67487009423E+02  0.92068961606E+02  0.11415455464E+03  0.00000000000E+00 0. -1.
         -5    1    3    3    0  503 -0.41735353342E+02  0.69161689080E+02  0.73791979060E+02  0.10951038822E+03  0.47000000000E+01 0.  1.
         13    1    4    4    0    0  0.17485401001E+02 -0.28865158088E+02  0.60673517913E+02  0.69427749320E+02  0.00000000000E+00 0. -1.
        -14    1    4    4    0    0 -0.18579954620E+02 -0.21708467131E+02 -0.17889404187E+02  0.33712060765E+02  0.00000000000E+00 0.  1.
</event>
<event>
12    1  0.8331241E-002  0.2699363E+03  0.7818608E-02  0.1101390E+00
         21   -1    0    0  501  502  0.00000000000E+00  0.00000000000E+00  0.43309123296E+03  0.43309123296E+03  0.00000000000E+00 0. -1.
         21   -1    0    0  502  503 -0.00000000000E+00 -0.00000000000E+00 -0.18383737445E+03  0.18383737445E+03  0.00000000000E+00 0.  1.
         -6    2    1    2    0  503  0.13610420941E+03  0.15785613887E+03  0.33979297939E+02  0.27206651142E+03  0.17153039832E+03 0.  0.
        -24    2    3    3    0    0  0.14924630034E+03  0.17039419373E+03  0.81830435513E+01  0.24016895487E+03  0.79407337557E+02 0.  0.
          6    2    1    2  501    0 -0.13610420941E+03 -0.15785613887E+03  0.21527456058E+03  0.34486209599E+03  0.17071558927E+03 0.  0.
         24    2    5    5    0    0 -0.96335571010E+02 -0.17133006316E+03  0.12800532145E+03  0.24790281931E+03  0.80224140496E+02 0.  0.
          5    1    5    5  501    0 -0.39768638404E+02  0.13473924288E+02  0.87269239126E+02  0.96959276678E+02  0.47000000000E+01 0. -1.
        -13    1    6    6    0    0 -0.19701022522E+01 -0.29425897190E+02 -0.72097947483E+01  0.30360267928E+02  0.00000000000E+00 0.  1.
         14    1    6    6    0    0 -0.94365468758E+02 -0.14190416597E+03  0.13521511620E+03  0.21754255139E+03  0.00000000000E+00 0. -1.
         -5    1    3    3    0  503 -0.13142090923E+02 -0.12538054859E+02  0.25796254388E+02  0.31897556551E+02  0.47000000000E+01 0.  1.
         11    1    4    4    0    0  0.27677878827E+02  0.18626074275E+02  0.29520929574E+02  0.44547512862E+02  0.00000000000E+00 0. -1.
        -12    1    4    4    0    0  0.12156842151E+03  0.15176811946E+03 -0.21337886023E+02  0.19562144200E+03  0.00000000000E+00 0.  1.
</event>
<event>
12    1  0.8331241E-002  0.3021854E+03  0.7818608E-02  0.1084175E+00
         21   -1    0    0  501  502  0.00000000000E+00  0.00000000000E+00  0.30019087603E+03  0.30019087603E+03  0.00000000000E+00 0.  1.
         21   -1    0    0  502  503 -0.00000000000E+00 -0.00000000000E+00 -0.33378774270E+03  0.33378774270E+03  0.00000000000E+00 0. -1.
         -6    2    1    2    0  503  0.13351128092E+03  0.20897433779E+03 -0.11147314439E+03  0.32209051185E+03  0.17268613122E+03 0.  0.
        -24    2    3    3    0    0  0.15764981863E+03  0.17806590347E+03 -0.60577296609E+02  0.25766631115E+03  0.78494507717E+02 0.  0.
          6    2    1    2  501    0 -0.13351128092E+03 -0.20897433779E+03  0.77876277728E+02  0.31188810687E+03  0.17237732040E+03 0.  0.
         24    2    5    5    0    0 -0.79837287977E+02 -0.44712449242E+02  0.68236940851E+02  0.13874691488E+03  0.78874778123E+02 0.  0.
          5    1    5    5  501    0 -0.53673992946E+02 -0.16426188855E+03  0.96393368770E+01  0.17314119199E+03  0.47000000000E+01 0. -1.
        -13    1    6    6    0    0 -0.50516419380E+02 -0.32271124977E+02 -0.37159001691E+01  0.60059487579E+02  0.00000000000E+00 0.  1.
         14    1    6    6    0    0 -0.29320868597E+02 -0.12441324265E+02  0.71952841020E+02  0.78687427303E+02  0.00000000000E+00 0. -1.
         -5    1    3    3    0  503 -0.24138537710E+02  0.30908434323E+02 -0.50895847783E+02  0.64424200706E+02  0.47000000000E+01 0.  1.
         11    1    4    4    0    0  0.21991373640E+02  0.79641867424E+02 -0.25095366748E+02  0.86349435398E+02  0.00000000000E+00 0. -1.
        -12    1    4    4    0    0  0.13565844499E+03  0.98424036046E+02 -0.35481929861E+02  0.17131687575E+03  0.00000000000E+00 0.  1.
</event>
<event>
12    1  0.8331241E-002  0.2395505E+03  0.7818608E-02  0.1120132E+00
         21   -1    0    0  503  502  0.00000000000E+00  0.00000000000E+00  0.33905150685E+03  0.33905150685E+03  0.00000000000E+00 0.  1.
         21   -1    0    0  501  503 -0.00000000000E+00 -0.00000000000E+00 -0.52949158504E+03  0.52949158504E+03  0.00000000000E+00 0.  1.
          6    2    1    2  501    0 -0.24326069612E+02 -0.16395355487E+03 -0.45348979970E+03  0.51276284023E+03  0.17262736189E+03 0.  0.
         24    2    3    3    0    0 -0.51300548268E+02 -0.42804654014E+02 -0.28720330615E+03  0.30521051764E+03  0.78763801053E+02 0.  0.
         -6    2    1    2    0  502  0.24326069612E+02  0.16395355487E+03  0.26304972151E+03  0.35578025165E+03  0.17295058734E+03 0.  0.
        -24    2    5    5    0    0 -0.14630142182E+02  0.10120719023E+03  0.66110953076E+02  0.14539569607E+03  0.79450071781E+02 0.  0.
          5    1    3    3  501    0  0.26974478656E+02 -0.12114890085E+03 -0.16628649355E+03  0.20755232260E+03  0.47000000000E+01 0. -1.
        -13    1    4    4    0    0 -0.53374345464E+02 -0.63109030880E+02 -0.23792451306E+03  0.25187227805E+03  0.00000000000E+00 0.  1.
         14    1    4    4    0    0  0.20737971958E+01  0.20304376866E+02 -0.49278793085E+02  0.53338239590E+02  0.00000000000E+00 0. -1.
         -5    1    5    5    0  502  0.38956211793E+02  0.62746364637E+02  0.19693876844E+03  0.21038455558E+03  0.47000000000E+01 0.  1.
         13    1    6    6    0    0  0.14318579327E+02 -0.74567130998E+00  0.30308224857E+02  0.33528588304E+02  0.00000000000E+00 0. -1.
        -14    1    6    6    0    0 -0.28948721508E+02  0.10195286154E+03  0.35802728218E+02  0.11186710777E+03  0.00000000000E+00 0.  1.
</event>
<event>
12    1  0.8331241E-002  0.1981450E+03  0.7818608E-02  0.1151427E+00
         21   -1    0    0  501  502  0.00000000000E+00  0.00000000000E+00  0.89363245163E+03  0.89363245163E+03  0.00000000000E+00 0. -1.
         21   -1    0    0  502  503 -0.00000000000E+00 -0.00000000000E+00 -0.44819160299E+02  0.44819160299E+02  0.00000000000E+00 0.  1.
         -6    2    1    2    0  503 -0.57349301577E+02 -0.78167291427E+02  0.49400160823E+03  0.53206171086E+03  0.17220048605E+03 0.  0.
        -24    2    3    3    0    0  0.25502610946E+02 -0.39206303730E+02  0.14354879001E+03  0.16981639928E+03  0.77742118140E+02 0.  0.
          6    2    1    2  501    0  0.57349301577E+02  0.78167291427E+02  0.35481168311E+03  0.40638990107E+03  0.17280727236E+03 0.  0.
         24    2    5    5    0    0  0.32456377984E+02  0.16576767789E+02  0.65555764341E+02  0.10956650781E+03  0.79868990805E+02 0.  0.
          5    1    5    5  501    0  0.24892923593E+02  0.61590523638E+02  0.28925591876E+03  0.29682339326E+03  0.47000000000E+01 0. -1.
        -11    1    6    6    0    0 -0.18625465576E+02  0.15089802664E+02 -0.28932543530E+01  0.24145000168E+02  0.00000000000E+00 0.  1.
         12    1    6    6    0    0  0.51081843560E+02  0.14869651249E+01  0.68449018694E+02  0.85421507637E+02  0.00000000000E+00 0. -1.
         -5    1    3    3    0  503 -0.82851912523E+02 -0.38960987698E+02  0.35045281821E+03  0.36224531158E+03  0.47000000000E+01 0.  1.
         11    1    4    4    0    0  0.28991455182E+02 -0.27318492500E+02  0.15045038165E+03  0.15563457792E+03  0.00000000000E+00 0. -1.
        -12    1    4    4    0    0 -0.34888442365E+01 -0.11887811229E+02 -0.69015916365E+01  0.14181821359E+02  0.00000000000E+00 0.  1.
</event>
<event>
12    1  0.8331241E-002  0.1895113E+03  0.7818608E-02  0.1159474E+00
         21   -1    0    0  503  502  0.00000000000E+00  0.00000000000E+00  0.49560950700E+02  0.49560950700E+02  0.00000000000E+00 0.  1.
         21   -1    0    0  501  503 -0.00000000000E+00 -0.00000000000E+00 -0.74576101449E+03  0.74576101449E+03  0.00000000000E+00 0.  1.
          6    2    1    2  501    0  0.27603298826E+02  0.69723307463E+02 -0.26969046014E+03  0.32961718182E+03  0.17404384662E+03 0.  0.
         24    2    3    3    0    0  0.77920950260E+02  0.53853607006E+02 -0.13017910037E+03  0.18038842137E+03  0.81372593142E+02 0.  0.
         -6    2    1    2    0  502 -0.27603298826E+02 -0.69723307463E+02 -0.42650960364E+03  0.46570478337E+03  0.17131030776E+03 0.  0.
        -24    2    5    5    0    0  0.66534889652E+00 -0.58759244561E+02 -0.41855481782E+03  0.43400784760E+03  0.98598097081E+02 0.  0.
          5    1    3    3  501    0 -0.50317651434E+02  0.15869700457E+02 -0.13951135978E+03  0.14922876045E+03  0.47000000000E+01 0. -1.
        -13    1    4    4    0    0  0.29037159554E+02  0.65787685439E+02 -0.57924793059E+02  0.92338820879E+02  0.00000000000E+00 0.  1.
         14    1    4    4    0    0  0.48883790706E+02 -0.11934078433E+02 -0.72254307308E+02  0.88049600490E+02  0.00000000000E+00 0. -1.
         -5    1    5    5    0  502 -0.28268647722E+02 -0.10964062902E+02 -0.79547858170E+01  0.31696935763E+02  0.47000000000E+01 0.  1.
         11    1    6    6    0    0  0.30391281220E+02 -0.44309312256E+01 -0.40051032570E+02  0.50471262473E+02  0.00000000000E+00 0. -1.
        -12    1    6    6    0    0 -0.29725932324E+02 -0.54328313336E+02 -0.37850378525E+03  0.38353658513E+03  0.00000000000E+00 0.  1.
</event>
<event>
12    1  0.8331241E-002  0.2205893E+03  0.7818608E-02  0.1133476E+00
         21   -1    0    0  503  502  0.00000000000E+00  0.00000000000E+00  0.24437153490E+03  0.24437153490E+03  0.00000000000E+00 0.  1.
         21   -1    0    0  501  503 -0.00000000000E+00 -0.00000000000E+00 -0.34399541143E+03  0.34399541143E+03  0.00000000000E+00 0.  1.
          6    2    1    2  501    0  0.10080746144E+03 -0.93223246388E+02 -0.24083849002E+03  0.32659273760E+03  0.17264680719E+03 0.  0.
         24    2    3    3    0    0  0.13760653173E+03 -0.85158529682E+02 -0.17981963425E+03  0.25472757227E+03  0.79771564232E+02 0.  0.
         -6    2    1    2    0  502 -0.10080746144E+03  0.93223246388E+02  0.14121461349E+03  0.26177420873E+03  0.17242810486E+03 0.  0.
        -24    2    5    5    0    0 -0.11044113505E+03  0.53390731727E+02  0.41948114014E+02  0.15427832597E+03  0.83632189078E+02 0.  0.
          5    1    3    3  501    0 -0.36799070288E+02 -0.80647167059E+01 -0.61018855767E+02  0.71865165336E+02  0.47000000000E+01 0. -1.
        -13    1    4    4    0    0  0.69325140217E+02 -0.81011522508E+02 -0.13857630448E+03  0.17484917503E+03  0.00000000000E+00 0.  1.
         14    1    4    4    0    0  0.68281391508E+02 -0.41470071740E+01 -0.41243329773E+02  0.79878397240E+02  0.00000000000E+00 0. -1.
         -5    1    5    5    0  502  0.96336736147E+01  0.39832514661E+02  0.99266499472E+02  0.10749588275E+03  0.47000000000E+01 0.  1.
         11    1    6    6    0    0 -0.87541311030E+01  0.29121847162E+02 -0.16405352821E+02  0.34552169174E+02  0.00000000000E+00 0. -1.
        -12    1    6    6    0    0 -0.10168700395E+03  0.24268884566E+02  0.58353466835E+02  0.11972615680E+03  0.00000000000E+00 0.  1.
</event>
<event>
12    1  0.8331241E-002  0.1960295E+03  0.7818608E-02  0.1153179E+00
         21   -1    0    0  501  502  0.00000000000E+00  0.00000000000E+00  0.42839430097E+03  0.42839430097E+03  0.00000000000E+00 0. -1.
         21   -1    0    0  502  503 -0.00000000000E+00 -0.00000000000E+00 -0.10122099789E+03  0.10122099789E+03  0.00000000000E+00 0.  1.
         -6    2    1    2    0  503 -0.56693242716E+01 -0.93681306946E+02  0.73955087421E+02  0.20951589686E+03  0.17210237527E+03 0.  0.
        -24    2    3    3    0    0 -0.70414285824E+02 -0.66669903409E+02  0.50338991909E+02  0.13534490567E+03  0.79882299132E+02 0.  0.
          6    2    1    2  501    0  0.56693242716E+01  0.93681306946E+02  0.25321821565E+03  0.32009940200E+03  0.17185992528E+03 0.  0.
         24    2    5    5    0    0 -0.43723181340E+02  0.11079712667E+03  0.20092346850E+03  0.24600890683E+03  0.77216722163E+02 0.  0.
          5    1    5    5  501    0  0.49392505612E+02 -0.17115819720E+02  0.52294747152E+02  0.74090495173E+02  0.47000000000E+01 0. -1.
        -11    1    6    6    0    0 -0.11909911464E+02  0.91502324482E+02  0.89544992878E+02  0.12858004171E+03  0.00000000000E+00 0.  1.
         12    1    6    6    0    0 -0.31813269876E+02  0.19294802185E+02  0.11137847562E+03  0.11742886512E+03  0.00000000000E+00 0. -1.
         -5    1    3    3    0  503  0.64744961552E+02 -0.27011403538E+02  0.23616095513E+02  0.74170991194E+02  0.47000000000E+01 0.  1.
         13    1    4    4    0    0 -0.96172505294E+01  0.18041840165E+02  0.14586897967E+02  0.25115276159E+02  0.00000000000E+00 0. -1.
        -14    1    4    4    0    0 -0.60797035294E+02 -0.84711743573E+02  0.35752093942E+02  0.11022962951E+03  0.00000000000E+00 0.  1.
</event>
<event>
12    1  0.8331241E-002  0.3131113E+03  0.7818608E-02  0.1079217E+00
         21   -1    0    0  503  502  0.00000000000E+00  0.00000000000E+00  0.86167885616E+03  0.86167885616E+03  0.00000000000E+00 0.  1.
         21   -1    0    0  501  503 -0.00000000000E+00 -0.00000000000E+00 -0.32577465799E+03  0.32577465799E+03  0.00000000000E+00 0. -1.
          6    2    1    2  501    0 -0.23709733469E+03 -0.10325642019E+03 -0.21177231427E+03  0.37800289070E+03  0.17652659251E+03 0.  0.
         24    2    3    3    0    0 -0.81966558951E+02 -0.73658620280E+00 -0.34258928597E+02  0.12088625174E+03  0.81980194709E+02 0.  0.
         -6    2    1    2    0  502  0.23709733469E+03  0.10325642019E+03  0.74767651244E+03  0.80945062345E+03  0.17121071847E+03 0.  0.
        -24    2    5    5    0    0  0.16922365558E+03  0.13829783391E+03  0.53107569253E+03  0.57972743747E+03  0.79243763701E+02 0.  0.
          5    1    3    3  501    0 -0.15513077574E+03 -0.10251983399E+03 -0.17751338567E+03  0.25711663897E+03  0.47000000000E+01 0. -1.
        -11    1    4    4    0    0 -0.51853717869E+02  0.26685740497E+02 -0.50397954611E+02  0.77077173221E+02  0.00000000000E+00 0.  1.
         12    1    4    4    0    0 -0.30112841082E+02 -0.27422326699E+02  0.16139026014E+02  0.43809078515E+02  0.00000000000E+00 0. -1.
         -5    1    5    5    0  502  0.67873679108E+02 -0.35041413717E+02  0.21660081991E+03  0.22972318598E+03  0.47000000000E+01 0.  1.
         11    1    6    6    0    0  0.60664960282E+02  0.85787213538E+02  0.31781206318E+03  0.33473002691E+03  0.00000000000E+00 0. -1.
        -12    1    6    6    0    0  0.10855869530E+03  0.52510620372E+02  0.21326362935E+03  0.24499741056E+03  0.00000000000E+00 0.  1.
</event>
<event>
12    1  0.8331241E-002  0.2223153E+03  0.7818608E-02  0.1132346E+00
         21   -1    0    0  503  502  0.00000000000E+00  0.00000000000E+00  0.41033537659E+03  0.41033537659E+03  0.00000000000E+00 0. -1.
         21   -1    0    0  501  503 -0.00000000000E+00 -0.00000000000E+00 -0.38890593297E+03  0.38890593297E+03  0.00000000000E+00 0. -1.
          6    2    1    2  501    0  0.14162482315E+03 -0.59044902313E+01 -0.32163300942E+03  0.39044314589E+03  0.17001648121E+03 0.  0.
         24    2    3    3    0    0  0.42252768334E+01 -0.83949002837E+01 -0.82068629618E+02  0.11422218444E+03  0.78886755141E+02 0.  0.
         -6    2    1    2    0  502 -0.14162482315E+03  0.59044902313E+01  0.34306245305E+03  0.40879816367E+03  0.17126481947E+03 0.  0.
        -24    2    5    5    0    0 -0.10215379616E+03  0.23012376847E+02  0.34114782015E+03  0.36548075867E+03  0.78926435432E+02 0.  0.
          5    1    3    3  501    0  0.13739954632E+03  0.24904100524E+01 -0.23956437980E+03  0.27622096145E+03  0.47000000000E+01 0. -1.
        -11    1    4    4    0    0  0.83041352405E+01 -0.32195722422E+02 -0.52046717942E+01  0.33654298579E+02  0.00000000000E+00 0.  1.
         12    1    4    4    0    0 -0.40788584071E+01  0.23800822139E+02 -0.76863957824E+02  0.80567885865E+02  0.00000000000E+00 0. -1.
         -5    1    5    5    0  502 -0.39471026991E+02 -0.17107886616E+02  0.19146329009E+01  0.43317404993E+02  0.47000000000E+01 0.  1.
         11    1    6    6    0    0 -0.59769646075E+02 -0.26824898546E+02  0.16083227843E+03  0.17366348943E+03  0.00000000000E+00 0. -1.
        -12    1    6    6    0    0 -0.42384150088E+02  0.49837275393E+02  0.18031554172E+03  0.19181726925E+03  0.00000000000E+00 0.  1.
</event>
<event>
12    1  0.8331241E-002  0.1884785E+03  0.7818608E-02  0.1159958E+00
         21   -1    0    0  503  502  0.00000000000E+00  0.00000000000E+00  0.42893604731E+03  0.42893604731E+03  0.00000000000E+00 0. -1.
         21   -1    0    0  501  503 -0.00000000000E+00 -0.00000000000E+00 -0.95610502452E+02  0.95610502452E+02  0.00000000000E+00 0. -1.
          6    2    1    2  501    0  0.21150702477E+02 -0.73270417986E+02  0.70088220261E+02  0.20108831729E+03  0.17236080286E+03 0.  0.
         24    2    3    3    0    0 -0.53428134518E+02 -0.28341107487E+02  0.30258907898E+02  0.10522847172E+03  0.80620380930E+02 0.  0.
         -6    2    1    2    0  502 -0.21150702477E+02  0.73270417986E+02  0.26323732460E+03  0.32345823247E+03  0.17180056090E+03 0.  0.
        -24    2    5    5    0    0  0.18645526619E+02  0.10639868474E+03  0.18404543441E+03  0.22872351138E+03  0.82300589037E+02 0.  0.
          5    1    3    3  501    0  0.74578836995E+02 -0.44929310500E+02  0.39829312363E+02  0.95859845571E+02  0.47000000000E+01 0. -1.
        -11    1    4    4    0    0 -0.66126269461E+01  0.69472827158E+01 -0.23689799197E+02  0.25557741650E+02  0.00000000000E+00 0.  1.
         12    1    4    4    0    0 -0.46815507572E+02 -0.35288390202E+02  0.53948707095E+02  0.79670730068E+02  0.00000000000E+00 0. -1.
         -5    1    5    5    0  502 -0.39796229096E+02 -0.33128266753E+02  0.79191890194E+02  0.94734721094E+02  0.47000000000E+01 0.  1.
         11    1    6    6    0    0  0.19323531339E+02  0.10880137127E+03  0.19137104021E+03  0.22098419013E+03  0.00000000000E+00 0. -1.
        -12    1    6    6    0    0 -0.67800472032E+00 -0.24026865357E+01 -0.73256058077E+01  0.77393212519E+01  0.00000000000E+00 0.  1.
</event>
<event>
12    1  0.8331241E-002  0.1798413E+03  0.7818608E-02  0.1168431E+00
         21   -1    0    0  501  502  0.00000000000E+00  0.00000000000E+00  0.31489925860E+03  0.31489925860E+03  0.00000000000E+00 0. -1.
         21   -1    0    0  502  503 -0.00000000000E+00 -0.00000000000E+00 -0.10202817085E+03  0.10202817085E+03  0.00000000000E+00 0. -1.
         -6    2    1    2    0  503  0.14511002828E+02 -0.52567268287E+02  0.93507034018E+02  0.20269792993E+03  0.17137385591E+03 0.  0.
        -24    2    3    3    0    0  0.56950481041E+02 -0.12268500661E+02  0.10369910090E+03  0.14310708994E+03  0.79575512981E+02 0.  0.
          6    2    1    2  501    0 -0.14511002828E+02  0.52567268287E+02  0.11936405373E+03  0.21422949952E+03  0.16932989766E+03 0.  0.
         24    2    5    5    0    0  0.93829354291E+01  0.66475937675E+02  0.14343810703E+03  0.17726977263E+03  0.79642902844E+02 0.  0.
          5    1    5    5  501    0 -0.23893938257E+02 -0.13908669388E+02 -0.24074053295E+02  0.36959726887E+02  0.47000000000E+01 0. -1.
        -13    1    6    6    0    0  0.90517219656E+01  0.84324892093E+02  0.10566562651E+03  0.13549112784E+03  0.00000000000E+00 0.  1.
         14    1    6    6    0    0  0.33121346344E+00 -0.17848954418E+02  0.37772480518E+02  0.41778644792E+02  0.00000000000E+00 0. -1.
         -5    1    3    3    0  503 -0.42439478213E+02 -0.40298767626E+02 -0.10192066880E+02  0.59590839988E+02  0.47000000000E+01 0.  1.
         13    1    4    4    0    0  0.34794985621E+02 -0.59276054425E+01 -0.15835792877E+01  0.35331788152E+02  0.00000000000E+00 0. -1.
        -14    1    4    4    0    0  0.22155495420E+02 -0.63408952187E+01  0.10528268019E+03  0.10777530179E+03  0.00000000000E+00 0.  1.
</event>
<event>
12    1  0.8331241E-002  0.2229513E+03  0.7818608E-02  0.1132414E+00
         21   -1    0    0  501  502  0.00000000000E+00  0.00000000000E+00  0.40327853668E+02  0.40327853668E+02  0.00000000000E+00 0. -1.
         21   -1    0    0  502  503 -0.00000000000E+00 -0.00000000000E+00 -0.14685350178E+04  0.14685350178E+04  0.00000000000E+00 0. -1.
         -6    2    1    2    0  503 -0.14088453983E+03  0.22914125157E+02 -0.10246670029E+04  0.10478293080E+04  0.16622358808E+03 0.  0.
        -24    2    3    3    0    0 -0.14860514123E+03  0.59419023877E+02 -0.89840206670E+03  0.91608281118E+03  0.80419743194E+02 0.  0.
          6    2    1    2  501    0  0.14088453983E+03 -0.22914125157E+02 -0.40354016126E+03  0.46103356347E+03  0.17127105477E+03 0.  0.
         24    2    5    5    0    0  0.81688140590E+02  0.30439206784E+02 -0.33266498467E+03  0.35428070699E+03  0.85142995552E+02 0.  0.
          5    1    5    5  501    0  0.59196399235E+02 -0.53353331941E+02 -0.70875176588E+02  0.10675285649E+03  0.47000000000E+01 0. -1.
        -13    1    6    6    0    0  0.69853030466E+01  0.25576491251E+02 -0.20165721391E+03  0.20339268248E+03  0.00000000000E+00 0.  1.
         14    1    6    6    0    0  0.74702837543E+02  0.48627155336E+01 -0.13100777076E+03  0.15088802450E+03  0.00000000000E+00 0. -1.
         -5    1    3    3    0  503  0.77206014091E+01 -0.36504898720E+02 -0.12626493619E+03  0.13174649683E+03  0.47000000000E+01 0.  1.
         13    1    4    4    0    0  0.45464367776E+01  0.17283212462E+02 -0.14649028179E+03  0.14757636050E+03  0.00000000000E+00 0. -1.
        -14    1    4    4    0    0 -0.15315157801E+03  0.42135811415E+02 -0.75191178491E+03  0.76850645068E+03  0.00000000000E+00 0.  1.
</event>
<event>
12    1  0.8331241E-002  0.1880869E+03  0.7818608E-02  0.1160344E+00
         21   -1    0    0  501  502  0.00000000000E+00  0.00000000000E+00  0.34927561896E+03  0.34927561896E+03  0.00000000000E+00 0.  1.
         21   -1    0    0  502  503 -0.00000000000E+00 -0.00000000000E+00 -0.10836028072E+03  0.10836028072E+03  0.00000000000E+00 0.  1.
         -6    2    1    2    0  503  0.52646381577E+02 -0.50399302450E+02  0.60782022395E+02  0.19766423788E+03  0.17339251861E+03 0.  0.
        -24    2    3    3    0    0  0.19890442867E+02 -0.91744510913E+02  0.11863235390E+02  0.12557044130E+03  0.82550071918E+02 0.  0.
          6    2    1    2  501    0 -0.52646381577E+02  0.50399302450E+02  0.18013331585E+03  0.25997166180E+03  0.17270067249E+03 0.  0.
         24    2    5    5    0    0 -0.74960745913E+02  0.46618519799E+02  0.19774871373E+03  0.23090935949E+03  0.80138497006E+02 0.  0.
          5    1    5    5  501    0  0.22314364337E+02  0.37807826509E+01 -0.17615397878E+02  0.29062302311E+02  0.47000000000E+01 0. -1.
        -11    1    6    6    0    0 -0.31768693610E+02 -0.18246268511E+02  0.95951638210E+02  0.10270780439E+03  0.00000000000E+00 0.  1.
         12    1    6    6    0    0 -0.43192052304E+02  0.64864788310E+02  0.10179707552E+03  0.12820155510E+03  0.00000000000E+00 0. -1.
         -5    1    3    3    0  503  0.32755938710E+02  0.41345208463E+02  0.48918787005E+02  0.72093796583E+02  0.47000000000E+01 0.  1.
         13    1    4    4    0    0 -0.13161006263E+02 -0.87986023617E+02  0.20302609700E+02  0.91252114488E+02  0.00000000000E+00 0. -1.
        -14    1    4    4    0    0  0.33051449130E+02 -0.37584872956E+01 -0.84393743098E+01  0.34318326810E+02  0.00000000000E+00 0.  1.
</event>
<event>
12    1  0.8331241E-002  0.1901598E+03  0.7818608E-02  0.1159857E+00
         21   -1    0    0  501  502  0.00000000000E+00  0.00000000000E+00  0.10139684524E+04  0.10139684524E+04  0.00000000000E+00 0. -1.
         21   -1    0    0  502  503 -0.00000000000E+00 -0.00000000000E+00 -0.75958974775E+02  0.75958974775E+02  0.00000000000E+00 0. -1.
         -6    2    1    2    0  503 -0.11135980780E+02  0.62487050871E+02  0.69828893122E+02  0.20257543057E+03  0.17925425841E+03 0.  0.
        -24    2    3    3    0    0 -0.51313252385E+02  0.86581907477E+02  0.83675523493E+02  0.15349799745E+03  0.80190806312E+02 0.  0.
          6    2    1    2  501    0  0.11135980780E+02 -0.62487050871E+02  0.86818058449E+03  0.88735199660E+03  0.17212610779E+03 0.  0.
         24    2    5    5    0    0  0.17744919531E+02  0.34364130891E+02  0.42296406895E+03  0.43165070716E+03  0.76993205624E+02 0.  0.
          5    1    5    5  501    0 -0.66089387505E+01 -0.96851181762E+02  0.44521651555E+03  0.45570128944E+03  0.47000000000E+01 0. -1.
        -13    1    6    6    0    0 -0.28842794326E+02  0.25552598420E+02  0.20485137674E+03  0.20844406594E+03  0.00000000000E+00 0.  1.
         14    1    6    6    0    0  0.46587713857E+02  0.88115324712E+01  0.21811269220E+03  0.22320664122E+03  0.00000000000E+00 0. -1.
         -5    1    3    3    0  503  0.40177271605E+02 -0.24094856606E+02 -0.13846630371E+02  0.49077433114E+02  0.47000000000E+01 0.  1.
         11    1    4    4    0    0 -0.42536864299E+02  0.25692991021E+02  0.76966240232E+02  0.91615046512E+02  0.00000000000E+00 0. -1.
        -12    1    4    4    0    0 -0.87763880858E+01  0.60888916456E+02  0.67092832612E+01  0.61882950939E+02  0.00000000000E+00 0.  1.
</event>
<event>
12    1  0.8331241E-002  0.1735578E+03  0.7818608E-02  0.1174667E+00
         21   -1    0    0  501  502  0.00000000000E+00  0.00000000000E+00  0.13613583682E+03  0.13613583682E+03  0.00000000000E+00 0.  1.
         21   -1    0    0  502  503 -0.00000000000E+00 -0.00000000000E+00 -0.61461210864E+03  0.61461210864E+03  0.00000000000E+00 0.  1.
         -6    2    1    2    0  503 -0.19162439879E+02 -0.83303787922E+01 -0.54090829703E+03  0.56807049594E+03  0.17229540983E+03 0.  0.
        -24    2    3    3    0    0  0.23595749952E+02  0.38913482273E+01 -0.13017666023E+03  0.15491168764E+03  0.80496994303E+02 0.  0.
          6    2    1    2  501    0  0.19162439879E+02  0.83303787922E+01  0.62432025203E+02  0.18267744952E+03  0.17040158004E+03 0.  0.
         24    2    5    5    0    0 -0.13058197350E+01  0.69409409715E+02  0.48746447708E+02  0.11665485716E+03  0.80079761569E+02 0.  0.
          5    1    5    5  501    0  0.20468259614E+02 -0.61079030923E+02  0.13685577495E+02  0.66022592357E+02  0.47000000000E+01 0. -1.
        -11    1    6    6    0    0 -0.29768120423E+02  0.10610681588E+01  0.25042064209E+02  0.38914930798E+02  0.00000000000E+00 0.  1.
         12    1    6    6    0    0  0.28462300687E+02  0.68348341557E+02  0.23704383499E+02  0.77739926364E+02  0.00000000000E+00 0. -1.
         -5    1    3    3    0  503 -0.42758189831E+02 -0.12221727019E+02 -0.41073163679E+03  0.41315880829E+03  0.47000000000E+01 0.  1.
         11    1    4    4    0    0 -0.25029315827E+01 -0.11121562128E+02  0.77190336841E+01  0.13767254326E+02  0.00000000000E+00 0. -1.
        -12    1    4    4    0    0  0.26098681535E+02  0.15012910355E+02 -0.13789569392E+03  0.14114443332E+03  0.00000000000E+00 0.  1.
</event>
<event>
12    1  0.8331241E-002  0.2190923E+03  0.7818608E-02  0.1134748E+00
         21   -1    0    0  501  502  0.00000000000E+00  0.00000000000E+00  0.27451996711E+03  0.27451996711E+03  0.00000000000E+00 0. -1.
         21   -1    0    0  502  503 -0.00000000000E+00 -0.00000000000E+00 -0.51750242702E+03  0.51750242702E+03  0.00000000000E+00 0.  1.
         -6    2    1    2    0  503  0.57241915364E+02  0.12199644709E+03 -0.44419086974E+03  0.49528474673E+03  0.17274745037E+03 0.  0.
        -24    2    3    3    0    0  0.83162133077E+02  0.22428265243E+02 -0.22846810299E+03  0.25623646162E+03  0.77720542446E+02 0.  0.
          6    2    1    2  501    0 -0.57241915364E+02 -0.12199644709E+03  0.20120840983E+03  0.29673764739E+03  0.17148946677E+03 0.  0.
         24    2    5    5    0    0 -0.96382560493E+02 -0.10860558522E+03  0.19296056161E+03  0.25429448206E+03  0.79668903337E+02 0.  0.
          5    1    5    5  501    0  0.39140645129E+02 -0.13390861870E+02  0.82478482171E+01  0.42443165326E+02  0.47000000000E+01 0. -1.
        -11    1    6    6    0    0  0.87266061433E+01 -0.82134187225E+00  0.35002485426E+02  0.36083268190E+02  0.00000000000E+00 0.  1.
         12    1    6    6    0    0 -0.10510916664E+03 -0.10778424335E+03  0.15795807619E+03  0.21821121387E+03  0.00000000000E+00 0. -1.
         -5    1    3    3    0  503 -0.25920217713E+02  0.99568181850E+02 -0.21572276675E+03  0.23904828512E+03  0.47000000000E+01 0.  1.
         11    1    4    4    0    0  0.13013313955E+02 -0.27139971041E+02 -0.61481525247E+02  0.68453650852E+02  0.00000000000E+00 0. -1.
        -12    1    4    4    0    0  0.70148819123E+02  0.49568236284E+02 -0.16698657774E+03  0.18778281076E+03  0.00000000000E+00 0.  1.
</event>
<event>
12    1  0.8331241E-002  0.4540920E+03  0.7818608E-02  0.1026558E+00
         21   -1    0    0  501  502  0.00000000000E+00  0.00000000000E+00  0.56811280366E+03  0.56811280366E+03  0.00000000000E+00 0. -1.
         21   -1    0    0  502  503 -0.00000000000E+00 -0.00000000000E+00 -0.36356483236E+03  0.36356483236E+03  0.00000000000E+00 0.  1.
         -6    2    1    2    0  503 -0.22884578651E+03  0.35235293598E+03  0.12835502071E+03  0.47123776519E+03  0.17049057012E+03 0.  0.
        -24    2    3    3    0    0 -0.24212448020E+03  0.29595301632E+03  0.88541775348E+02  0.40077884701E+03  0.81065322136E+02 0.  0.
          6    2    1    2  501    0  0.22884578651E+03 -0.35235293598E+03  0.76192950590E+02  0.46043987083E+03  0.17226875350E+03 0.  0.
         24    2    5    5    0    0  0.21732535363E+03 -0.30448966873E+03  0.11270458046E+03  0.39896791103E+03  0.80801014132E+02 0.  0.
          5    1    5    5  501    0  0.11520432889E+02 -0.47863267246E+02 -0.36511629871E+02  0.61471959797E+02  0.47000000000E+01 0. -1.
        -11    1    6    6    0    0  0.21202159593E+03 -0.25018601511E+03  0.10124638805E+03  0.34321571991E+03  0.00000000000E+00 0.  1.
         12    1    6    6    0    0  0.53037576949E+01 -0.54303653616E+02  0.11458192416E+02  0.55752191124E+02  0.00000000000E+00 0. -1.
         -5    1    3    3    0  503  0.13278693687E+02  0.56399919659E+02  0.39813245364E+02  0.70458918173E+02  0.47000000000E+01 0.  1.
         13    1    4    4    0    0 -0.19181466923E+03  0.26636307205E+03  0.53138595902E+02  0.33251445662E+03  0.00000000000E+00 0. -1.
        -14    1    4    4    0    0 -0.50309810972E+02  0.29589944265E+02  0.35403179446E+02  0.68264390399E+02  0.00000000000E+00 0.  1.
</event>
<event>
12    1  0.8331241E-002  0.2110755E+03  0.7818608E-02  0.1142228E+00
         21   -1    0    0  503  502  0.00000000000E+00  0.00000000000E+00  0.13390713864E+03  0.13390713864E+03  0.00000000000E+00 0. -1.
         21   -1    0    0  501  503 -0.00000000000E+00 -0.00000000000E+00 -0.58635525685E+03  0.58635525685E+03  0.00000000000E+00 0. -1.
          6    2    1    2  501    0  0.75417181160E+02 -0.95361548568E+02 -0.47074492412E+03  0.51590082794E+03  0.17254363078E+03 0.  0.
         24    2    3    3    0    0  0.98186831205E+02 -0.30527448630E+02 -0.21545535178E+03  0.25148302743E+03  0.79057735450E+02 0.  0.
         -6    2    1    2    0  502 -0.75417181160E+02  0.95361548568E+02  0.18296805910E+02  0.20436156755E+03  0.16324001049E+03 0.  0.
        -24    2    5    5    0    0 -0.98214102045E+02  0.51560627948E+02  0.49719534263E+02  0.14564446522E+03  0.80223250788E+02 0.  0.
          5    1    3    3  501    0 -0.22769650045E+02 -0.64834099938E+02 -0.25528957234E+03  0.26441780050E+03  0.47000000000E+01 0. -1.
        -11    1    4    4    0    0  0.50247719326E+01  0.26662317618E+01  0.64118654517E+01  0.85714143146E+01  0.00000000000E+00 0.  1.
         12    1    4    4    0    0  0.93162059273E+02 -0.33193680391E+02 -0.22186721723E+03  0.24291161312E+03  0.00000000000E+00 0. -1.
         -5    1    5    5    0  502  0.22796920885E+02  0.43800920619E+02 -0.31422728353E+02  0.58717102330E+02  0.47000000000E+01 0.  1.
         13    1    6    6    0    0 -0.89072557367E+01  0.45651594195E+02  0.24932481533E+02  0.52773439273E+02  0.00000000000E+00 0. -1.
        -14    1    6    6    0    0 -0.89306846308E+02  0.59090337530E+01  0.24787052730E+02  0.92871025947E+02  0.00000000000E+00 0.  1.
</event>
<event>
12    1  0.8331241E-002  0.1910671E+03  0.7818608E-02  0.1157618E+00
         21   -1    0    0  501  502  0.00000000000E+00  0.00000000000E+00  0.82890345703E+03  0.82890345703E+03  0.00000000000E+00 0.  1.
         21   -1    0    0  502  503 -0.00000000000E+00 -0.00000000000E+00 -0.44176184230E+02  0.44176184230E+02  0.00000000000E+00 0.  1.
         -6    2    1    2    0  503 -0.27053646354E+02 -0.77431297571E+02  0.35988428161E+03  0.40745958675E+03  0.17256625702E+03 0.  0.
        -24    2    3    3    0    0  0.12537270625E+02 -0.10003326077E+03  0.32544209627E+03  0.35013033088E+03  0.80714646505E+02 0.  0.
          6    2    1    2  501    0  0.27053646354E+02  0.77431297571E+02  0.42484299119E+03  0.46562005451E+03  0.17199698362E+03 0.  0.
         24    2    5    5    0    0  0.42168323519E+02  0.78369105196E+01  0.35343613700E+03  0.36466035463E+03  0.78870061660E+02 0.  0.
          5    1    5    5  501    0 -0.15114677165E+02  0.69594387051E+02  0.71406854196E+02  0.10095969989E+03  0.47000000000E+01 0. -1.
        -13    1    6    6    0    0  0.39382810043E+02  0.82738351738E+01  0.66625430011E+02  0.77835788680E+02  0.00000000000E+00 0.  1.
         14    1    6    6    0    0  0.27855134766E+01 -0.43692465418E+00  0.28681070699E+03  0.28682456595E+03  0.00000000000E+00 0. -1.
         -5    1    3    3    0  503 -0.39590916979E+02  0.22601963203E+02  0.34442185339E+02  0.57329255872E+02  0.47000000000E+01 0.  1.
         11    1    4    4    0    0  0.26930743655E+02 -0.47045669969E+01  0.37010806897E+02  0.46013016980E+02  0.00000000000E+00 0. -1.
        -12    1    4    4    0    0 -0.14393473030E+02 -0.95328693777E+02  0.28843128937E+03  0.30411731390E+03  0.00000000000E+00 0.  1.
</event>
<event>
12    1  0.8331241E-002  0.2149148E+03  0.7818608E-02  0.1137828E+00
         21   -1    0    0  501  502  0.00000000000E+00  0.00000000000E+00  0.68212426171E+03  0.68212426171E+03  0.00000000000E+00 0.  1.
         21   -1    0    0  502  503 -0.00000000000E+00 -0.00000000000E+00 -0.15451525098E+03  0.15451525098E+03  0.00000000000E+00 0. -1.
         -6    2    1    2    0  503 -0.99919532306E+02 -0.75190077067E+02 -0.49882589046E+02  0.22062782670E+03  0.17478817064E+03 0.  0.
        -24    2    3    3    0    0 -0.13009202712E+03 -0.31875841302E+02 -0.60204536873E+02  0.16663583590E+03  0.78758559960E+02 0.  0.
          6    2    1    2  501    0  0.99919532306E+02  0.75190077067E+02  0.57749159977E+03  0.61601168600E+03  0.17417344475E+03 0.  0.
         24    2    5    5    0    0  0.67089528363E+02  0.11927739676E+03  0.39514584523E+03  0.42550298510E+03  0.78641268666E+02 0.  0.
          5    1    5    5  501    0  0.32830003943E+02 -0.44087319693E+02  0.18234575454E+03  0.19050870090E+03  0.47000000000E+01 0. -1.
        -13    1    6    6    0    0  0.52060256928E+02  0.30129582871E+02  0.22413509463E+03  0.23206594485E+03  0.00000000000E+00 0.  1.
         14    1    6    6    0    0  0.15029271435E+02  0.89147813889E+02  0.17101075059E+03  0.19343704025E+03  0.00000000000E+00 0. -1.
         -5    1    3    3    0  503  0.30172494814E+02 -0.43314235765E+02  0.10321947828E+02  0.53991990796E+02  0.47000000000E+01 0.  1.
         11    1    4    4    0    0 -0.38924798481E+02 -0.25676560721E+02 -0.59061636277E+02  0.75250930805E+02  0.00000000000E+00 0. -1.
        -12    1    4    4    0    0 -0.91167228638E+02 -0.61992805812E+01 -0.11429005962E+01  0.91384905094E+02  0.00000000000E+00 0.  1.
</event>
<event>
12    1  0.8331241E-002  0.2135373E+03  0.7818608E-02  0.1139214E+00
         21   -1    0    0  501  502  0.00000000000E+00  0.00000000000E+00  0.43397259481E+02  0.43397259481E+02  0.00000000000E+00 0. -1.
         21   -1    0    0  502  503 -0.00000000000E+00 -0.00000000000E+00 -0.10601467037E+04  0.10601467037E+04  0.00000000000E+00 0.  1.
         -6    2    1    2    0  503 -0.96861854585E+02 -0.82895908005E+02 -0.43512072234E+03  0.48469395709E+03  0.17130160125E+03 0.  0.
        -24    2    3    3    0    0 -0.28434669088E+02 -0.51911779323E+02 -0.81503531497E+02  0.12315626389E+03  0.70860965630E+02 0.  0.
          6    2    1    2  501    0  0.96861854585E+02  0.82895908005E+02 -0.58162872184E+03  0.61885000605E+03  0.16861022948E+03 0.  0.
         24    2    5    5    0    0  0.80529696647E+02  0.59341325804E+01 -0.46186738537E+03  0.47548082536E+03  0.78995491292E+02 0.  0.
          5    1    5    5  501    0  0.16332157938E+02  0.76961775424E+02 -0.11976133647E+03  0.14336918069E+03  0.47000000000E+01 0. -1.
        -11    1    6    6    0    0 -0.12888025384E+02 -0.11062430161E+02 -0.96131816323E+02  0.97620718440E+02  0.00000000000E+00 0.  1.
         12    1    6    6    0    0  0.93417722030E+02  0.16996562742E+02 -0.36573556905E+03  0.37786010692E+03  0.00000000000E+00 0. -1.
         -5    1    3    3    0  503 -0.68427185497E+02 -0.30984128682E+02 -0.35361719085E+03  0.36153769320E+03  0.47000000000E+01 0.  1.
         11    1    4    4    0    0 -0.42155171056E+02 -0.62192900035E+02 -0.64746402456E+02  0.99182215606E+02  0.00000000000E+00 0. -1.
        -12    1    4    4    0    0  0.13720501968E+02  0.10281120713E+02 -0.16757129041E+02  0.23974048283E+02  0.00000000000E+00 0.  1.
</event>
<event>
12    1  0.8331241E-002  0.2259765E+03  0.7818608E-02  0.1129566E+00
         21   -1    0    0  501  502  0.00000000000E+00  0.00000000000E+00  0.22858235169E+03  0.22858235169E+03  0.00000000000E+00 0. -1.
         21   -1    0    0  502  503 -0.00000000000E+00 -0.00000000000E+00 -0.24166065271E+03  0.24166065271E+03  0.00000000000E+00 0.  1.
         -6    2    1    2    0  503 -0.14346583374E+03  0.24851893852E+02 -0.71771319872E+02  0.23710016261E+03  0.17281580563E+03 0.  0.
        -24    2    3    3    0    0 -0.10322671507E+03 -0.46506558111E+02 -0.74480557888E+02  0.15499872956E+03  0.75223919140E+02 0.  0.
          6    2    1    2  501    0  0.14346583374E+03 -0.24851893852E+02  0.58693018845E+02  0.23314284179E+03  0.17236778162E+03 0.  0.
         24    2    5    5    0    0  0.10659810063E+03 -0.39787176781E+02  0.10302331227E+03  0.17339706926E+03  0.80663289444E+02 0.  0.
          5    1    5    5  501    0  0.36867733113E+02  0.14935282929E+02 -0.44330293421E+02  0.59745772535E+02  0.47000000000E+01 0. -1.
        -13    1    6    6    0    0  0.81366810321E+02 -0.21651081862E+01  0.28604839203E+02  0.86275618463E+02  0.00000000000E+00 0.  1.
         14    1    6    6    0    0  0.25231290305E+02 -0.37622068595E+02  0.74418473063E+02  0.87121450796E+02  0.00000000000E+00 0. -1.
         -5    1    3    3    0  503 -0.40239118666E+02  0.71358451963E+02  0.27092380161E+01  0.82101433046E+02  0.47000000000E+01 0.  1.
         13    1    4    4    0    0 -0.37335977689E+02 -0.21319829463E+02  0.10794787385E+02  0.44328746802E+02  0.00000000000E+00 0. -1.
        -14    1    4    4    0    0 -0.65890737384E+02 -0.25186728648E+02 -0.85275345273E+02  0.11066998276E+03  0.00000000000E+00 0.  1.
</event>
<event>
12    1  0.8331241E-002  0.2197166E+03  0.7818608E-02  0.1134494E+00
         21   -1    0    0  503  502  0.00000000000E+00  0.00000000000E+00  0.13461963933E+04  0.13461963933E+04  0.00000000000E+00 0.  1.
         21   -1    0    0  501  503 -0.00000000000E+00 -0.00000000000E+00 -0.12740707636E+03  0.12740707636E+03  0.00000000000E+00 0.  1.
          6    2    1    2  501    0 -0.11093776083E+03 -0.78539438164E+02 -0.15518762842E+02  0.22026400413E+03  0.17262609707E+03 0.  0.
         24    2    3    3    0    0 -0.81186180307E+02 -0.95839504198E+02 -0.61500486674E+02  0.16263712017E+03  0.83018772326E+02 0.  0.
         -6    2    1    2    0  502  0.11093776083E+03  0.78539438164E+02  0.12343080798E+04  0.12533394656E+04  0.16990512026E+03 0.  0.
        -24    2    5    5    0    0  0.84480390092E+01  0.69606893438E+02  0.84640006145E+03  0.85199341270E+03  0.67699499805E+02 0.  0.
          5    1    3    3  501    0 -0.29751580524E+02  0.17300066034E+02  0.45981723832E+02  0.57626883961E+02  0.47000000000E+01 0. -1.
        -11    1    4    4    0    0 -0.64160066027E+02 -0.12365337261E+02 -0.28224624547E+02  0.71176155199E+02  0.00000000000E+00 0.  1.
         12    1    4    4    0    0 -0.17026114280E+02 -0.83474166936E+02 -0.33275862128E+02  0.91460964972E+02  0.00000000000E+00 0. -1.
         -5    1    5    5    0  502  0.10248972182E+03  0.89325447261E+01  0.38790801838E+03  0.40134605288E+03  0.47000000000E+01 0.  1.
         13    1    6    6    0    0 -0.12212309051E+02  0.66126663687E+02  0.44552246990E+03  0.45056869324E+03  0.00000000000E+00 0. -1.
        -14    1    6    6    0    0  0.20660348060E+02  0.34802297502E+01  0.40087759155E+03  0.40142471945E+03  0.00000000000E+00 0.  1.
</event>
<event>
12    1  0.8331241E-002  0.2366797E+03  0.7818608E-02  0.1122135E+00
         21   -1    0    0  501  502  0.00000000000E+00  0.00000000000E+00  0.38487477654E+02  0.38487477654E+02  0.00000000000E+00 0.  1.
         21   -1    0    0  502  503 -0.00000000000E+00 -0.00000000000E+00 -0.18914533054E+04  0.18914533054E+04  0.00000000000E+00 0. -1.
         -6    2    1    2    0  503 -0.16185360337E+03 -0.23546154211E+01 -0.13928542377E+04  0.14128199513E+04  0.17267065249E+03 0.  0.
        -24    2    3    3    0    0 -0.11388452782E+03 -0.22411132948E+02 -0.53273012592E+03  0.55111299778E+03  0.80325616768E+02 0.  0.
          6    2    1    2  501    0  0.16185360337E+03  0.23546154211E+01 -0.46011159002E+03  0.51712083170E+03  0.17178226387E+03 0.  0.
         24    2    5    5    0    0  0.16929068624E+03  0.28133803036E+02 -0.29679252471E+03  0.35154582210E+03  0.77767698855E+02 0.  0.
          5    1    5    5  501    0 -0.74370828756E+01 -0.25779187614E+02 -0.16331906530E+03  0.16557500961E+03  0.47000000000E+01 0. -1.
        -11    1    6    6    0    0  0.54205102598E+02  0.12194491005E+02 -0.36435195994E+02  0.66441118787E+02  0.00000000000E+00 0.  1.
         12    1    6    6    0    0  0.11508558364E+03  0.15939312031E+02 -0.26035732872E+03  0.28510470331E+03  0.00000000000E+00 0. -1.
         -5    1    3    3    0  503 -0.47969075551E+02  0.20056517527E+02 -0.86012411180E+03  0.86170695356E+03  0.47000000000E+01 0.  1.
         13    1    4    4    0    0 -0.35555403265E+02 -0.26449093826E+02 -0.34239680344E+03  0.34525253405E+03  0.00000000000E+00 0. -1.
        -14    1    4    4    0    0 -0.78329124550E+02  0.40379608785E+01 -0.19033332248E+03  0.20586046373E+03  0.00000000000E+00 0.  1.
</event>
<event>
12    1  0.8331241E-002  0.1809142E+03  0.7818608E-02  0.1166979E+00
         21   -1    0    0  503  502  0.00000000000E+00  0.00000000000E+00  0.30869694387E+03  0.30869694387E+03  0.00000000000E+00 0. -1.
         21   -1    0    0  501  503 -0.00000000000E+00 -0.00000000000E+00 -0.11074243222E+03  0.11074243222E+03  0.00000000000E+00 0. -1.
          6    2    1    2  501    0  0.54071746346E+02  0.16164910923E+02  0.14296609959E+03  0.23058456777E+03  0.17188623903E+03 0.  0.
         24    2    3    3    0    0 -0.15505966502E+02  0.56254293522E+02  0.95435305980E+02  0.13715286511E+03  0.79360130058E+02 0.  0.
         -6    2    1    2    0  502 -0.54071746346E+02 -0.16164910923E+02  0.54988412063E+02  0.18885480832E+03  0.17163145128E+03 0.  0.
        -24    2    5    5    0    0  0.17403273056E+02 -0.43390362571E+02 -0.11583745399E+01  0.93857675408E+02  0.81377662317E+02 0.  0.
          5    1    3    3  501    0  0.69577712848E+02 -0.40089382599E+02  0.47530793606E+02  0.93431702666E+02  0.47000000000E+01 0. -1.
        -13    1    4    4    0    0 -0.27206002116E+02 -0.31373462069E+01  0.62507177388E+02  0.68243363908E+02  0.00000000000E+00 0.  1.
         14    1    4    4    0    0  0.11700035614E+02  0.59391639729E+02  0.32928128592E+02  0.68909501200E+02  0.00000000000E+00 0. -1.
         -5    1    5    5    0  502 -0.71475019402E+02  0.27225451648E+02  0.56146786603E+02  0.94997132914E+02  0.47000000000E+01 0.  1.
         13    1    6    6    0    0 -0.22931330881E+02 -0.25133708238E+02 -0.26246031542E+02  0.42969796340E+02  0.00000000000E+00 0. -1.
        -14    1    6    6    0    0  0.40334603937E+02 -0.18256654333E+02  0.25087657002E+02  0.50887879068E+02  0.00000000000E+00 0.  1.
</event>
<event>
12    1  0.8331241E-002  0.1917332E+03  0.7818608E-02  0.1157044E+00
         21   -1    0    0  501  502  0.00000000000E+00  0.00000000000E+00  0.26307564102E+03  0.26307564102E+03  0.00000000000E+00 0.  1.
         21   -1    0    0  502  503 -0.00000000000E+00 -0.00000000000E+00 -0.14603796726E+03  0.14603796726E+03  0.00000000000E+00 0.  1.
         -6    2    1    2    0  503  0.53608372879E+02  0.65645335058E+02  0.14638492027E+02  0.19229118448E+03  0.17198385541E+03 0.  0.
        -24    2    3    3    0    0  0.13907626585E+02 -0.79072953522E+01  0.53940602720E+02  0.99809377611E+02  0.82440134887E+02 0.  0.
          6    2    1    2  501    0 -0.53608372879E+02 -0.65645335058E+02  0.10239918174E+03  0.21682242380E+03  0.17129857963E+03 0.  0.
         24    2    5    5    0    0 -0.22753537328E+01  0.22421968443E+02  0.71213008236E+02  0.11011911449E+03  0.80913564559E+02 0.  0.
          5    1    5    5  501    0 -0.51333019147E+02 -0.88067303501E+02  0.31186173503E+02  0.10670330931E+03  0.47000000000E+01 0. -1.
        -11    1    6    6    0    0 -0.26507797249E+02  0.18294736139E+02 -0.26075434559E+01  0.32313464194E+02  0.00000000000E+00 0.  1.
         12    1    6    6    0    0  0.24232443516E+02  0.41272323043E+01  0.73820551692E+02  0.77805650292E+02  0.00000000000E+00 0. -1.
         -5    1    3    3    0  503  0.39700746294E+02  0.73552630410E+02 -0.39302110692E+02  0.92481806867E+02  0.47000000000E+01 0.  1.
         11    1    4    4    0    0 -0.11893559991E+02  0.35284073708E+01 -0.18381279632E+02  0.22176065222E+02  0.00000000000E+00 0. -1.
        -12    1    4    4    0    0  0.25801186577E+02 -0.11435702723E+02  0.72321882352E+02  0.77633312389E+02  0.00000000000E+00 0.  1.
</event>
<event>
12    1  0.8331241E-002  0.1797404E+03  0.7818608E-02  0.1168806E+00
         21   -1    0    0  501  502  0.00000000000E+00  0.00000000000E+00  0.43334087782E+03  0.43334087782E+03  0.00000000000E+00 0. -1.
         21   -1    0    0  502  503 -0.00000000000E+00 -0.00000000000E+00 -0.15743432823E+03  0.15743432823E+03  0.00000000000E+00 0. -1.
         -6    2    1    2    0  503 -0.23250424229E+01  0.53458103369E+02 -0.78555962342E+02  0.19334562007E+03  0.16836957843E+03 0.  0.
        -24    2    3    3    0    0  0.27697640342E+02  0.34417334919E+02 -0.11338861729E+03  0.14335245859E+03  0.75770948446E+02 0.  0.
          6    2    1    2  501    0  0.23250424229E+01 -0.53458103369E+02  0.35446251194E+03  0.39742958598E+03  0.17159087623E+03 0.  0.
         24    2    5    5    0    0  0.29793812682E+01 -0.94843978858E+02  0.31890127782E+03  0.34265814980E+03  0.81928783641E+02 0.  0.
          5    1    5    5  501    0 -0.65433884526E+00  0.41385875489E+02  0.35561234112E+02  0.54771436177E+02  0.47000000000E+01 0. -1.
        -11    1    6    6    0    0 -0.21357070667E+02 -0.42046752905E+02  0.55097497093E+02  0.72524396470E+02  0.00000000000E+00 0.  1.
         12    1    6    6    0    0  0.24336451935E+02 -0.52797225953E+02  0.26380378073E+03  0.27013375333E+03  0.00000000000E+00 0. -1.
         -5    1    3    3    0  503 -0.30022682765E+02  0.19040768450E+02  0.34832654952E+02  0.49993161478E+02  0.47000000000E+01 0.  1.
         13    1    4    4    0    0  0.14296468607E+02 -0.10922566874E+02 -0.87737689895E+02  0.89563350261E+02  0.00000000000E+00 0. -1.
        -14    1    4    4    0    0  0.13401171735E+02  0.45339901793E+02 -0.25650927399E+02  0.53789108329E+02  0.00000000000E+00 0.  1.
</event>
<event>
12    1  0.8331241E-002  0.3007397E+03  0.7818608E-02  0.1085556E+00
         21   -1    0    0  503  502  0.00000000000E+00  0.00000000000E+00  0.49790711310E+02  0.49790711310E+02  0.00000000000E+00 0. -1.
         21   -1    0    0  501  503 -0.00000000000E+00 -0.00000000000E+00 -0.18032985668E+04  0.18032985668E+04  0.00000000000E+00 0.  1.
          6    2    1    2  501    0  0.11129873834E+03 -0.21481400182E+03 -0.98112602197E+03  0.10261835281E+04  0.17863901543E+03 0.  0.
         24    2    3    3    0    0  0.62581351810E+02 -0.25608579570E+02 -0.37144953753E+03  0.38594952304E+03  0.80062790755E+02 0.  0.
         -6    2    1    2    0  502 -0.11129873834E+03  0.21481400182E+03 -0.77238183355E+03  0.82690575003E+03  0.16931319530E+03 0.  0.
        -24    2    5    5    0    0 -0.13339644114E+03  0.12221687531E+03 -0.56171142759E+03  0.59567719156E+03  0.81117282594E+02 0.  0.
          5    1    3    3  501    0  0.48717386532E+02 -0.18920542225E+03 -0.60967648444E+03  0.64023400506E+03  0.47000000000E+01 0. -1.
        -13    1    4    4    0    0  0.34492649419E+02 -0.16188774256E+02 -0.34220863470E+03  0.34432334939E+03  0.00000000000E+00 0.  1.
         14    1    4    4    0    0  0.28088702391E+02 -0.94198053142E+01 -0.29240902831E+02  0.41626173648E+02  0.00000000000E+00 0. -1.
         -5    1    5    5    0  502  0.22097702800E+02  0.92597126514E+02 -0.21067040596E+03  0.23122855848E+03  0.47000000000E+01 0.  1.
         11    1    6    6    0    0 -0.95016871913E+02  0.12532485917E+03 -0.40926586828E+03  0.43844392710E+03  0.00000000000E+00 0. -1.
        -12    1    6    6    0    0 -0.38379569229E+02 -0.31079838556E+01 -0.15244555931E+03  0.15723326446E+03  0.00000000000E+00 0.  1.
</event>
<event>
12    1  0.8331241E-002  0.3766041E+03  0.7818608E-02  0.1052202E+00
         21   -1    0    0  503  502  0.00000000000E+00  0.00000000000E+00  0.85760156010E+03  0.85760156010E+03  0.00000000000E+00 0.  1.
         21   -1    0    0  501  503 -0.00000000000E+00 -0.00000000000E+00 -0.16559423932E+03  0.16559423932E+03  0.00000000000E+00 0.  1.
          6    2    1    2  501    0 -0.15833465268E+03 -0.29522857458E+03  0.32644275782E+03  0.49839293411E+03  0.17204903122E+03 0.  0.
         24    2    3    3    0    0 -0.14181950598E+03 -0.31079014624E+03  0.29408768435E+03  0.45859527887E+03  0.84372841866E+02 0.  0.
         -6    2    1    2    0  502  0.15833465268E+03  0.29522857458E+03  0.36556456295E+03  0.52480286531E+03  0.17190353184E+03 0.  0.
        -24    2    5    5    0    0  0.87056954223E+02  0.20922612170E+03  0.15521668123E+03  0.28659024275E+03  0.81775704386E+02 0.  0.
          5    1    3    3  501    0 -0.16515146709E+02  0.15561571651E+02  0.32355073472E+02  0.39797655238E+02  0.47000000000E+01 0. -1.
        -13    1    4    4    0    0 -0.96260989555E+02 -0.20554314803E+03  0.14057699498E+03  0.26697575795E+03  0.00000000000E+00 0.  1.
         14    1    4    4    0    0 -0.45558516421E+02 -0.10524699821E+03  0.15351068937E+03  0.19161952093E+03  0.00000000000E+00 0. -1.
         -5    1    5    5    0  502  0.71277698462E+02  0.86002452880E+02  0.21034788173E+03  0.23821262256E+03  0.47000000000E+01 0.  1.
         11    1    6    6    0    0  0.38473214928E+01  0.11464006118E+03  0.67642181810E+02  0.13316384746E+03  0.00000000000E+00 0. -1.
        -12    1    6    6    0    0  0.83209632730E+02  0.94586060524E+02  0.87574499416E+02  0.15342639529E+03  0.00000000000E+00 0.  1.
</event>
<event>
12    1  0.8331241E-002  0.2459626E+03  0.7818608E-02  0.1115980E+00
         21   -1    0    0  501  502  0.00000000000E+00  0.00000000000E+00  0.19130600741E+03  0.19130600741E+03  0.00000000000E+00 0.  1.
         21   -1    0    0  502  503 -0.00000000000E+00 -0.00000000000E+00 -0.41211483546E+03  0.41211483546E+03  0.00000000000E+00 0. -1.
         -6    2    1    2    0  503 -0.17059997867E+03 -0.42544460052E+02 -0.25661470462E+03  0.35545563853E+03  0.17199773410E+03 0.  0.
        -24    2    3    3    0    0 -0.12994831376E+03 -0.21814540752E+02 -0.89558257513E+02  0.18221524505E+03  0.88426667945E+02 0.  0.
          6    2    1    2  501    0  0.17059997867E+03  0.42544460052E+02  0.35805876563E+02  0.24796520433E+03  0.17114408538E+03 0.  0.
         24    2    5    5    0    0  0.19437150742E+03  0.29725477482E+02  0.48449508957E+02  0.21777640950E+03  0.80095709679E+02 0.  0.
          5    1    5    5  501    0 -0.23771528751E+02  0.12818982571E+02 -0.12643632395E+02  0.30188794832E+02  0.47000000000E+01 0. -1.
        -11    1    6    6    0    0  0.78805508134E+02  0.44463025128E+02  0.45400164823E+02  0.10123459726E+03  0.00000000000E+00 0.  1.
         12    1    6    6    0    0  0.11556599929E+03 -0.14737547647E+02  0.30493441343E+01  0.11654181224E+03  0.00000000000E+00 0. -1.
         -5    1    3    3    0  503 -0.40651664907E+02 -0.20729919300E+02 -0.16705644710E+03  0.17324039348E+03  0.47000000000E+01 0.  1.
         13    1    4    4    0    0 -0.88579136468E+02 -0.94298624961E+01 -0.10376366544E+03  0.13675556292E+03  0.00000000000E+00 0. -1.
        -14    1    4    4    0    0 -0.41369177294E+02 -0.12384678256E+02  0.14205407926E+02  0.45459682135E+02  0.00000000000E+00 0.  1.
</event>
<event>
12    1  0.8331241E-002  0.1967207E+03  0.7818608E-02  0.1153907E+00
         21   -1    0    0  503  502  0.00000000000E+00  0.00000000000E+00  0.18226150917E+03  0.18226150917E+03  0.00000000000E+00 0.  1.
         21   -1    0    0  501  503 -0.00000000000E+00 -0.00000000000E+00 -0.31670550510E+03  0.31670550510E+03  0.00000000000E+00 0.  1.
          6    2    1    2  501    0 -0.13469559947E+02  0.80575126606E+02 -0.21425192181E+03  0.28667393937E+03  0.17205894758E+03 0.  0.
         24    2    3    3    0    0 -0.16180808950E+02 -0.25031172626E+02 -0.11993428860E+03  0.14497726600E+03  0.75801028320E+02 0.  0.
         -6    2    1    2    0  502  0.13469559947E+02 -0.80575126606E+02  0.79807925875E+02  0.21229307491E+03  0.17895604083E+03 0.  0.
        -24    2    5    5    0    0  0.66857703363E+02 -0.11694860953E+02  0.26231077365E+02  0.10988529420E+03  0.82340671536E+02 0.  0.
          5    1    3    3  501    0  0.27112490025E+01  0.10560629923E+03 -0.94317633206E+02  0.14169667336E+03  0.47000000000E+01 0. -1.
        -11    1    4    4    0    0 -0.16122348610E+02  0.24462441170E+02 -0.63381370551E+02  0.69825062016E+02  0.00000000000E+00 0.  1.
         12    1    4    4    0    0 -0.58460339815E-01 -0.49493613796E+02 -0.56552918050E+02  0.75152203987E+02  0.00000000000E+00 0. -1.
         -5    1    5    5    0  502 -0.53388143416E+02 -0.68880265654E+02  0.53576848510E+02  0.10240778071E+03  0.47000000000E+01 0.  1.
         13    1    6    6    0    0 -0.14115772394E+02  0.15412541068E+02  0.90924152199E+01  0.22791960578E+02  0.00000000000E+00 0. -1.
        -14    1    6    6    0    0  0.80973475757E+02 -0.27107402020E+02  0.17138662145E+02  0.87093333617E+02  0.00000000000E+00 0.  1.
</event>
<event>
12    1  0.8331241E-002  0.1913782E+03  0.7818608E-02  0.1158110E+00
         21   -1    0    0  501  502  0.00000000000E+00  0.00000000000E+00  0.25197121722E+03  0.25197121722E+03  0.00000000000E+00 0.  1.
         21   -1    0    0  502  503 -0.00000000000E+00 -0.00000000000E+00 -0.15313854608E+03  0.15313854608E+03  0.00000000000E+00 0.  1.
         -6    2    1    2    0  503  0.41773755742E+02 -0.56799644644E+02 -0.47160128315E+01  0.18751388993E+03  0.17368929684E+03 0.  0.
        -24    2    3    3    0    0 -0.24063429591E+02  0.93721789050E+00 -0.46299137345E+02  0.90460675080E+02  0.73889083065E+02 0.  0.
          6    2    1    2  501    0 -0.41773755742E+02  0.56799644644E+02  0.10354868397E+03  0.21759587337E+03  0.17791680037E+03 0.  0.
         24    2    5    5    0    0 -0.42959010426E+02  0.10511034289E+03  0.95310748525E+02  0.16834872142E+03  0.79771501556E+02 0.  0.
          5    1    5    5  501    0  0.11852546839E+01 -0.48310698251E+02  0.82379354442E+01  0.49247151943E+02  0.47000000000E+01 0. -1.
        -11    1    6    6    0    0 -0.17780994348E+02 -0.71035687514E+01  0.31405247974E+02  0.36781979953E+02  0.00000000000E+00 0.  1.
         12    1    6    6    0    0 -0.25178016078E+02  0.11221391165E+03  0.63905500552E+02  0.13156674147E+03  0.00000000000E+00 0. -1.
         -5    1    3    3    0  503  0.65837185333E+02 -0.57736862534E+02  0.41583124513E+02  0.97053214847E+02  0.47000000000E+01 0.  1.
         11    1    4    4    0    0  0.99190149323E+01  0.19075484681E+02  0.88003008328E+01  0.23231579107E+02  0.00000000000E+00 0. -1.
        -12    1    4    4    0    0 -0.33982444523E+02 -0.18138266791E+02 -0.55099438177E+02  0.67229095973E+02  0.00000000000E+00 0.  1.
</event>
<event>
12    1  0.8331241E-002  0.2653514E+03  0.7818608E-02  0.1104429E+00
         21   -1    0    0  503  502  0.00000000000E+00  0.00000000000E+00  0.53807443669E+03  0.53807443669E+03  0.00000000000E+00 0.  1.
         21   -1    0    0  501  503 -0.00000000000E+00 -0.00000000000E+00 -0.81390790818E+03  0.81390790818E+03  0.00000000000E+00 0. -1.
          6    2    1    2  501    0  0.15998270197E+03  0.12093077530E+03 -0.75800914041E+03  0.80311221515E+03  0.17376034021E+03 0.  0.
         24    2    3    3    0    0  0.14263045445E+03  0.54142804453E+02 -0.66769793915E+03  0.68935837295E+03  0.78227479753E+02 0.  0.
         -6    2    1    2    0  502 -0.15998270197E+03 -0.12093077530E+03  0.48217566892E+03  0.54887012972E+03  0.16895658097E+03 0.  0.
        -24    2    5    5    0    0 -0.17567717914E+03 -0.71156329428E+02  0.37311681747E+03  0.42787535646E+03  0.89081236530E+02 0.  0.
          5    1    3    3  501    0  0.17352247526E+02  0.66787970842E+02 -0.90311201256E+02  0.11375384220E+03  0.47000000000E+01 0. -1.
        -13    1    4    4    0    0  0.22677447809E+01  0.11700585611E+02 -0.10140158607E+02  0.15648296604E+02  0.00000000000E+00 0.  1.
         14    1    4    4    0    0  0.14036270966E+03  0.42442218842E+02 -0.65755778055E+03  0.67371007634E+03  0.00000000000E+00 0. -1.
         -5    1    5    5    0  502  0.15694477168E+02 -0.49774445868E+02  0.10905885145E+03  0.12099477325E+03  0.47000000000E+01 0.  1.
         13    1    6    6    0    0 -0.41899210381E+02  0.20652631078E+02  0.95773690784E+02  0.10655831665E+03  0.00000000000E+00 0. -1.
        -14    1    6    6    0    0 -0.13377796876E+03 -0.91808960505E+02  0.27734312669E+03  0.32131703981E+03  0.00000000000E+00 0.  1.
</event>
<event>
12    1  0.8331241E-002  0.1847422E+03  0.7818608E-02  0.1163301E+00
         21   -1    0    0  503  502  0.00000000000E+00  0.00000000000E+00  0.35654304814E+03  0.35654304814E+03  0.00000000000E+00 0.  1.
         21   -1    0    0  501  503 -0.00000000000E+00 -0.00000000000E+00 -0.11819949524E+03  0.11819949524E+03  0.00000000000E+00 0. -1.
          6    2    1    2  501    0 -0.25729068679E+02 -0.62371057719E+02  0.15621922921E+02  0.18540149429E+03  0.17198120767E+03 0.  0.
         24    2    3    3    0    0  0.22432941886E+02 -0.82946226940E+02  0.44769611618E+02  0.12527999558E+03  0.79419429134E+02 0.  0.
         -6    2    1    2    0  502  0.25729068679E+02  0.62371057719E+02  0.22272162998E+03  0.28934104910E+03  0.17193366283E+03 0.  0.
        -24    2    5    5    0    0 -0.30086329914E+02  0.28928269591E+02  0.20286520999E+03  0.22114906854E+03  0.77527963080E+02 0.  0.
          5    1    3    3  501    0 -0.48162010565E+02  0.20575169221E+02 -0.29147688698E+02  0.60121498705E+02  0.47000000000E+01 0. -1.
        -13    1    4    4    0    0 -0.11704604345E+01 -0.40357835936E+02  0.61693687504E+02  0.73730834641E+02  0.00000000000E+00 0.  1.
         14    1    4    4    0    0  0.23603402320E+02 -0.42588391004E+02 -0.16924075886E+02  0.51549160944E+02  0.00000000000E+00 0. -1.
         -5    1    5    5    0  502  0.55815398594E+02  0.33442788128E+02  0.19856419987E+02  0.68191980560E+02  0.47000000000E+01 0.  1.
         13    1    6    6    0    0  0.24389525239E+02  0.13177407859E+02  0.99045009519E+02  0.10285138273E+03  0.00000000000E+00 0. -1.
        -14    1    6    6    0    0 -0.54475855153E+02  0.15750861733E+02  0.10382020047E+03  0.11829768580E+03  0.00000000000E+00 0.  1.
</event>
<event>
12    1  0.8331241E-002  0.2168314E+03  0.7818608E-02  0.1136403E+00
         21   -1    0    0  503  502  0.00000000000E+00  0.00000000000E+00  0.30060567449E+03  0.30060567449E+03  0.00000000000E+00 0.  1.
         21   -1    0    0  501  503 -0.00000000000E+00 -0.00000000000E+00 -0.20991397095E+03  0.20991397095E+03  0.00000000000E+00 0.  1.
          6    2    1    2  501    0  0.90666963552E+02  0.94998138280E+02 -0.84092336346E+02  0.23256696414E+03  0.17254195786E+03 0.  0.
         24    2    3    3    0    0  0.44243425809E+02  0.59003516700E+02  0.23573362780E+02  0.10982841923E+03  0.77895330589E+02 0.  0.
         -6    2    1    2    0  502 -0.90666963552E+02 -0.94998138280E+02  0.17478403988E+03  0.27795268130E+03  0.17164815142E+03 0.  0.
        -24    2    5    5    0    0 -0.61908695340E+02 -0.10595771930E+03  0.19241714634E+03  0.24217326193E+03  0.81017317587E+02 0.  0.
          5    1    3    3  501    0  0.46423537743E+02  0.35994621580E+02 -0.10766569913E+03  0.12273854491E+03  0.47000000000E+01 0. -1.
        -13    1    4    4    0    0  0.35726231244E+02  0.39110429868E+02 -0.23552517689E+02  0.57971634554E+02  0.00000000000E+00 0.  1.
         14    1    4    4    0    0  0.85171945647E+01  0.19893086832E+02  0.47125880469E+02  0.51856784676E+02  0.00000000000E+00 0. -1.
         -5    1    5    5    0  502 -0.28758268212E+02  0.10959581024E+02 -0.17633106461E+02  0.35779419367E+02  0.47000000000E+01 0.  1.
         13    1    6    6    0    0 -0.46460839096E+02 -0.10942158753E+03  0.12332841049E+03  0.17129387094E+03  0.00000000000E+00 0. -1.
        -14    1    6    6    0    0 -0.15447856244E+02  0.34638682273E+01  0.69088735853E+02  0.70879390992E+02  0.00000000000E+00 0.  1.
</event>
<event>
12    1  0.8331241E-002  0.2210683E+03  0.7818608E-02  0.1133272E+00
         21   -1    0    0  503  502  0.00000000000E+00  0.00000000000E+00  0.72427913758E+03  0.72427913758E+03  0.00000000000E+00 0. -1.
         21   -1    0    0  501  503 -0.00000000000E+00 -0.00000000000E+00 -0.70691974019E+02  0.70691974019E+02  0.00000000000E+00 0. -1.
          6    2    1    2  501    0 -0.11818660001E+03  0.70546681886E+02  0.23743441171E+03  0.32374471874E+03  0.17172837943E+03 0.  0.
         24    2    3    3    0    0 -0.13913736524E+03  0.16742451126E+02  0.16892095580E+03  0.23402285155E+03  0.81196611158E+02 0.  0.
         -6    2    1    2    0  502  0.11818660001E+03 -0.70546681886E+02  0.41615275186E+03  0.47122639286E+03  0.17299217816E+03 0.  0.
        -24    2    5    5    0    0  0.45622451095E+02 -0.24947550505E+01  0.31840010784E+03  0.33167607983E+03  0.80887337799E+02 0.  0.
          5    1    3    3  501    0  0.20950765229E+02  0.53804230760E+02  0.68513455905E+02  0.89721867186E+02  0.47000000000E+01 0. -1.
        -13    1    4    4    0    0 -0.41382686743E+02  0.21473783614E+01  0.38409585008E+01  0.41615994018E+02  0.00000000000E+00 0.  1.
         14    1    4    4    0    0 -0.97754678499E+02  0.14595072765E+02  0.16507999730E+03  0.19240685753E+03  0.00000000000E+00 0. -1.
         -5    1    5    5    0  502  0.72564148918E+02 -0.68051926835E+02  0.97752644023E+02  0.13955031303E+03  0.47000000000E+01 0.  1.
         13    1    6    6    0    0  0.46181253931E+02 -0.33213722455E+02  0.25441392883E+03  0.26069581270E+03  0.00000000000E+00 0. -1.
        -14    1    6    6    0    0 -0.55880283564E+00  0.30718967405E+02  0.63986179001E+02  0.70980267132E+02  0.00000000000E+00 0.  1.
</event>
<event>
12    1  0.8331241E-002  0.2084847E+03  0.7818608E-02  0.1142904E+00
         21   -1    0    0  503  502  0.00000000000E+00  0.00000000000E+00  0.81547897221E+02  0.81547897221E+02  0.00000000000E+00 0. -1.
         21   -1    0    0  501  503 -0.00000000000E+00 -0.00000000000E+00 -0.59600374620E+03  0.59600374620E+03  0.00000000000E+00 0. -1.
          6    2    1    2  501    0  0.10317821619E+03 -0.56018505798E+02 -0.36919467855E+03  0.42399360332E+03  0.17228478660E+03 0.  0.
         24    2    3    3    0    0  0.13495305677E+03 -0.29491157903E+02 -0.30865619478E+03  0.35050660652E+03  0.92218104050E+02 0.  0.
         -6    2    1    2    0  502 -0.10317821619E+03  0.56018505798E+02 -0.14526117043E+03  0.25355804010E+03  0.17148485292E+03 0.  0.
        -24    2    5    5    0    0 -0.11132647642E+03  0.32201303965E+02 -0.16767410003E+03  0.21952742651E+03  0.81530232671E+02 0.  0.
          5    1    3    3  501    0 -0.31774840579E+02 -0.26527347895E+02 -0.60538483777E+02  0.73486996797E+02  0.47000000000E+01 0. -1.
        -11    1    4    4    0    0  0.42887668165E+02 -0.43669528617E+02 -0.19023508081E+03  0.19983934993E+03  0.00000000000E+00 0.  1.
         12    1    4    4    0    0  0.92065388606E+02  0.14178370714E+02 -0.11842111397E+03  0.15066725659E+03  0.00000000000E+00 0. -1.
         -5    1    5    5    0  502  0.81482602272E+01  0.23817201833E+02  0.22412929608E+02  0.34030613593E+02  0.47000000000E+01 0.  1.
         11    1    6    6    0    0 -0.32577889007E+02  0.45158846330E+02 -0.10184536627E+03  0.11607376484E+03  0.00000000000E+00 0. -1.
        -12    1    6    6    0    0 -0.78748587413E+02 -0.12957542366E+02 -0.65828733763E+02  0.10345366167E+03  0.00000000000E+00 0.  1.
</event>
<event>
12    1  0.8331241E-002  0.2172300E+03  0.7818608E-02  0.1136169E+00
         21   -1    0    0  503  502  0.00000000000E+00  0.00000000000E+00  0.92170710377E+03  0.92170710377E+03  0.00000000000E+00 0. -1.
         21   -1    0    0  501  503 -0.00000000000E+00 -0.00000000000E+00 -0.59849153273E+02  0.59849153273E+02  0.00000000000E+00 0. -1.
          6    2    1    2  501    0 -0.96455054043E+02  0.90043316690E+02  0.24253007170E+03  0.32559130936E+03  0.17256155053E+03 0.  0.
         24    2    3    3    0    0 -0.64513886327E+01  0.24381998693E+02  0.18023720195E+03  0.19786284703E+03  0.77641193913E+02 0.  0.
         -6    2    1    2    0  502  0.96455054043E+02 -0.90043316690E+02  0.61932787880E+03  0.65596494768E+03  0.17120635152E+03 0.  0.
        -24    2    5    5    0    0  0.11967959260E+03 -0.10713625033E+03  0.45506538998E+03  0.48912429675E+03  0.79728837267E+02 0.  0.
          5    1    3    3  501    0 -0.90003665410E+02  0.65661317997E+02  0.62292869749E+02  0.12772846233E+03  0.47000000000E+01 0. -1.
        -11    1    4    4    0    0  0.27830728133E+02  0.63978168297E+00  0.26012978532E+02  0.38100312349E+02  0.00000000000E+00 0.  1.
         12    1    4    4    0    0 -0.34282116765E+02  0.23742217010E+02  0.15422422342E+03  0.15976253468E+03  0.00000000000E+00 0. -1.
         -5    1    5    5    0  502 -0.23224538554E+02  0.17092933642E+02  0.16426248881E+03  0.16684065093E+03  0.47000000000E+01 0.  1.
         13    1    6    6    0    0  0.72994752516E+02 -0.96696147844E+02  0.38986889496E+03  0.40825988556E+03  0.00000000000E+00 0. -1.
        -14    1    6    6    0    0  0.46684840081E+02 -0.10440102488E+02  0.65196495021E+02  0.80864411185E+02  0.00000000000E+00 0.  1.
</event>
<event>
12    1  0.8331241E-002  0.4102811E+03  0.7818608E-02  0.1040351E+00
         21   -1    0    0  501  502  0.00000000000E+00  0.00000000000E+00  0.43314754901E+03  0.43314754901E+03  0.00000000000E+00 0. -1.
         21   -1    0    0  502  503 -0.00000000000E+00 -0.00000000000E+00 -0.40193096733E+03  0.40193096733E+03  0.00000000000E+00 0.  1.
         -6    2    1    2    0  503  0.30724467326E+03 -0.21088565900E+03 -0.62738934122E+02  0.41417687188E+03  0.16951181943E+03 0.  0.
        -24    2    3    3    0    0  0.11831796210E+03 -0.14313029807E+03  0.42135076937E+01  0.20254320114E+03  0.80750060692E+02 0.  0.
          6    2    1    2  501    0 -0.30724467326E+03  0.21088565900E+03  0.93955515798E+02  0.42090164446E+03  0.17163480107E+03 0.  0.
         24    2    5    5    0    0 -0.23649494863E+03  0.12588113140E+03  0.95041198561E+01  0.28167010520E+03  0.86439573678E+02 0.  0.
          5    1    5    5  501    0 -0.70749724631E+02  0.85004527605E+02  0.84451395942E+02  0.13923153926E+03  0.47000000000E+01 0. -1.
        -11    1    6    6    0    0 -0.11299342279E+02 -0.16348750601E+00  0.20453409883E+02  0.23367580961E+02  0.00000000000E+00 0.  1.
         12    1    6    6    0    0 -0.22519560635E+03  0.12604461890E+03 -0.10949290027E+02  0.25830252424E+03  0.00000000000E+00 0. -1.
         -5    1    3    3    0  503  0.18892671116E+03 -0.67755360937E+02 -0.66952441816E+02  0.21163367074E+03  0.47000000000E+01 0.  1.
         11    1    4    4    0    0  0.42023850504E+02 -0.31799989135E+02 -0.33454393274E+02  0.62421468659E+02  0.00000000000E+00 0. -1.
        -12    1    4    4    0    0  0.76294111600E+02 -0.11133030893E+03  0.37667900967E+02  0.14012173249E+03  0.00000000000E+00 0.  1.
</event>
<event>
12    1  0.8331241E-002  0.1959435E+03  0.7818608E-02  0.1153218E+00
         21   -1    0    0  503  502  0.00000000000E+00  0.00000000000E+00  0.25726226309E+03  0.25726226309E+03  0.00000000000E+00 0.  1.
         21   -1    0    0  501  503 -0.00000000000E+00 -0.00000000000E+00 -0.18429728682E+03  0.18429728682E+03  0.00000000000E+00 0.  1.
          6    2    1    2  501    0 -0.35751621776E+02  0.87405064277E+02 -0.59865109832E+02  0.20483677765E+03  0.17162881571E+03 0.  0.
         24    2    3    3    0    0 -0.24514468292E+02  0.12765651877E+02  0.27140019114E+02  0.89557560250E+02  0.80746857133E+02 0.  0.
         -6    2    1    2    0  502  0.35751621776E+02 -0.87405064277E+02  0.13283008611E+03  0.23672277226E+03  0.17168580434E+03 0.  0.
        -24    2    5    5    0    0  0.48062739149E+02 -0.11770902809E+03  0.13840106097E+03  0.20321128774E+03  0.77295094275E+02 0.  0.
          5    1    3    3  501    0 -0.11237153484E+02  0.74639412400E+02 -0.87005128946E+02  0.11527921740E+03  0.47000000000E+01 0. -1.
        -11    1    4    4    0    0 -0.31228707337E+02  0.13153420135E+02 -0.21711886814E+02  0.40244883554E+02  0.00000000000E+00 0.  1.
         12    1    4    4    0    0  0.67142390449E+01 -0.38776825846E+00  0.48851905928E+02  0.49312676696E+02  0.00000000000E+00 0. -1.
         -5    1    5    5    0  502 -0.12311117373E+02  0.30303963815E+02 -0.55709748611E+01  0.33511484520E+02  0.47000000000E+01 0.  1.
         11    1    6    6    0    0  0.17701913812E+00 -0.62998534762E+02  0.10666480960E+03  0.12387989476E+03  0.00000000000E+00 0. -1.
        -12    1    6    6    0    0  0.47885720011E+02 -0.54710493330E+02  0.31736251362E+02  0.79331392978E+02  0.00000000000E+00 0.  1.
</event>
<event>
12    1  0.8331241E-002  0.1772742E+03  0.7818608E-02  0.1170605E+00
         21   -1    0    0  501  502  0.00000000000E+00  0.00000000000E+00  0.36092431396E+02  0.36092431396E+02  0.00000000000E+00 0. -1.
         21   -1    0    0  502  503 -0.00000000000E+00 -0.00000000000E+00 -0.97839603102E+03  0.97839603102E+03  0.00000000000E+00 0. -1.
         -6    2    1    2    0  503 -0.49024145000E+00  0.28374748351E+02 -0.64090045922E+03  0.66481719311E+03  0.17442228914E+03 0.  0.
        -24    2    3    3    0    0  0.65317169502E+02  0.33689088246E+02 -0.32547251543E+03  0.34251960506E+03  0.77369465860E+02 0.  0.
          6    2    1    2  501    0  0.49024145000E+00 -0.28374748351E+02 -0.30140314041E+03  0.34967126931E+03  0.17498793344E+03 0.  0.
         24    2    5    5    0    0  0.35037830672E+02 -0.65920502956E+02 -0.12435452038E+03  0.16535761419E+03  0.79409895749E+02 0.  0.
          5    1    5    5  501    0 -0.34547589222E+02  0.37545754604E+02 -0.17704862003E+03  0.18431365512E+03  0.47000000000E+01 0. -1.
        -11    1    6    6    0    0  0.16804688493E+02  0.16930818166E+02 -0.32589354522E+02  0.40387079459E+02  0.00000000000E+00 0.  1.
         12    1    6    6    0    0  0.18233142179E+02 -0.82851321122E+02 -0.91765165858E+02  0.12497053473E+03  0.00000000000E+00 0. -1.
         -5    1    3    3    0  503 -0.65807410952E+02 -0.53143398948E+01 -0.31542794379E+03  0.32229758805E+03  0.47000000000E+01 0.  1.
         11    1    4    4    0    0  0.26399736584E+02  0.30904224817E+01 -0.25508370505E+03  0.25646479951E+03  0.00000000000E+00 0. -1.
        -12    1    4    4    0    0  0.38917432917E+02  0.30598665764E+02 -0.70388810381E+02  0.86054805550E+02  0.00000000000E+00 0.  1.
</event>
<event>
12    1  0.8331241E-002  0.1990735E+03  0.7818608E-02  0.1150646E+00
         21   -1    0    0  501  502  0.00000000000E+00  0.00000000000E+00  0.79393600856E+03  0.79393600856E+03  0.00000000000E+00 0. -1.
         21   -1    0    0  502  503 -0.00000000000E+00 -0.00000000000E+00 -0.97102000450E+02  0.97102000450E+02  0.00000000000E+00 0. -1.
         -6    2    1    2    0  503 -0.38746997390E+02  0.91614420672E+02  0.37111942827E+02  0.20193462869E+03  0.17177242527E+03 0.  0.
        -24    2    3    3    0    0  0.37360121095E+02  0.75675590833E+02  0.43310027653E+02  0.12378831697E+03  0.79531221710E+02 0.  0.
          6    2    1    2  501    0  0.38746997390E+02 -0.91614420672E+02  0.65972206528E+03  0.68910338032E+03  0.17244052151E+03 0.  0.
         24    2    5    5    0    0  0.47056233630E+02 -0.77851078186E+02  0.23137790381E+03  0.26043184677E+03  0.77549551535E+02 0.  0.
          5    1    5    5  501    0 -0.83092362398E+01 -0.13763342486E+02  0.42834416147E+03  0.42867153354E+03  0.47000000000E+01 0. -1.
        -13    1    6    6    0    0  0.31597942721E+02 -0.53115330111E+02  0.58463154386E+02  0.85074136479E+02  0.00000000000E+00 0.  1.
         14    1    6    6    0    0  0.15458290910E+02 -0.24735748075E+02  0.17291474942E+03  0.17535771029E+03  0.00000000000E+00 0. -1.
         -5    1    3    3    0  503 -0.76107118485E+02  0.15938829840E+02 -0.61980848261E+01  0.78146311725E+02  0.47000000000E+01 0.  1.
         13    1    4    4    0    0 -0.56554651053E+01 -0.11239609194E+01 -0.16425153757E+02  0.17407850230E+02  0.00000000000E+00 0. -1.
        -14    1    4    4    0    0  0.43015586200E+02  0.76799551752E+02  0.59735181410E+02  0.10638046674E+03  0.00000000000E+00 0.  1.
</event>
<event>
12    1  0.8331241E-002  0.2565552E+03  0.7818608E-02  0.1109253E+00
         21   -1    0    0  503  502  0.00000000000E+00  0.00000000000E+00  0.66496527336E+02  0.66496527336E+02  0.00000000000E+00 0. -1.
         21   -1    0    0  501  503 -0.00000000000E+00 -0.00000000000E+00 -0.99485608820E+03  0.99485608820E+03  0.00000000000E+00 0.  1.
          6    2    1    2  501    0  0.18937908551E+03  0.18387838849E+02 -0.50407515738E+03  0.56560793717E+03  0.17209887753E+03 0.  0.
         24    2    3    3    0    0  0.13668569195E+03 -0.50694119709E+02 -0.29764656919E+03  0.34159061028E+03  0.82690947031E+02 0.  0.
         -6    2    1    2    0  502 -0.18937908551E+03 -0.18387838849E+02 -0.42428440347E+03  0.49574467837E+03  0.17188071576E+03 0.  0.
        -24    2    5    5    0    0 -0.14184342694E+03 -0.71253170407E+02 -0.34207397567E+03  0.38695577013E+03  0.86738636961E+02 0.  0.
          5    1    3    3  501    0  0.52693393559E+02  0.69081958558E+02 -0.20642858819E+03  0.22401732689E+03  0.47000000000E+01 0. -1.
        -13    1    4    4    0    0 -0.42037036203E+01  0.54746962682E+01  0.66536529568E+00  0.69344166542E+01  0.00000000000E+00 0.  1.
         14    1    4    4    0    0  0.14088939557E+03 -0.56168815977E+02 -0.29831193449E+03  0.33465619363E+03  0.00000000000E+00 0. -1.
         -5    1    5    5    0  502 -0.47535658574E+02  0.52865331558E+02 -0.82210427800E+02  0.10878890824E+03  0.47000000000E+01 0.  1.
         13    1    6    6    0    0 -0.13277241724E+03 -0.87224909866E+02 -0.27680544207E+03  0.31915192690E+03  0.00000000000E+00 0. -1.
        -14    1    6    6    0    0 -0.90710096999E+01  0.15971739459E+02 -0.65268533600E+02  0.67803843229E+02  0.00000000000E+00 0.  1.
</event>
<event>
12    1  0.8331241E-002  0.2854047E+03  0.7818608E-02  0.1092812E+00
         21   -1    0    0  503  502  0.00000000000E+00  0.00000000000E+00  0.39022455564E+03  0.39022455564E+03  0.00000000000E+00 0.  1.
         21   -1    0    0  501  503 -0.00000000000E+00 -0.00000000000E+00 -0.86454234624E+03  0.86454234624E+03  0.00000000000E+00 0.  1.
          6    2    1    2  501    0 -0.22555453128E+03  0.33105051924E+02 -0.78363754962E+03  0.83389335639E+03  0.17122946482E+03 0.  0.
         24    2    3    3    0    0 -0.57313492284E+02  0.45840131537E+02 -0.21583571390E+03  0.24153515049E+03  0.79799871372E+02 0.  0.
         -6    2    1    2    0  502  0.22555453128E+03 -0.33105051924E+02  0.30931975902E+03  0.42087354548E+03  0.17171207564E+03 0.  0.
        -24    2    5    5    0    0  0.21703181295E+03 -0.37674430288E+02  0.32583068105E+03  0.40117033527E+03  0.79055895791E+02 0.  0.
          5    1    3    3  501    0 -0.16824103899E+03 -0.12735079613E+02 -0.56780183572E+03  0.59235820591E+03  0.47000000000E+01 0. -1.
        -11    1    4    4    0    0 -0.65958299574E+02  0.61506083060E+02 -0.17255387417E+03  0.19470062924E+03  0.00000000000E+00 0.  1.
         12    1    4    4    0    0  0.86448072904E+01 -0.15665951524E+02 -0.43281839729E+02  0.46834521248E+02  0.00000000000E+00 0. -1.
         -5    1    5    5    0  502  0.85227183304E+01  0.45693783640E+01 -0.16510922028E+02  0.19703210210E+02  0.47000000000E+01 0.  1.
         13    1    6    6    0    0  0.71904377298E+02  0.20293829802E+02  0.13710384609E+03  0.15613950050E+03  0.00000000000E+00 0. -1.
        -14    1    6    6    0    0  0.14512743565E+03 -0.57968260090E+02  0.18872683495E+03  0.24503083477E+03  0.00000000000E+00 0.  1.
</event>
<event>
12    1  0.8331241E-002  0.3032835E+03  0.7818608E-02  0.1084120E+00
         21   -1    0    0  503  502  0.00000000000E+00  0.00000000000E+00  0.10001290236E+04  0.10001290236E+04  0.00000000000E+00 0. -1.
         21   -1    0    0  501  503 -0.00000000000E+00 -0.00000000000E+00 -0.95265020963E+02  0.95265020963E+02  0.00000000000E+00 0.  1.
          6    2    1    2  501    0 -0.62546959443E+02 -0.24101726156E+03  0.32997934671E+03  0.44541460025E+03  0.16585039752E+03 0.  0.
         24    2    3    3    0    0 -0.74569770308E+01 -0.11625579681E+03  0.84762026329E+02  0.16478325228E+03  0.79986888474E+02 0.  0.
         -6    2    1    2    0  502  0.62546959443E+02  0.24101726156E+03  0.57488465596E+03  0.64997944434E+03  0.17314579955E+03 0.  0.
        -24    2    5    5    0    0 -0.21040293408E+01  0.22049326521E+03  0.44782904910E+03  0.50587461440E+03  0.82076557770E+02 0.  0.
          5    1    3    3  501    0 -0.55089982412E+02 -0.12476146476E+03  0.24521732038E+03  0.28063134797E+03  0.47000000000E+01 0. -1.
        -11    1    4    4    0    0 -0.23528839831E+02 -0.23154382141E+00  0.20348060349E+02  0.31107932691E+02  0.00000000000E+00 0.  1.
         12    1    4    4    0    0  0.16071862800E+02 -0.11602425299E+03  0.64413965980E+02  0.13367531959E+03  0.00000000000E+00 0. -1.
         -5    1    5    5    0  502  0.64650988783E+02  0.20523996348E+02  0.12705560687E+03  0.14410482995E+03  0.47000000000E+01 0.  1.
         13    1    6    6    0    0 -0.75875033309E+01  0.15652053872E+03  0.22652736097E+03  0.27544671810E+03  0.00000000000E+00 0. -1.
        -14    1    6    6    0    0  0.54834739901E+01  0.63972726494E+02  0.22130168813E+03  0.23042789630E+03  0.00000000000E+00 0.  1.
</event>
<event>
12    1  0.8331241E-002  0.1851527E+03  0.7818608E-02  0.1163426E+00
         21   -1    0    0  501  502  0.00000000000E+00  0.00000000000E+00  0.12317445892E+03  0.12317445892E+03  0.00000000000E+00 0.  1.
         21   -1    0    0  502  503 -0.00000000000E+00 -0.00000000000E+00 -0.31555905767E+03  0.31555905767E+03  0.00000000000E+00 0.  1.
         -6    2    1    2    0  503  0.24446512103E+02 -0.58975116265E+02 -0.17533525452E+03  0.25499799926E+03  0.17379825043E+03 0.  0.
        -24    2    3    3    0    0  0.58318641543E+02 -0.55084880728E+02 -0.47246514760E+02  0.12236591287E+03  0.79408912842E+02 0.  0.
          6    2    1    2  501    0 -0.24446512103E+02  0.58975116265E+02 -0.17049344227E+02  0.18373551733E+03  0.17144201322E+03 0.  0.
         24    2    5    5    0    0 -0.10681350408E+02  0.19146509079E+01  0.49266529637E+02  0.95049207735E+02  0.80556835923E+02 0.  0.
          5    1    5    5  501    0 -0.13765161695E+02  0.57060465357E+02 -0.66315873864E+02  0.88686309595E+02  0.47000000000E+01 0. -1.
        -13    1    6    6    0    0  0.31034243924E+02  0.13326738939E+02  0.36995020398E+02  0.50093490605E+02  0.00000000000E+00 0.  1.
         14    1    6    6    0    0 -0.41715594332E+02 -0.11412088031E+02  0.12271509238E+02  0.44955717130E+02  0.00000000000E+00 0. -1.
         -5    1    3    3    0  503 -0.33872129441E+02 -0.38902355376E+01 -0.12808873976E+03  0.13263208639E+03  0.47000000000E+01 0.  1.
         13    1    4    4    0    0 -0.18701200040E+02 -0.13566547532E+02 -0.37948846633E+00  0.23106927670E+02  0.00000000000E+00 0. -1.
        -14    1    4    4    0    0  0.77019841583E+02 -0.41518333196E+02 -0.46867026293E+02  0.99258985197E+02  0.00000000000E+00 0.  1.
</event>
<event>
12    1  0.8331241E-002  0.3155957E+03  0.7818608E-02  0.1077772E+00
         21   -1    0    0  503  502  0.00000000000E+00  0.00000000000E+00  0.27423812774E+03  0.27423812774E+03  0.00000000000E+00 0. -1.
         21   -1    0    0  501  503 -0.00000000000E+00 -0.00000000000E+00 -0.41479466940E+03  0.41479466940E+03  0.00000000000E+00 0.  1.
          6    2    1    2  501    0  0.73520129828E+02  0.25385783962E+03 -0.19261993162E+03  0.36917155740E+03  0.17127810284E+03 0.  0.
         24    2    3    3    0    0  0.83767177605E+02  0.16470841924E+03 -0.62971976977E+02  0.21142713346E+03  0.81179797157E+02 0.  0.
         -6    2    1    2    0  502 -0.73520129828E+02 -0.25385783962E+03  0.52063389952E+02  0.31986123974E+03  0.17248653249E+03 0.  0.
        -24    2    5    5    0    0 -0.10613671003E+03 -0.23382701784E+03  0.69459140778E+02  0.27755548041E+03  0.79198465774E+02 0.  0.
          5    1    3    3  501    0 -0.10247047777E+02  0.89149420378E+02 -0.12964795464E+03  0.15774442394E+03  0.47000000000E+01 0. -1.
        -13    1    4    4    0    0  0.23925756175E+02  0.11953053309E+03 -0.61256931958E+02  0.13642727683E+03  0.00000000000E+00 0.  1.
         14    1    4    4    0    0  0.59841421430E+02  0.45177886149E+02 -0.17150450194E+01  0.74999856633E+02  0.00000000000E+00 0. -1.
         -5    1    5    5    0  502  0.32616580205E+02 -0.20030821777E+02 -0.17395750826E+02  0.42305759326E+02  0.47000000000E+01 0.  1.
         11    1    6    6    0    0 -0.25484136508E+02 -0.10224124453E+03  0.63667293498E+02  0.12311067199E+03  0.00000000000E+00 0. -1.
        -12    1    6    6    0    0 -0.80652573525E+02 -0.13158577330E+03  0.57918472807E+01  0.15444480842E+03  0.00000000000E+00 0.  1.
</event>
<event>
12    1  0.8331241E-002  0.1751482E+03  0.7818608E-02  0.1172867E+00
         21   -1    0    0  501  502  0.00000000000E+00  0.00000000000E+00  0.10606683435E+03  0.10606683435E+03  0.00000000000E+00 0.  1.
         21   -1    0    0  502  503 -0.00000000000E+00 -0.00000000000E+00 -0.37801642334E+03  0.37801642334E+03  0.00000000000E+00 0.  1.
         -6    2    1    2    0  503 -0.17749876656E+02  0.14147427518E+02 -0.25417023453E+03  0.30803502409E+03  0.17253364923E+03 0.  0.
        -24    2    3    3    0    0  0.17529245636E+02 -0.52924806279E+02 -0.15823204258E+03  0.18568500287E+03  0.79581602277E+02 0.  0.
          6    2    1    2  501    0  0.17749876656E+02 -0.14147427518E+02 -0.17779354450E+02  0.17604823360E+03  0.17367114695E+03 0.  0.
         24    2    5    5    0    0  0.89614555278E+01 -0.72913197359E+02 -0.37467423940E+02  0.11327592974E+03  0.77659425495E+02 0.  0.
          5    1    5    5  501    0  0.87884211278E+01  0.58765769841E+02  0.19688069490E+02  0.62772303854E+02  0.47000000000E+01 0. -1.
        -13    1    6    6    0    0 -0.53381208729E+01 -0.19205067084E+02  0.23474540052E+02  0.30795846583E+02  0.00000000000E+00 0.  1.
         14    1    6    6    0    0  0.14299576401E+02 -0.53708130275E+02 -0.60941963992E+02  0.82480083160E+02  0.00000000000E+00 0. -1.
         -5    1    3    3    0  503 -0.35279122291E+02  0.67072233797E+02 -0.95938191958E+02  0.12235002122E+03  0.47000000000E+01 0.  1.
         13    1    4    4    0    0 -0.17441047115E+02 -0.16843115761E+02 -0.12032225013E+03  0.12274088377E+03  0.00000000000E+00 0. -1.
        -14    1    4    4    0    0  0.34970292751E+02 -0.36081690518E+02 -0.37909792448E+02  0.62944119099E+02  0.00000000000E+00 0.  1.
</event>
<event>
12    1  0.8331241E-002  0.2325686E+03  0.7818608E-02  0.1124853E+00
         21   -1    0    0  503  502  0.00000000000E+00  0.00000000000E+00  0.70382605471E+02  0.70382605471E+02  0.00000000000E+00 0.  1.
         21   -1    0    0  501  503 -0.00000000000E+00 -0.00000000000E+00 -0.22819181357E+04  0.22819181357E+04  0.00000000000E+00 0. -1.
          6    2    1    2  501    0 -0.23207830149E+02 -0.15400867130E+03 -0.20637014163E+04  0.20767647143E+04  0.17271615131E+03 0.  0.
         24    2    3    3    0    0  0.27894863106E+02 -0.23993803917E+02 -0.61220796178E+03  0.61855667381E+03  0.80373778241E+02 0.  0.
         -6    2    1    2    0  502  0.23207830149E+02  0.15400867130E+03 -0.14783411392E+03  0.27553602681E+03  0.17264965282E+03 0.  0.
        -24    2    5    5    0    0 -0.22440798790E+02  0.15246282874E+02 -0.78911893526E+02  0.11394654625E+03  0.77593104531E+02 0.  0.
          5    1    3    3  501    0 -0.51102693255E+02 -0.13001486738E+03 -0.14514934545E+04  0.14582080405E+04  0.47000000000E+01 0. -1.
        -13    1    4    4    0    0 -0.90675024562E+01  0.79912674209E+01 -0.14602663097E+02  0.18955677918E+02  0.00000000000E+00 0.  1.
         14    1    4    4    0    0  0.36962365563E+02 -0.31985071338E+02 -0.59760529869E+03  0.59960099589E+03  0.00000000000E+00 0. -1.
         -5    1    5    5    0  502  0.45648628938E+02  0.13876238842E+03 -0.68922220398E+02  0.16158948056E+03  0.47000000000E+01 0.  1.
         13    1    6    6    0    0 -0.51197904195E+02  0.15232059608E+02 -0.49909063006E+02  0.73103731806E+02  0.00000000000E+00 0. -1.
        -14    1    6    6    0    0  0.28757105405E+02  0.14223266577E-01 -0.29002830519E+02  0.40842814444E+02  0.00000000000E+00 0.  1.
</event>
<event>
12    1  0.8331241E-002  0.1838855E+03  0.7818608E-02  0.1164740E+00
         21   -1    0    0  503  502  0.00000000000E+00  0.00000000000E+00  0.11712859708E+03  0.11712859708E+03  0.00000000000E+00 0. -1.
         21   -1    0    0  501  503 -0.00000000000E+00 -0.00000000000E+00 -0.44326778208E+03  0.44326778208E+03  0.00000000000E+00 0.  1.
          6    2    1    2  501    0  0.20634181475E+02 -0.52849980180E+02 -0.33157292621E+03  0.37914970253E+03  0.17491426951E+03 0.  0.
         24    2    3    3    0    0 -0.13561295251E+02 -0.75538148887E+02 -0.31545188076E+03  0.33480940783E+03  0.81838437346E+02 0.  0.
         -6    2    1    2    0  502 -0.20634181475E+02  0.52849980180E+02  0.54337412100E+01  0.18124667663E+03  0.17205215022E+03 0.  0.
        -24    2    5    5    0    0 -0.46666782454E+02  0.88750728269E+02 -0.19907856601E+02  0.12995489750E+03  0.80233859907E+02 0.  0.
          5    1    3    3  501    0  0.34195476726E+02  0.22688168706E+02 -0.16121045452E+02  0.44340294701E+02  0.47000000000E+01 0. -1.
        -13    1    4    4    0    0  0.24008115197E+02 -0.69830998103E+02 -0.22048786801E+03  0.23252453167E+03  0.00000000000E+00 0.  1.
         14    1    4    4    0    0 -0.37569410447E+02 -0.57071507835E+01 -0.94964012757E+02  0.10228487616E+03  0.00000000000E+00 0. -1.
         -5    1    5    5    0  502  0.26032600979E+02 -0.35900748089E+02  0.25341597811E+02  0.51291779133E+02  0.47000000000E+01 0.  1.
         13    1    6    6    0    0  0.19875916132E+02  0.33996278554E+02 -0.19121788389E+02  0.43777183427E+02  0.00000000000E+00 0. -1.
        -14    1    6    6    0    0 -0.66542698586E+02  0.54754449715E+02 -0.78606821171E+00  0.86177714068E+02  0.00000000000E+00 0.  1.
</event>
<event>
12    1  0.8331241E-002  0.1803003E+03  0.7818608E-02  0.1167539E+00
         21   -1    0    0  503  502  0.00000000000E+00  0.00000000000E+00  0.16923629857E+03  0.16923629857E+03  0.00000000000E+00 0. -1.
         21   -1    0    0  501  503 -0.00000000000E+00 -0.00000000000E+00 -0.26585267814E+03  0.26585267814E+03  0.00000000000E+00 0. -1.
          6    2    1    2  501    0  0.52118381901E+02 -0.45818683850E+01 -0.16297954717E+03  0.24296328150E+03  0.17242825786E+03 0.  0.
         24    2    3    3    0    0 -0.18176391298E+02  0.74265761710E+01 -0.15257798019E+03  0.17074250557E+03  0.74077175538E+02 0.  0.
         -6    2    1    2    0  502 -0.52118381901E+02  0.45818683850E+01  0.66363167605E+02  0.19212569522E+03  0.17254243970E+03 0.  0.
        -24    2    5    5    0    0 -0.10330197575E+02  0.48027036972E+02 -0.10777456584E+02  0.94112936239E+02  0.79547356555E+02 0.  0.
          5    1    3    3  501    0  0.70294773199E+02 -0.12008444556E+02 -0.10401566985E+02  0.72220775927E+02  0.47000000000E+01 0. -1.
        -11    1    4    4    0    0  0.11766838676E+02  0.32216747072E+02 -0.97269749780E+02  0.10313962142E+03  0.00000000000E+00 0.  1.
         12    1    4    4    0    0 -0.29943229974E+02 -0.24790170901E+02 -0.55308230408E+02  0.67602884150E+02  0.00000000000E+00 0. -1.
         -5    1    5    5    0  502 -0.41788184326E+02 -0.43445168587E+02  0.77140624189E+02  0.98012758981E+02  0.47000000000E+01 0.  1.
         13    1    6    6    0    0 -0.26527195508E+01 -0.11305077826E+01  0.29782442395E+02  0.29921711915E+02  0.00000000000E+00 0. -1.
        -14    1    6    6    0    0 -0.76774780241E+01  0.49157544754E+02 -0.40559898979E+02  0.64191224324E+02  0.00000000000E+00 0.  1.
</event>
<event>
12    1  0.8331241E-002  0.1855584E+03  0.7818608E-02  0.1162546E+00
         21   -1    0    0  503  502  0.00000000000E+00  0.00000000000E+00  0.75087556879E+02  0.75087556879E+02  0.00000000000E+00 0. -1.
         21   -1    0    0  501  503 -0.00000000000E+00 -0.00000000000E+00 -0.46141618644E+03  0.46141618644E+03  0.00000000000E+00 0. -1.
          6    2    1    2  501    0  0.43803889104E+02  0.54466649840E+02 -0.17136197507E+03  0.25252739184E+03  0.17181315574E+03 0.  0.
         24    2    3    3    0    0  0.84915395730E+02  0.39326077032E+02 -0.70496120361E+02  0.14245739789E+03  0.81038524547E+02 0.  0.
         -6    2    1    2    0  502 -0.43803889104E+02 -0.54466649840E+02 -0.21496665449E+03  0.28397635148E+03  0.17189098002E+03 0.  0.
        -24    2    5    5    0    0 -0.53015391593E+02 -0.77125258095E+02 -0.80567816614E+02  0.14728911020E+03  0.80274352862E+02 0.  0.
          5    1    3    3  501    0 -0.41111506626E+02  0.15140572808E+02 -0.10086585471E+03  0.11006999395E+03  0.47000000000E+01 0. -1.
        -11    1    4    4    0    0  0.55708820783E+02  0.35464426715E+02  0.14719269006E-01  0.66039370772E+02  0.00000000000E+00 0.  1.
         12    1    4    4    0    0  0.29206574946E+02  0.38616503177E+01 -0.70510839630E+02  0.76418027118E+02  0.00000000000E+00 0. -1.
         -5    1    5    5    0  502  0.92115024892E+01  0.22658608255E+02 -0.13439883787E+03  0.13668724128E+03  0.47000000000E+01 0.  1.
         13    1    6    6    0    0 -0.73797319691E+02 -0.50108035891E+02 -0.57318524049E+02  0.10602958480E+03  0.00000000000E+00 0. -1.
        -14    1    6    6    0    0  0.20781928098E+02 -0.27017222204E+02 -0.23249292564E+02  0.41259525395E+02  0.00000000000E+00 0.  1.
</event>
<event>
12    1  0.8331241E-002  0.2797202E+03  0.7818608E-02  0.1096187E+00
         21   -1    0    0  501  502  0.00000000000E+00  0.00000000000E+00  0.55025236223E+03  0.55025236223E+03  0.00000000000E+00 0. -1.
         21   -1    0    0  502  503 -0.00000000000E+00 -0.00000000000E+00 -0.15003352301E+04  0.15003352301E+04  0.00000000000E+00 0. -1.
         -6    2    1    2    0  503  0.18680518449E+03 -0.11242716795E+03 -0.14511981217E+04  0.14779104707E+04  0.17523505907E+03 0.  0.
        -24    2    3    3    0    0  0.16183909669E+03 -0.14725410204E+03 -0.13001842340E+04  0.13208642828E+04  0.79547138574E+02 0.  0.
          6    2    1    2  501    0 -0.18680518449E+03  0.11242716795E+03  0.50111525379E+03  0.57267712167E+03  0.17119153909E+03 0.  0.
         24    2    5    5    0    0 -0.14843117946E+03  0.16322494466E+02  0.35848910566E+03  0.39640182374E+03  0.79509295868E+02 0.  0.
          5    1    5    5  501    0 -0.38374005029E+02  0.96104673488E+02  0.14262614813E+03  0.17627529793E+03  0.47000000000E+01 0. -1.
        -11    1    6    6    0    0 -0.56316216358E+02  0.38879716062E+02  0.10097704604E+03  0.12198160670E+03  0.00000000000E+00 0.  1.
         12    1    6    6    0    0 -0.92114963099E+02 -0.22557221596E+02  0.25751205962E+03  0.27442021704E+03  0.00000000000E+00 0. -1.
         -5    1    3    3    0  503  0.24966087795E+02  0.34826934086E+02 -0.15101388764E+03  0.15704618791E+03  0.47000000000E+01 0.  1.
         13    1    4    4    0    0  0.99785650050E+02 -0.53725666490E+02 -0.81650689463E+03  0.82433435702E+03  0.00000000000E+00 0. -1.
        -14    1    4    4    0    0  0.62053446642E+02 -0.93528435550E+02 -0.48367733942E+03  0.49652992575E+03  0.00000000000E+00 0.  1.
</event>
<event>
12    1  0.8331241E-002  0.1840776E+03  0.7818608E-02  0.1164143E+00
         21   -1    0    0  503  502  0.00000000000E+00  0.00000000000E+00  0.51662021421E+03  0.51662021421E+03  0.00000000000E+00 0. -1.
         21   -1    0    0  501  503 -0.00000000000E+00 -0.00000000000E+00 -0.17111953848E+03  0.17111953848E+03  0.00000000000E+00 0. -1.
          6    2    1    2  501    0  0.24054518338E+02 -0.57256748645E+02 -0.97560398756E+02  0.20833292870E+03  0.17328480216E+03 0.  0.
         24    2    3    3    0    0 -0.25400935676E+02 -0.38986961770E-01 -0.10413582663E+03  0.13227347541E+03  0.77503502211E+02 0.  0.
         -6    2    1    2    0  502 -0.24054518338E+02  0.57256748645E+02  0.44306107449E+03  0.47940682399E+03  0.17225223378E+03 0.  0.
        -24    2    5    5    0    0 -0.42197064491E+02  0.28610968930E+02  0.43354993897E+03  0.44387818237E+03  0.80393478656E+02 0.  0.
          5    1    3    3  501    0  0.49455454014E+02 -0.57217761683E+02  0.65754278758E+01  0.76059453295E+02  0.47000000000E+01 0. -1.
        -11    1    4    4    0    0 -0.63140621301E+00  0.36981937354E+02 -0.45475600111E+02  0.58618193163E+02  0.00000000000E+00 0.  1.
         12    1    4    4    0    0 -0.24769529463E+02 -0.37020924316E+02 -0.58660226520E+02  0.73655282244E+02  0.00000000000E+00 0. -1.
         -5    1    5    5    0  502  0.18142546153E+02  0.28645779715E+02  0.95111355197E+01  0.35528641619E+02  0.47000000000E+01 0.  1.
         11    1    6    6    0    0 -0.49886808925E+02 -0.92804651261E+01  0.16700583870E+03  0.17454446682E+03  0.00000000000E+00 0. -1.
        -12    1    6    6    0    0  0.76897444337E+01  0.37891434056E+02  0.26654410027E+03  0.26933371555E+03  0.00000000000E+00 0.  1.
</event>
<event>
12    1  0.8331241E-002  0.4228810E+03  0.7818608E-02  0.1036160E+00
         21   -1    0    0  501  502  0.00000000000E+00  0.00000000000E+00  0.86607692525E+03  0.86607692525E+03  0.00000000000E+00 0. -1.
         21   -1    0    0  502  503 -0.00000000000E+00 -0.00000000000E+00 -0.38577075480E+03  0.38577075480E+03  0.00000000000E+00 0.  1.
         -6    2    1    2    0  503  0.33024090007E+03 -0.19993080789E+03 -0.18680755369E+03  0.46199387186E+03  0.17178444487E+03 0.  0.
        -24    2    3    3    0    0  0.71730769634E+02 -0.23025575379E+02 -0.55115388210E+02  0.12215881587E+03  0.78800950784E+02 0.  0.
          6    2    1    2  501    0 -0.33024090007E+03  0.19993080789E+03  0.66711372414E+03  0.78985380819E+03  0.17261789407E+03 0.  0.
         24    2    5    5    0    0 -0.23038113824E+03  0.69107855325E+02  0.35876652025E+03  0.44030165886E+03  0.85444544722E+02 0.  0.
          5    1    5    5  501    0 -0.99859761835E+02  0.13082295257E+03  0.30834720389E+03  0.34955214933E+03  0.47000000000E+01 0. -1.
        -13    1    6    6    0    0 -0.20191987140E+03  0.82936027658E+02  0.27732793210E+03  0.35293172296E+03  0.00000000000E+00 0.  1.
         14    1    6    6    0    0 -0.28461266845E+02 -0.13828172333E+02  0.81438588145E+02  0.87369935902E+02  0.00000000000E+00 0. -1.
         -5    1    3    3    0  503  0.25851013044E+03 -0.17690523251E+03 -0.13169216548E+03  0.33983505599E+03  0.47000000000E+01 0.  1.
         13    1    4    4    0    0  0.38737501752E+02 -0.52169820464E+02 -0.33928070335E+02  0.73303466261E+02  0.00000000000E+00 0. -1.
        -14    1    4    4    0    0  0.32993267882E+02  0.29144245085E+02 -0.21187317874E+02  0.48855349613E+02  0.00000000000E+00 0.  1.
</event>
<event>
12    1  0.8331241E-002  0.1959292E+03  0.7818608E-02  0.1153362E+00
         21   -1    0    0  501  502  0.00000000000E+00  0.00000000000E+00  0.13333501034E+03  0.13333501034E+03  0.00000000000E+00 0. -1.
         21   -1    0    0  502  503 -0.00000000000E+00 -0.00000000000E+00 -0.54237771376E+03  0.54237771376E+03  0.00000000000E+00 0. -1.
         -6    2    1    2    0  503 -0.23417427219E+02 -0.89639126254E+02 -0.43619580881E+03  0.47791093854E+03  0.17189686647E+03 0.  0.
        -24    2    3    3    0    0 -0.49074106876E+02 -0.12222905019E+03 -0.34594043143E+03  0.37847004404E+03  0.78845313509E+02 0.  0.
          6    2    1    2  501    0  0.23417427219E+02  0.89639126254E+02  0.27153105386E+02  0.19780178555E+03  0.17264039615E+03 0.  0.
         24    2    5    5    0    0  0.30381359445E+02  0.97629683831E+02 -0.37449590244E+02  0.13216685853E+03  0.74906772175E+02 0.  0.
          5    1    5    5  501    0 -0.69639322261E+01 -0.79905575767E+01  0.64602695631E+02  0.65634927022E+02  0.47000000000E+01 0. -1.
        -13    1    6    6    0    0  0.40017787875E+02  0.16166501291E+02 -0.32178226913E+01  0.43279712260E+02  0.00000000000E+00 0.  1.
         14    1    6    6    0    0 -0.96364284296E+01  0.81463182540E+02 -0.34231767553E+02  0.88887146271E+02  0.00000000000E+00 0. -1.
         -5    1    3    3    0  503  0.25656679657E+02  0.32589923935E+02 -0.90255377379E+02  0.99440894499E+02  0.47000000000E+01 0.  1.
         11    1    4    4    0    0 -0.11750995175E+01 -0.10081635128E+02 -0.13062586134E+03  0.13101960111E+03  0.00000000000E+00 0. -1.
        -12    1    4    4    0    0 -0.47899007359E+02 -0.11214741506E+03 -0.21531457009E+03  0.24745044293E+03  0.00000000000E+00 0.  1.
</event>
<event>
12    1  0.8331241E-002  0.2450460E+03  0.7818608E-02  0.1117482E+00
         21   -1    0    0  503  502  0.00000000000E+00  0.00000000000E+00  0.10308419890E+04  0.10308419890E+04  0.00000000000E+00 0. -1.
         21   -1    0    0  501  503 -0.00000000000E+00 -0.00000000000E+00 -0.57510305898E+02  0.57510305898E+02  0.00000000000E+00 0.  1.
          6    2    1    2  501    0  0.16633593392E+03 -0.14148369423E+02  0.55301697135E+03  0.60487627572E+03  0.17938706491E+03 0.  0.
         24    2    3    3    0    0  0.19237683857E+03 -0.23780049965E+00  0.42052087575E+03  0.46904940801E+03  0.78489716816E+02 0.  0.
         -6    2    1    2    0  502 -0.16633593392E+03  0.14148369423E+02  0.42031471177E+03  0.48347601919E+03  0.17092918106E+03 0.  0.
        -24    2    5    5    0    0 -0.29008549926E+02 -0.32380102669E+02  0.19765890146E+03  0.21772913027E+03  0.80292999842E+02 0.  0.
          5    1    3    3  501    0 -0.26040904652E+02 -0.13910568924E+02  0.13249609559E+03  0.13582686770E+03  0.47000000000E+01 0. -1.
        -13    1    4    4    0    0  0.42518938142E+02 -0.86249566279E+01  0.36352402923E+02  0.56601653473E+02  0.00000000000E+00 0.  1.
         14    1    4    4    0    0  0.14985790043E+03  0.83871561282E+01  0.38416847283E+03  0.41244775454E+03  0.00000000000E+00 0. -1.
         -5    1    5    5    0  502 -0.13732738399E+03  0.46528472092E+02  0.22265581031E+03  0.26574688893E+03  0.47000000000E+01 0.  1.
         11    1    6    6    0    0  0.45324554812E+01  0.51641520681E+01  0.14394967141E+03  0.14411356466E+03  0.00000000000E+00 0. -1.
        -12    1    6    6    0    0 -0.33541005407E+02 -0.37544254737E+02  0.53709230043E+02  0.73615565604E+02  0.00000000000E+00 0.  1.
</event>
<event>
12    1  0.8331241E-002  0.1886497E+03  0.7818608E-02  0.1160106E+00
         21   -1    0    0  501  502  0.00000000000E+00  0.00000000000E+00  0.18670195896E+03  0.18670195896E+03  0.00000000000E+00 0. -1.
         21   -1    0    0  502  503 -0.00000000000E+00 -0.00000000000E+00 -0.18880434565E+03  0.18880434565E+03  0.00000000000E+00 0. -1.
         -6    2    1    2    0  503  0.57416395180E+02  0.40227787896E+02 -0.39073013728E+01  0.18684798431E+03  0.17315306779E+03 0.  0.
        -24    2    3    3    0    0  0.55490538150E+02 -0.28977790941E+02 -0.38791051675E+02  0.10918147221E+03  0.80603573069E+02 0.  0.
          6    2    1    2  501    0 -0.57416395180E+02 -0.40227787896E+02  0.18049146807E+01  0.18865832030E+03  0.17513933524E+03 0.  0.
         24    2    5    5    0    0  0.11910539157E+02  0.32387630780E+02  0.85894460233E+01  0.87924300631E+02  0.80411967317E+02 0.  0.
          5    1    5    5  501    0 -0.69326934337E+02 -0.72615418676E+02 -0.67845313425E+01  0.10073401967E+03  0.47000000000E+01 0. -1.
        -11    1    6    6    0    0 -0.43405731662E+01  0.39649158241E+02  0.36995705953E+02  0.54402009003E+02  0.00000000000E+00 0.  1.
         12    1    6    6    0    0  0.16251112323E+02 -0.72615274603E+01 -0.28406259929E+02  0.33522291628E+02  0.00000000000E+00 0. -1.
         -5    1    3    3    0  503  0.19258570290E+01  0.69205578837E+02  0.34883750302E+02  0.77666512105E+02  0.47000000000E+01 0.  1.
         13    1    4    4    0    0  0.55639143092E+02  0.31881282422E+01 -0.50245509957E+02  0.75036588919E+02  0.00000000000E+00 0. -1.
        -14    1    4    4    0    0 -0.14860494199E+00 -0.32165919183E+02  0.11454458282E+02  0.34144883290E+02  0.00000000000E+00 0.  1.
</event>
<event>
12    1  0.8331241E-002  0.1736964E+03  0.7818608E-02  0.1174244E+00
         21   -1    0    0  503  502  0.00000000000E+00  0.00000000000E+00  0.66543653562E+02  0.66543653562E+02  0.00000000000E+00 0. -1.
         21   -1    0    0  501  503 -0.00000000000E+00 -0.00000000000E+00 -0.45347221589E+03  0.45347221589E+03  0.00000000000E+00 0. -1.
          6    2    1    2  501    0 -0.76552130846E+01 -0.13301417393E+02 -0.17533930279E+03  0.24626335730E+03  0.17223890400E+03 0.  0.
         24    2    3    3    0    0 -0.31115181189E+01  0.11287334130E+02 -0.19592377475E+03  0.21353626835E+03  0.84110207051E+02 0.  0.
         -6    2    1    2    0  502  0.76552130846E+01  0.13301417393E+02 -0.21158925954E+03  0.27375251215E+03  0.17301703144E+03 0.  0.
        -24    2    5    5    0    0 -0.20830210164E+02  0.66985657656E+02 -0.99915710829E+02  0.14652638091E+03  0.81029963870E+02 0.  0.
          5    1    3    3  501    0 -0.45436949657E+01 -0.24588751523E+02  0.20584471959E+02  0.32727088952E+02  0.47000000000E+01 0. -1.
        -13    1    4    4    0    0 -0.40761607117E+01 -0.35617618604E+02 -0.10922514423E+03  0.11495808790E+03  0.00000000000E+00 0.  1.
         14    1    4    4    0    0  0.96464259280E+00  0.46904952734E+02 -0.86698630517E+02  0.98578180445E+02  0.00000000000E+00 0. -1.
         -5    1    5    5    0  502  0.28485423248E+02 -0.53684240264E+02 -0.11167354871E+03  0.12722613124E+03  0.47000000000E+01 0.  1.
         11    1    6    6    0    0  0.58837683851E+01  0.29815819117E+02 -0.95872956353E+02  0.10057447768E+03  0.00000000000E+00 0. -1.
        -12    1    6    6    0    0 -0.26713978549E+02  0.37169838539E+02 -0.40427544760E+01  0.45951903233E+02  0.00000000000E+00 0.  1.
</event>
<event>
12    1  0.8331241E-002  0.1844847E+03  0.7818608E-02  0.1163626E+00
         21   -1    0    0  501  502  0.00000000000E+00  0.00000000000E+00  0.30136421938E+03  0.30136421938E+03  0.00000000000E+00 0.  1.
         21   -1    0    0  502  503 -0.00000000000E+00 -0.00000000000E+00 -0.11270604501E+03  0.11270604501E+03  0.00000000000E+00 0.  1.
         -6    2    1    2    0  503  0.70046562419E+02 -0.53679819165E+01  0.91907755019E+02  0.20611073959E+03  0.17058506794E+03 0.  0.
        -24    2    3    3    0    0  0.21290390232E+02  0.38394910141E+02 -0.17120765424E+01  0.91746768388E+02  0.80542463723E+02 0.  0.
          6    2    1    2  501    0 -0.70046562419E+02  0.53679819165E+01  0.96750419349E+02  0.20795952481E+03  0.17015047510E+03 0.  0.
         24    2    5    5    0    0  0.26443756426E+02  0.35622553345E+01  0.22313389514E+02  0.85989841319E+02  0.78640978767E+02 0.  0.
          5    1    5    5  501    0 -0.96490318845E+02  0.18057265820E+01  0.74437029835E+02  0.12196968349E+03  0.47000000000E+01 0. -1.
        -13    1    6    6    0    0 -0.21572476026E+02 -0.19125555561E+02  0.12443422836E+01  0.28856662751E+02  0.00000000000E+00 0.  1.
         14    1    6    6    0    0  0.48016232452E+02  0.22687810895E+02  0.21069047230E+02  0.57133178568E+02  0.00000000000E+00 0. -1.
         -5    1    3    3    0  503  0.48756172187E+02 -0.43762892058E+02  0.93619831561E+02  0.11436397120E+03  0.47000000000E+01 0.  1.
         13    1    4    4    0    0 -0.10222921383E+02 -0.11211912071E+02 -0.24413712075E+02  0.28744467836E+02  0.00000000000E+00 0. -1.
        -14    1    4    4    0    0  0.31513311615E+02  0.49606822213E+02  0.22701635533E+02  0.63002300552E+02  0.00000000000E+00 0.  1.
</event>
<event>
12    1  0.8331241E-002  0.2118004E+03  0.7818608E-02  0.1140212E+00
         21   -1    0    0  501  502  0.00000000000E+00  0.00000000000E+00  0.22059701974E+03  0.22059701974E+03  0.00000000000E+00 0. -1.
         21   -1    0    0  502  503 -0.00000000000E+00 -0.00000000000E+00 -0.22632038386E+03  0.22632038386E+03  0.00000000000E+00 0.  1.
         -6    2    1    2    0  503  0.12010835296E+03 -0.24660332657E+02 -0.74527662068E+02  0.22422160271E+03  0.17229859620E+03 0.  0.
        -24    2    3    3    0    0  0.12781954829E+03 -0.69410015607E+02 -0.56406141969E+02  0.17510463876E+03  0.79526061584E+02 0.  0.
          6    2    1    2  501    0 -0.12010835296E+03  0.24660332657E+02  0.68804297947E+02  0.22269580089E+03  0.17269985484E+03 0.  0.
         24    2    5    5    0    0 -0.27452572496E+02 -0.37805436423E+02  0.32158492214E+01  0.93038558260E+02  0.80392393155E+02 0.  0.
          5    1    5    5  501    0 -0.92655780468E+02  0.62465769079E+02  0.65588448725E+02  0.12965724263E+03  0.47000000000E+01 0. -1.
        -11    1    6    6    0    0 -0.29634988151E+02 -0.20486437774E+02  0.39079701543E+02  0.53152137568E+02  0.00000000000E+00 0.  1.
         12    1    6    6    0    0  0.21824156555E+01 -0.17318998649E+02 -0.35863852321E+02  0.39886420692E+02  0.00000000000E+00 0. -1.
         -5    1    3    3    0  503 -0.77111953272E+01  0.44749682950E+02 -0.18121520100E+02  0.49116963956E+02  0.47000000000E+01 0.  1.
         13    1    4    4    0    0  0.35080126926E+02 -0.32118649268E+02  0.17620034548E+02  0.50721677352E+02  0.00000000000E+00 0. -1.
        -14    1    4    4    0    0  0.92739421366E+02 -0.37291366339E+02 -0.74026176517E+02  0.12438296141E+03  0.00000000000E+00 0.  1.
</event>
<event>
12    1  0.8331241E-002  0.2640733E+03  0.7818608E-02  0.1104790E+00
         21   -1    0    0  501  502  0.00000000000E+00  0.00000000000E+00  0.51929197485E+03  0.51929197485E+03  0.00000000000E+00 0.  1.
         21   -1    0    0  502  503 -0.00000000000E+00 -0.00000000000E+00 -0.14270814845E+03  0.14270814845E+03  0.00000000000E+00 0.  1.
         -6    2    1    2    0  503 -0.17242803079E+03 -0.10125691240E+03  0.10659252796E+03  0.28433622295E+03  0.17175777290E+03 0.  0.
        -24    2    3    3    0    0 -0.13247315624E+03 -0.13530962341E+03  0.60997041259E+02  0.21464391681E+03  0.80582508452E+02 0.  0.
          6    2    1    2  501    0  0.17242803079E+03  0.10125691240E+03  0.26999129844E+03  0.37766390035E+03  0.17248284633E+03 0.  0.
         24    2    5    5    0    0  0.11509523459E+03  0.27318260495E+02  0.94569923788E+02  0.17879529435E+03  0.95032028355E+02 0.  0.
          5    1    5    5  501    0  0.57332796205E+02  0.73938651910E+02  0.17542137465E+03  0.19886860600E+03  0.47000000000E+01 0. -1.
        -13    1    6    6    0    0  0.73687406848E+02  0.60130450518E+02  0.41041363935E+02  0.10358522366E+03  0.00000000000E+00 0.  1.
         14    1    6    6    0    0  0.41407827742E+02 -0.32812190023E+02  0.53528559853E+02  0.75210070684E+02  0.00000000000E+00 0. -1.
         -5    1    3    3    0  503 -0.39954874552E+02  0.34052711008E+02  0.45595486698E+02  0.69692306137E+02  0.47000000000E+01 0.  1.
         13    1    4    4    0    0  0.61339734396E+01 -0.29181705711E+01  0.16539902319E+02  0.17880428360E+02  0.00000000000E+00 0. -1.
        -14    1    4    4    0    0 -0.13860712968E+03 -0.13239145284E+03  0.44457138941E+02  0.19676348845E+03  0.00000000000E+00 0.  1.
</event>
<event>
12    1  0.8331241E-002  0.1798053E+03  0.7818608E-02  0.1169656E+00
         21   -1    0    0  503  502  0.00000000000E+00  0.00000000000E+00  0.31268613628E+02  0.31268613628E+02  0.00000000000E+00 0. -1.
         21   -1    0    0  501  503 -0.00000000000E+00 -0.00000000000E+00 -0.11361807010E+04  0.11361807010E+04  0.00000000000E+00 0. -1.
          6    2    1    2  501    0 -0.52048353207E+02  0.16860449014E+02 -0.74851854096E+03  0.76826727915E+03  0.16419896540E+03 0.  0.
         24    2    3    3    0    0 -0.62172054751E+01  0.67946706615E+02 -0.47167395342E+03  0.48300368970E+03  0.78491001654E+02 0.  0.
         -6    2    1    2    0  502  0.52048353207E+02 -0.16860449014E+02 -0.35639354638E+03  0.39918203545E+03  0.17127939663E+03 0.  0.
        -24    2    5    5    0    0 -0.17319409339E+01  0.32633446509E+02 -0.92938684978E+02  0.12573639235E+03  0.78128738280E+02 0.  0.
          5    1    3    3  501    0 -0.45831147732E+02 -0.51086257602E+02 -0.27684458753E+03  0.28526358945E+03  0.47000000000E+01 0. -1.
        -11    1    4    4    0    0 -0.21726331115E+02  0.29255757276E+02 -0.67696362301E+02  0.76881273834E+02  0.00000000000E+00 0.  1.
         12    1    4    4    0    0  0.15509125640E+02  0.38690949340E+02 -0.40397759112E+03  0.40612241587E+03  0.00000000000E+00 0. -1.
         -5    1    5    5    0  502  0.53780294141E+02 -0.49493895523E+02 -0.26345486140E+03  0.27344564310E+03  0.47000000000E+01 0.  1.
         11    1    6    6    0    0  0.20238569371E+02  0.20034790089E+01  0.48725445904E+01  0.20913041603E+02  0.00000000000E+00 0. -1.
        -12    1    6    6    0    0 -0.21970510304E+02  0.30629967500E+02 -0.97811229568E+02  0.10482335075E+03  0.00000000000E+00 0.  1.
</event>
<event>
12    1  0.8331241E-002  0.1809219E+03  0.7818608E-02  0.1167038E+00
         21   -1    0    0  501  502  0.00000000000E+00  0.00000000000E+00  0.19153178316E+03  0.19153178316E+03  0.00000000000E+00 0.  1.
         21   -1    0    0  502  503 -0.00000000000E+00 -0.00000000000E+00 -0.25571612672E+03  0.25571612672E+03  0.00000000000E+00 0.  1.
         -6    2    1    2    0  503 -0.20927764957E+02  0.52644188056E+02 -0.16121976262E+03  0.24194664979E+03  0.17128043555E+03 0.  0.
        -24    2    3    3    0    0 -0.68386229698E+02  0.22151572330E+02 -0.52806634969E+02  0.11964537532E+03  0.79744006486E+02 0.  0.
          6    2    1    2  501    0  0.20927764957E+02 -0.52644188056E+02  0.97035419058E+02  0.20530126009E+03  0.17182361002E+03 0.  0.
         24    2    5    5    0    0  0.36912364487E+02 -0.99039933679E+02  0.68469504345E+02  0.14832605393E+03  0.78365261010E+02 0.  0.
          5    1    5    5  501    0 -0.15984599530E+02  0.46395745623E+02  0.28565914713E+02  0.56975206164E+02  0.47000000000E+01 0. -1.
        -13    1    6    6    0    0  0.15276612944E+01 -0.95971603991E+02  0.47721342625E+02  0.10719239275E+03  0.00000000000E+00 0.  1.
         14    1    6    6    0    0  0.35384703192E+02 -0.30683296887E+01  0.20748161720E+02  0.41133661177E+02  0.00000000000E+00 0. -1.
         -5    1    3    3    0  503  0.47458464741E+02  0.30492615726E+02 -0.10841312765E+03  0.12230127447E+03  0.47000000000E+01 0.  1.
         13    1    4    4    0    0 -0.37571278562E+02  0.46989283557E+01 -0.70524689839E+02  0.80046316451E+02  0.00000000000E+00 0. -1.
        -14    1    4    4    0    0 -0.30814951136E+02  0.17452643974E+02  0.17718054870E+02  0.39599058872E+02  0.00000000000E+00 0.  1.
</event>
<event>
12    1  0.8331241E-002  0.1862821E+03  0.7818608E-02  0.1162296E+00
         21   -1    0    0  501  502  0.00000000000E+00  0.00000000000E+00  0.47537424253E+03  0.47537424253E+03  0.00000000000E+00 0. -1.
         21   -1    0    0  502  503 -0.00000000000E+00 -0.00000000000E+00 -0.93564802753E+02  0.93564802753E+02  0.00000000000E+00 0. -1.
         -6    2    1    2    0  503 -0.53032733108E+02  0.10958822154E+02  0.54417294446E+02  0.19226060443E+03  0.17626778355E+03 0.  0.
        -24    2    3    3    0    0 -0.56894169394E+01 -0.94925736170E+01 -0.37968304677E+02  0.86351029324E+02  0.76762163116E+02 0.  0.
          6    2    1    2  501    0  0.53032733108E+02 -0.10958822154E+02  0.32739214533E+03  0.37667844085E+03  0.17823710167E+03 0.  0.
         24    2    5    5    0    0 -0.32372235740E+01 -0.29821945837E+02  0.60609392438E+02  0.10333387313E+03  0.78131701725E+02 0.  0.
          5    1    5    5  501    0  0.56269956682E+02  0.18863123683E+02  0.26678275289E+03  0.27334456772E+03  0.47000000000E+01 0. -1.
        -13    1    6    6    0    0  0.31007236873E+02 -0.33964644614E+02  0.20273126689E+02  0.50259780023E+02  0.00000000000E+00 0.  1.
         14    1    6    6    0    0 -0.34244460447E+02  0.41426987774E+01  0.40336265749E+02  0.53074093107E+02  0.00000000000E+00 0. -1.
         -5    1    3    3    0  503 -0.47343316169E+02  0.20451395771E+02  0.92385599123E+02  0.10590957511E+03  0.47000000000E+01 0.  1.
         13    1    4    4    0    0 -0.32755335871E+02 -0.16748376192E+02 -0.44339411082E+02  0.57614264798E+02  0.00000000000E+00 0. -1.
        -14    1    4    4    0    0  0.27065918931E+02  0.72558025753E+01  0.63711064051E+01  0.28736764526E+02  0.00000000000E+00 0.  1.
</event>
<event>
12    1  0.8331241E-002  0.1860517E+03  0.7818608E-02  0.1163996E+00
         21   -1    0    0  501  502  0.00000000000E+00  0.00000000000E+00  0.87004384058E+02  0.87004384058E+02  0.00000000000E+00 0. -1.
         21   -1    0    0  502  503 -0.00000000000E+00 -0.00000000000E+00 -0.63012238199E+03  0.63012238199E+03  0.00000000000E+00 0. -1.
         -6    2    1    2    0  503 -0.50284999963E+02  0.39964787709E+02 -0.50076900511E+03  0.53421423096E+03  0.17461237817E+03 0.  0.
        -24    2    3    3    0    0  0.26771644924E+02  0.21042614836E+02 -0.13562547848E+03  0.16051962278E+03  0.78821102975E+02 0.  0.
          6    2    1    2  501    0  0.50284999963E+02 -0.39964787709E+02 -0.42348992827E+02  0.18291253508E+03  0.16594515003E+03 0.  0.
         24    2    5    5    0    0 -0.20649893318E+02  0.19022473984E+02 -0.19337068835E+02  0.87713297835E+02  0.80817249245E+02 0.  0.
          5    1    5    5  501    0  0.70934893282E+02 -0.58987261693E+02 -0.23011923992E+02  0.95199237249E+02  0.47000000000E+01 0. -1.
        -11    1    6    6    0    0 -0.32684236834E+02 -0.22925000930E+02  0.14391462889E+00  0.39922872097E+02  0.00000000000E+00 0.  1.
         12    1    6    6    0    0  0.12034343516E+02  0.41947474914E+02 -0.19480983464E+02  0.47790425738E+02  0.00000000000E+00 0. -1.
         -5    1    3    3    0  503 -0.77056644887E+02  0.18922172873E+02 -0.36514352662E+03  0.37369460818E+03  0.47000000000E+01 0.  1.
         13    1    4    4    0    0 -0.72504785101E+00 -0.12830568408E+02 -0.10825733628E+03  0.10901742997E+03  0.00000000000E+00 0. -1.
        -14    1    4    4    0    0  0.27496692775E+02  0.33873183244E+02 -0.27368142205E+02  0.51502192811E+02  0.00000000000E+00 0.  1.
</event>
<event>
12    1  0.8331241E-002  0.1816693E+03  0.7818608E-02  0.1166226E+00
         21   -1    0    0  501  502  0.00000000000E+00  0.00000000000E+00  0.18080926297E+04  0.18080926297E+04  0.00000000000E+00 0.  1.
         21   -1    0    0  502  503 -0.00000000000E+00 -0.00000000000E+00 -0.31839236875E+02  0.31839236875E+02  0.00000000000E+00 0. -1.
         -6    2    1    2    0  503 -0.49376802119E+02  0.28783989744E+02  0.28708304808E+03  0.33973579512E+03  0.17244462108E+03 0.  0.
        -24    2    3    3    0    0 -0.33795741109E+02 -0.21763428954E+01  0.48129545047E+02  0.98235943629E+02  0.78657224263E+02 0.  0.
          6    2    1    2  501    0  0.49376802119E+02 -0.28783989744E+02  0.14891703447E+04  0.15001960715E+04  0.17231758611E+03 0.  0.
         24    2    5    5    0    0  0.75746744042E+02 -0.47835217697E+02  0.68887417699E+03  0.69922517982E+03  0.79639456819E+02 0.  0.
          5    1    5    5  501    0 -0.26369941923E+02  0.19051227953E+02  0.80029616776E+03  0.80097089164E+03  0.47000000000E+01 0. -1.
        -11    1    6    6    0    0 -0.20103453410E+01  0.15593465686E+02  0.17082049376E+03  0.17154252752E+03  0.00000000000E+00 0.  1.
         12    1    6    6    0    0  0.77757089383E+02 -0.63428683382E+02  0.51805368323E+03  0.52768265229E+03  0.00000000000E+00 0. -1.
         -5    1    3    3    0  503 -0.15581061010E+02  0.30960332639E+02  0.23895350303E+03  0.24149985149E+03  0.47000000000E+01 0.  1.
         13    1    4    4    0    0 -0.53823799505E+02  0.95031636955E+01  0.51147315155E+02  0.74855590045E+02  0.00000000000E+00 0. -1.
        -14    1    4    4    0    0  0.20028058396E+02 -0.11679506591E+02 -0.30177701078E+01  0.23380353584E+02  0.00000000000E+00 0.  1.
</event>
<event>
12    1  0.8331241E-002  0.2170063E+03  0.7818608E-02  0.1136231E+00
         21   -1    0    0  501  502  0.00000000000E+00  0.00000000000E+00  0.74621067188E+02  0.74621067188E+02  0.00000000000E+00 0. -1.
         21   -1    0    0  502  503 -0.00000000000E+00 -0.00000000000E+00 -0.71114298751E+03  0.71114298751E+03  0.00000000000E+00 0.  1.
         -6    2    1    2    0  503 -0.10215969511E+03  0.83873476389E+02 -0.45162290914E+03  0.50105386644E+03  0.17210567007E+03 0.  0.
        -24    2    3    3    0    0  0.35644254545E+01  0.40750109849E+02 -0.28807545680E+03  0.30153676547E+03  0.79143385969E+02 0.  0.
          6    2    1    2  501    0  0.10215969511E+03 -0.83873476389E+02 -0.18489901118E+03  0.28471018825E+03  0.17146685864E+03 0.  0.
         24    2    5    5    0    0  0.10026335152E+03 -0.83817861140E+01 -0.65689127960E+02  0.14351642891E+03  0.78478722201E+02 0.  0.
          5    1    5    5  501    0  0.18963435905E+01 -0.75491690275E+02 -0.11920988322E+03  0.14119375934E+03  0.47000000000E+01 0. -1.
        -13    1    6    6    0    0  0.39636826391E+02  0.25715026470E+02 -0.56030211196E+02  0.73292053863E+02  0.00000000000E+00 0.  1.
         14    1    6    6    0    0  0.60626525130E+02 -0.34096812584E+02 -0.96589167634E+01  0.70224375047E+02  0.00000000000E+00 0. -1.
         -5    1    3    3    0  503 -0.10572412057E+03  0.43123366539E+02 -0.16354745234E+03  0.19951710097E+03  0.47000000000E+01 0.  1.
         13    1    4    4    0    0 -0.98697887289E+01  0.38967837245E+02 -0.55297196302E+02  0.68364354659E+02  0.00000000000E+00 0. -1.
        -14    1    4    4    0    0  0.13434214183E+02  0.17822726038E+01 -0.23277826049E+03  0.23317241081E+03  0.00000000000E+00 0.  1.
</event>
<event>
12    1  0.8331241E-002  0.3296175E+03  0.7818608E-02  0.1071336E+00
         21   -1    0    0  503  502  0.00000000000E+00  0.00000000000E+00  0.10142883563E+04  0.10142883563E+04  0.00000000000E+00 0. -1.
         21   -1    0    0  501  503 -0.00000000000E+00 -0.00000000000E+00 -0.10806402224E+03  0.10806402224E+03  0.00000000000E+00 0.  1.
          6    2    1    2  501    0  0.83938112784E+02  0.26837188442E+03  0.39837090187E+03  0.51705615966E+03  0.17198436459E+03 0.  0.
         24    2    3    3    0    0  0.34505098001E+02  0.26586457948E+03  0.33788193558E+03  0.43875600275E+03  0.80424195062E+02 0.  0.
         -6    2    1    2    0  502 -0.83938112784E+02 -0.26837188442E+03  0.50785343223E+03  0.60529621891E+03  0.17146232496E+03 0.  0.
        -24    2    5    5    0    0 -0.89819817593E+02 -0.14780788988E+03  0.20821841550E+03  0.28222733387E+03  0.79891097686E+02 0.  0.
          5    1    3    3  501    0  0.49433014783E+02  0.25073049357E+01  0.60488966288E+02  0.78300156903E+02  0.47000000000E+01 0. -1.
        -11    1    4    4    0    0 -0.34112920733E+01  0.60868474243E+02  0.32741356579E+02  0.69199743503E+02  0.00000000000E+00 0.  1.
         12    1    4    4    0    0  0.37916390074E+02  0.20499610524E+03  0.30514057900E+03  0.36955625925E+03  0.00000000000E+00 0. -1.
         -5    1    5    5    0  502  0.58817048092E+01 -0.12056399454E+03  0.29963501673E+03  0.32306888504E+03  0.47000000000E+01 0.  1.
         13    1    6    6    0    0 -0.40643729679E+02 -0.72420574099E+01  0.52083561327E+02  0.66460947317E+02  0.00000000000E+00 0. -1.
        -14    1    6    6    0    0 -0.49176087914E+02 -0.14056583247E+03  0.15613485417E+03  0.21576638656E+03  0.00000000000E+00 0.  1.
</event>
<event>
12    1  0.8331241E-002  0.1880790E+03  0.7818608E-02  0.1160299E+00
         21   -1    0    0  503  502  0.00000000000E+00  0.00000000000E+00  0.21217049195E+02  0.21217049195E+02  0.00000000000E+00 0. -1.
         21   -1    0    0  501  503 -0.00000000000E+00 -0.00000000000E+00 -0.17371628120E+04  0.17371628120E+04  0.00000000000E+00 0. -1.
          6    2    1    2  501    0  0.47255780360E+02 -0.59274632581E+02 -0.10397921404E+04  0.10566652254E+04  0.17212528142E+03 0.  0.
         24    2    3    3    0    0  0.58159193068E+02 -0.61806437265E+02 -0.10383129185E+04  0.10444352401E+04  0.74489775056E+02 0.  0.
         -6    2    1    2    0  502 -0.47255780360E+02  0.59274632581E+02 -0.67615362238E+03  0.70171463576E+03  0.17167736642E+03 0.  0.
        -24    2    5    5    0    0 -0.56817336309E+02  0.22288178609E+02 -0.19909217480E+03  0.22310296029E+03  0.80076614649E+02 0.  0.
          5    1    3    3  501    0 -0.10903412707E+02  0.25318046837E+01 -0.14792219063E+01  0.12229985326E+02  0.47000000000E+01 0. -1.
        -13    1    4    4    0    0  0.20389517421E+01 -0.52189466264E+02 -0.63164057142E+03  0.63379626788E+03  0.00000000000E+00 0.  1.
         14    1    4    4    0    0  0.56120241325E+02 -0.96169710006E+01 -0.40667234711E+03  0.41063897224E+03  0.00000000000E+00 0. -1.
         -5    1    5    5    0  502  0.95615559491E+01  0.36986453972E+02 -0.47706144757E+03  0.47861167546E+03  0.47000000000E+01 0.  1.
         11    1    6    6    0    0  0.10387034535E+02  0.30059484184E+02 -0.80766703315E+02  0.86802784749E+02  0.00000000000E+00 0. -1.
        -12    1    6    6    0    0 -0.67204370844E+02 -0.77713055750E+01 -0.11832547149E+03  0.13630017554E+03  0.00000000000E+00 0.  1.
</event>
<event>
12    1  0.8331241E-002  0.2018927E+03  0.7818608E-02  0.1149962E+00
         21   -1    0    0  501  502  0.00000000000E+00  0.00000000000E+00  0.21291551787E+03  0.21291551787E+03  0.00000000000E+00 0.  1.
         21   -1    0    0  502  503 -0.00000000000E+00 -0.00000000000E+00 -0.75145342803E+03  0.75145342803E+03  0.00000000000E+00 0.  1.
         -6    2    1    2    0  503  0.10104899146E+03  0.29632717399E+02 -0.68986328301E+03  0.71879899307E+03  0.17225459812E+03 0.  0.
        -24    2    3    3    0    0  0.12685059892E+03 -0.26443168948E+00 -0.62481491435E+03  0.64255633613E+03  0.79961387799E+02 0.  0.
          6    2    1    2  501    0 -0.10104899146E+03 -0.29632717399E+02  0.15132537285E+03  0.24556995283E+03  0.16222279941E+03 0.  0.
         24    2    5    5    0    0 -0.12063234375E+03 -0.48449174508E+02  0.96353201031E+02  0.18407526671E+03  0.87751237010E+02 0.  0.
          5    1    5    5  501    0  0.19583352297E+02  0.18816457109E+02  0.54972171822E+02  0.61494686113E+02  0.47000000000E+01 0. -1.
        -11    1    6    6    0    0 -0.73296630715E+02  0.10209413378E+02  0.19723398212E+02  0.76587470468E+02  0.00000000000E+00 0.  1.
         12    1    6    6    0    0 -0.47335713040E+02 -0.58658587886E+02  0.76629802818E+02  0.10748779625E+03  0.00000000000E+00 0. -1.
         -5    1    3    3    0  503 -0.25801607460E+02  0.29897149088E+02 -0.65048368663E+02  0.76242656937E+02  0.47000000000E+01 0.  1.
         11    1    4    4    0    0  0.36107237129E+01  0.17206652718E+01  0.14674691477E+01  0.42604554226E+01  0.00000000000E+00 0. -1.
        -12    1    4    4    0    0  0.12323987520E+03 -0.19850969613E+01 -0.62628238350E+03  0.63829588071E+03  0.00000000000E+00 0.  1.
</event>
<event>
12    1  0.8331241E-002  0.2958631E+03  0.7818608E-02  0.1087347E+00
         21   -1    0    0  501  502  0.00000000000E+00  0.00000000000E+00  0.44374502541E+03  0.44374502541E+03  0.00000000000E+00 0.  1.
         21   -1    0    0  502  503 -0.00000000000E+00 -0.00000000000E+00 -0.34941052580E+03  0.34941052580E+03  0.00000000000E+00 0.  1.
         -6    2    1    2    0  503  0.23996904342E+03 -0.15122303937E+02 -0.21462020268E+03  0.36538458674E+03  0.17213436307E+03 0.  0.
        -24    2    3    3    0    0  0.22944300932E+03 -0.54223930514E+02 -0.15585134963E+03  0.29386114524E+03  0.80500933731E+02 0.  0.
          6    2    1    2  501    0 -0.23996904342E+03  0.15122303937E+02  0.30895470230E+03  0.42777096447E+03  0.17239827173E+03 0.  0.
         24    2    5    5    0    0 -0.20404502938E+03 -0.33280247133E+01  0.31805055723E+03  0.38610834347E+03  0.79234122557E+02 0.  0.
          5    1    5    5  501    0 -0.35924014042E+02  0.18450328650E+02 -0.90958549310E+01  0.41662621007E+02  0.47000000000E+01 0. -1.
        -11    1    6    6    0    0 -0.16701155667E+03 -0.32928107051E+02  0.23047669245E+03  0.28652508801E+03  0.00000000000E+00 0.  1.
         12    1    6    6    0    0 -0.37033472711E+02  0.29600082338E+02  0.87573864781E+02  0.99583255460E+02  0.00000000000E+00 0. -1.
         -5    1    3    3    0  503  0.10526034101E+02  0.39101626577E+02 -0.58768853055E+02  0.71523441502E+02  0.47000000000E+01 0.  1.
         11    1    4    4    0    0  0.17616610936E+03 -0.41274706661E+02 -0.74312363505E+02  0.19560272714E+03  0.00000000000E+00 0. -1.
        -12    1    4    4    0    0  0.53276899964E+02 -0.12949223853E+02 -0.81538986122E+02  0.98258418092E+02  0.00000000000E+00 0.  1.
</event>
<event>
12    1  0.8331241E-002  0.2486801E+03  0.7818608E-02  0.1114599E+00
         21   -1    0    0  503  502  0.00000000000E+00  0.00000000000E+00  0.37113609375E+02  0.37113609375E+02  0.00000000000E+00 0.  1.
         21   -1    0    0  501  503 -0.00000000000E+00 -0.00000000000E+00 -0.22910017116E+04  0.22910017116E+04  0.00000000000E+00 0. -1.
          6    2    1    2  501    0  0.62439882348E+02 -0.16370433979E+03 -0.17486981909E+04  0.17662919280E+04  0.17647652026E+03 0.  0.
         24    2    3    3    0    0  0.82359861856E+02 -0.16318444779E+03 -0.11417476907E+04  0.11589962212E+04  0.79196846597E+02 0.  0.
         -6    2    1    2    0  502 -0.62439882348E+02  0.16370433979E+03 -0.50518991136E+03  0.56182339304E+03  0.17242629918E+03 0.  0.
        -24    2    5    5    0    0 -0.46648341188E+02  0.13859182078E+03 -0.50525565777E+03  0.53178831845E+03  0.78305653710E+02 0.  0.
          5    1    3    3  501    0 -0.19919979507E+02 -0.51989199988E+00 -0.60695050015E+03  0.60729570681E+03  0.47000000000E+01 0. -1.
        -11    1    4    4    0    0  0.38072843928E+02 -0.13473765503E+03 -0.94556890552E+03  0.95587882716E+03  0.00000000000E+00 0.  1.
         12    1    4    4    0    0  0.44287017927E+02 -0.28446792757E+02 -0.19617878521E+03  0.20311739400E+03  0.00000000000E+00 0. -1.
         -5    1    5    5    0  502 -0.15791541160E+02  0.25112519006E+02  0.65746409415E-01  0.30035074590E+02  0.47000000000E+01 0.  1.
         11    1    6    6    0    0  0.20632901171E+02  0.39078829691E+02 -0.17045655519E+03  0.17609176229E+03  0.00000000000E+00 0. -1.
        -12    1    6    6    0    0 -0.67281242358E+02  0.99512991089E+02 -0.33479910259E+03  0.35569655616E+03  0.00000000000E+00 0.  1.
</event>
<event>
12    1  0.8331241E-002  0.1894031E+03  0.7818608E-02  0.1159106E+00
         21   -1    0    0  501  502  0.00000000000E+00  0.00000000000E+00  0.18615634783E+02  0.18615634783E+02  0.00000000000E+00 0. -1.
         21   -1    0    0  502  503 -0.00000000000E+00 -0.00000000000E+00 -0.19223344982E+04  0.19223344982E+04  0.00000000000E+00 0. -1.
         -6    2    1    2    0  503  0.28874827033E+02  0.72535223942E+02 -0.95120429020E+03  0.96978715313E+03  0.17205349845E+03 0.  0.
        -24    2    3    3    0    0  0.44997087497E+02  0.53338129177E+02 -0.30077892081E+03  0.31886188332E+03  0.79594268154E+02 0.  0.
          6    2    1    2  501    0 -0.28874827033E+02 -0.72535223942E+02 -0.95251457319E+03  0.97116297983E+03  0.17256421094E+03 0.  0.
         24    2    5    5    0    0 -0.80937042318E+02 -0.35825970671E+02 -0.75456930014E+03  0.76316667058E+03  0.72209648814E+02 0.  0.
          5    1    5    5  501    0  0.52062215285E+02 -0.36709253271E+02 -0.19794527306E+03  0.20799630925E+03  0.47000000000E+01 0. -1.
        -11    1    6    6    0    0 -0.32652169986E+02 -0.25742652941E+01 -0.85906586633E+02  0.91938744138E+02  0.00000000000E+00 0.  1.
         12    1    6    6    0    0 -0.48284872332E+02 -0.33251705377E+02 -0.66866271350E+03  0.67122792644E+03  0.00000000000E+00 0. -1.
         -5    1    3    3    0  503 -0.16122260464E+02  0.19197094765E+02 -0.65042536939E+03  0.65092526981E+03  0.47000000000E+01 0.  1.
         13    1    4    4    0    0 -0.21200210818E+02  0.40186200453E+01 -0.41739499763E+02  0.46987062967E+02  0.00000000000E+00 0. -1.
        -14    1    4    4    0    0  0.66197298315E+02  0.49319509132E+02 -0.25903942104E+03  0.27187482035E+03  0.00000000000E+00 0.  1.
</event>
<event>
12    1  0.8331241E-002  0.1789062E+03  0.7818608E-02  0.1169380E+00
         21   -1    0    0  503  502  0.00000000000E+00  0.00000000000E+00  0.23149476299E+03  0.23149476299E+03  0.00000000000E+00 0. -1.
         21   -1    0    0  501  503 -0.00000000000E+00 -0.00000000000E+00 -0.14165853548E+03  0.14165853548E+03  0.00000000000E+00 0. -1.
          6    2    1    2  501    0  0.39779089311E+01  0.46669570195E+02  0.80254843348E+02  0.19608231903E+03  0.17266604592E+03 0.  0.
         24    2    3    3    0    0 -0.42296910068E+02  0.73929386337E+02  0.79784250138E+02  0.14216786914E+03  0.81188630237E+02 0.  0.
         -6    2    1    2    0  502 -0.39779089311E+01 -0.46669570195E+02  0.95813841615E+01  0.17707097943E+03  0.17049473978E+03 0.  0.
        -24    2    5    5    0    0 -0.40603676468E+02  0.46277536498E+01  0.49662662226E+02  0.10222806973E+03  0.79461459686E+02 0.  0.
          5    1    3    3  501    0  0.46274819000E+02 -0.27259816142E+02  0.47059321069E+00  0.53914449895E+02  0.47000000000E+01 0. -1.
        -11    1    4    4    0    0 -0.54568878061E+02  0.14369220083E+02  0.44475091287E+02  0.71848943510E+02  0.00000000000E+00 0.  1.
         12    1    4    4    0    0  0.12271967992E+02  0.59560166255E+02  0.35309158851E+02  0.70318925628E+02  0.00000000000E+00 0. -1.
         -5    1    5    5    0  502  0.36625767537E+02 -0.51297323845E+02 -0.40081278065E+02  0.74842909702E+02  0.47000000000E+01 0.  1.
         11    1    6    6    0    0  0.69962954820E+01 -0.28367221637E+02  0.27776003886E+02  0.40313196422E+02  0.00000000000E+00 0. -1.
        -12    1    6    6    0    0 -0.47599971950E+02  0.32994975287E+02  0.21886658340E+02  0.61914873311E+02  0.00000000000E+00 0.  1.
</event>
<event>
12    1  0.8331241E-002  0.1833176E+03  0.7818608E-02  0.1164881E+00
         21   -1    0    0  503  502  0.00000000000E+00  0.00000000000E+00  0.62299057006E+03  0.62299057006E+03  0.00000000000E+00 0.  1.
         21   -1    0    0  501  503 -0.00000000000E+00 -0.00000000000E+00 -0.10058125542E+03  0.10058125542E+03  0.00000000000E+00 0. -1.
          6    2    1    2  501    0  0.32344936831E+02 -0.53988216067E+02  0.13622703677E+02  0.18276765247E+03  0.17104828067E+03 0.  0.
         24    2    3    3    0    0 -0.26828805855E+02 -0.65677445371E+02  0.43672146588E+02  0.11521597651E+03  0.79587393484E+02 0.  0.
         -6    2    1    2    0  502 -0.32344936831E+02  0.53988216067E+02  0.50878661097E+03  0.54080417301E+03  0.17217553726E+03 0.  0.
        -24    2    5    5    0    0  0.17401005717E+02  0.71991788363E+02  0.19801855239E+03  0.22553022285E+03  0.78529750653E+02 0.  0.
          5    1    3    3  501    0  0.59173742686E+02  0.11689229304E+02 -0.30049442911E+02  0.67551675956E+02  0.47000000000E+01 0. -1.
        -11    1    4    4    0    0  0.20008154300E+02 -0.52567915652E+02  0.13047022856E+02  0.57740252856E+02  0.00000000000E+00 0.  1.
         12    1    4    4    0    0 -0.46836960154E+02 -0.13109529719E+02  0.30625123732E+02  0.57475723654E+02  0.00000000000E+00 0. -1.
         -5    1    5    5    0  502 -0.49745942548E+02 -0.18003572296E+02  0.31076805858E+03  0.31527395016E+03  0.47000000000E+01 0.  1.
         13    1    6    6    0    0  0.37930917249E+02  0.15665332135E+02  0.12199251680E+03  0.12871026093E+03  0.00000000000E+00 0. -1.
        -14    1    6    6    0    0 -0.20529911532E+02  0.56326456228E+02  0.76026035592E+02  0.96819961922E+02  0.00000000000E+00 0.  1.
</event>
<event>
12    1  0.8331241E-002  0.2464390E+03  0.7818608E-02  0.1115654E+00
         21   -1    0    0  501  502  0.00000000000E+00  0.00000000000E+00  0.50869432812E+02  0.50869432812E+02  0.00000000000E+00 0.  1.
         21   -1    0    0  502  503 -0.00000000000E+00 -0.00000000000E+00 -0.17434487396E+04  0.17434487396E+04  0.00000000000E+00 0. -1.
         -6    2    1    2    0  503  0.66147775677E+01 -0.17523205946E+03 -0.13516370598E+04  0.13739195432E+04  0.17315351536E+03 0.  0.
        -24    2    3    3    0    0 -0.42783498363E+02 -0.36670590814E+02 -0.61685302570E+03  0.62454037550E+03  0.79798905660E+02 0.  0.
          6    2    1    2  501    0 -0.66147775677E+01  0.17523205946E+03 -0.34094224697E+03  0.42039862917E+03  0.17246263856E+03 0.  0.
         24    2    5    5    0    0 -0.33266277473E+02  0.17763123009E+03 -0.19654560726E+03  0.27346824421E+03  0.59120265019E+02 0.  0.
          5    1    5    5  501    0  0.26651499905E+02 -0.23991706342E+01 -0.14439663971E+03  0.14693038496E+03  0.47000000000E+01 0. -1.
        -13    1    6    6    0    0  0.16506881964E+01  0.10268376763E+03 -0.78108537661E+02  0.12902567404E+03  0.00000000000E+00 0.  1.
         14    1    6    6    0    0 -0.34916965669E+02  0.74947462461E+02 -0.11843706960E+03  0.14444257017E+03  0.00000000000E+00 0. -1.
         -5    1    3    3    0  503  0.49398275931E+02 -0.13856146864E+03 -0.73478403412E+03  0.74937916775E+03  0.47000000000E+01 0.  1.
         13    1    4    4    0    0 -0.54280506863E+02 -0.53805785725E+02 -0.45452517011E+03  0.46090624455E+03  0.00000000000E+00 0. -1.
        -14    1    4    4    0    0  0.11497008499E+02  0.17135194911E+02 -0.16232785560E+03  0.16363413095E+03  0.00000000000E+00 0.  1.
</event>
<event>
12    1  0.8331241E-002  0.1886868E+03  0.7818608E-02  0.1160086E+00
         21   -1    0    0  501  502  0.00000000000E+00  0.00000000000E+00  0.26001960862E+03  0.26001960862E+03  0.00000000000E+00 0.  1.
         21   -1    0    0  502  503 -0.00000000000E+00 -0.00000000000E+00 -0.15400393001E+03  0.15400393001E+03  0.00000000000E+00 0.  1.
         -6    2    1    2    0  503 -0.25219083380E+00  0.77595764506E+02 -0.18895374353E+02  0.18773724713E+03  0.16990312686E+03 0.  0.
        -24    2    3    3    0    0 -0.18286966103E+02 -0.16938265814E+02 -0.27311624132E+02  0.91016725684E+02  0.83167310666E+02 0.  0.
          6    2    1    2  501    0  0.25219083380E+00 -0.77595764506E+02  0.12491105296E+03  0.22628629151E+03  0.17199287283E+03 0.  0.
         24    2    5    5    0    0  0.48495347606E+02 -0.90265271501E+02  0.11987826901E+03  0.17593415653E+03  0.77989807501E+02 0.  0.
          5    1    5    5  501    0 -0.48243156772E+02  0.12669506995E+02  0.50327839513E+01  0.50352134981E+02  0.47000000000E+01 0. -1.
        -13    1    6    6    0    0 -0.17726925151E+02 -0.11099616597E+02  0.50069759989E+01  0.21506165920E+02  0.00000000000E+00 0.  1.
         14    1    6    6    0    0  0.66222272757E+02 -0.79165654904E+02  0.11487129301E+03  0.15442799061E+03  0.00000000000E+00 0. -1.
         -5    1    3    3    0  503  0.18034775269E+02  0.94534030320E+02  0.84162497794E+01  0.96720521442E+02  0.47000000000E+01 0.  1.
         11    1    4    4    0    0 -0.37364499415E+02  0.21957252857E+02 -0.10882875371E+02  0.44684043527E+02  0.00000000000E+00 0. -1.
        -12    1    4    4    0    0  0.19077533312E+02 -0.38895518672E+02 -0.16428748761E+02  0.46332682157E+02  0.00000000000E+00 0.  1.
</event>
<event>
12    1  0.8331241E-002  0.2138773E+03  0.7818608E-02  0.1138754E+00
         21   -1    0    0  503  502  0.00000000000E+00  0.00000000000E+00  0.18098513521E+02  0.18098513521E+02  0.00000000000E+00 0. -1.
         21   -1    0    0  501  503 -0.00000000000E+00 -0.00000000000E+00 -0.26377600841E+04  0.26377600841E+04  0.00000000000E+00 0. -1.
          6    2    1    2  501    0 -0.67803297296E+02  0.10781629859E+03 -0.10254630252E+04  0.10475294250E+04  0.17181920378E+03 0.  0.
         24    2    3    3    0    0 -0.91883376074E+02  0.36419641619E+02 -0.44829043705E+03  0.46544041175E+03  0.76821324121E+02 0.  0.
         -6    2    1    2    0  502  0.67803297296E+02 -0.10781629859E+03 -0.15941985453E+04  0.16083291726E+04  0.17038803980E+03 0.  0.
        -24    2    5    5    0    0  0.28879696148E+02 -0.61650114828E+01 -0.38738432269E+03  0.39660697305E+03  0.79739785480E+02 0.  0.
          5    1    3    3  501    0  0.24080078778E+02  0.71396656969E+02 -0.57717258820E+03  0.58208901328E+03  0.47000000000E+01 0. -1.
        -13    1    4    4    0    0 -0.37764498917E+02  0.35322713310E+02 -0.96231480585E+02  0.10924444750E+03  0.00000000000E+00 0.  1.
         14    1    4    4    0    0 -0.54118877157E+02  0.10969283094E+01 -0.35205895647E+03  0.35619596425E+03  0.00000000000E+00 0. -1.
         -5    1    5    5    0  502  0.38923601148E+02 -0.10165128711E+03 -0.12068142226E+04  0.12117221995E+04  0.47000000000E+01 0.  1.
         11    1    6    6    0    0  0.51865036790E+01 -0.41583677467E+02 -0.21385258307E+03  0.21791977730E+03  0.00000000000E+00 0. -1.
        -12    1    6    6    0    0  0.23693192469E+02  0.35418665984E+02 -0.17353173962E+03  0.17868719575E+03  0.00000000000E+00 0.  1.
</event>
<event>
12    1  0.8331241E-002  0.2177295E+03  0.7818608E-02  0.1136096E+00
         21   -1    0    0  501  502  0.00000000000E+00  0.00000000000E+00  0.24406067627E+03  0.24406067627E+03  0.00000000000E+00 0.  1.
         21   -1    0    0  502  503 -0.00000000000E+00 -0.00000000000E+00 -0.47725880196E+03  0.47725880196E+03  0.00000000000E+00 0.  1.
         -6    2    1    2    0  503  0.12204811596E+03 -0.54367608932E+02 -0.39520644503E+03  0.44992896060E+03  0.16851218318E+03 0.  0.
        -24    2    3    3    0    0  0.61097277044E+01 -0.11179717048E+02 -0.91512711036E+02  0.12196725865E+03  0.79618597419E+02 0.  0.
          6    2    1    2  501    0 -0.12204811596E+03  0.54367608932E+02  0.16200831934E+03  0.27139051764E+03  0.17191433336E+03 0.  0.
         24    2    5    5    0    0 -0.14099107113E+03  0.28770648160E+02  0.17160619768E+03  0.23780109639E+03  0.79965255140E+02 0.  0.
          5    1    5    5  501    0  0.18942955162E+02  0.25596960772E+02 -0.95978783391E+01  0.33589421246E+02  0.47000000000E+01 0. -1.
        -13    1    6    6    0    0 -0.59291145987E+02  0.79510237661E+01  0.17819388121E+02  0.62419463025E+02  0.00000000000E+00 0.  1.
         14    1    6    6    0    0 -0.81699925139E+02  0.20819624394E+02  0.15378680956E+03  0.17538163336E+03  0.00000000000E+00 0. -1.
         -5    1    3    3    0  503  0.11593838826E+03 -0.43187891884E+02 -0.30369373400E+03  0.32796170195E+03  0.47000000000E+01 0.  1.
         13    1    4    4    0    0 -0.30161647237E+02 -0.27340790219E+02 -0.50755814398E+02  0.65064556166E+02  0.00000000000E+00 0. -1.
        -14    1    4    4    0    0  0.36271374942E+02  0.16161073171E+02 -0.40756896637E+02  0.56902702481E+02  0.00000000000E+00 0.  1.
</event>
<event>
12    1  0.8331241E-002  0.2364115E+03  0.7818608E-02  0.1122247E+00
         21   -1    0    0  503  502  0.00000000000E+00  0.00000000000E+00  0.24132075756E+03  0.24132075756E+03  0.00000000000E+00 0.  1.
         21   -1    0    0  501  503 -0.00000000000E+00 -0.00000000000E+00 -0.49529455287E+03  0.49529455287E+03  0.00000000000E+00 0.  1.
          6    2    1    2  501    0 -0.11076462477E+03 -0.11797997662E+03 -0.39587329171E+03  0.46109223714E+03  0.17234358437E+03 0.  0.
         24    2    3    3    0    0  0.10713862397E+02 -0.67346978983E+02 -0.17124072281E+03  0.20070290497E+03  0.79422090694E+02 0.  0.
         -6    2    1    2    0  502  0.11076462477E+03  0.11797997662E+03  0.14189949640E+03  0.27552307330E+03  0.17201575468E+03 0.  0.
        -24    2    5    5    0    0  0.87856106910E+02  0.15191807819E+03  0.13152513584E+03  0.23302234053E+03  0.78757550908E+02 0.  0.
          5    1    3    3  501    0 -0.12147848717E+03 -0.50632997633E+02 -0.22463256890E+03  0.26038933217E+03  0.47000000000E+01 0. -1.
        -13    1    4    4    0    0 -0.15061584744E+02 -0.67292764407E+01  0.76671855377E+00  0.16514307547E+02  0.00000000000E+00 0.  1.
         14    1    4    4    0    0  0.25775447141E+02 -0.60617702542E+02 -0.17200744137E+03  0.18418859743E+03  0.00000000000E+00 0. -1.
         -5    1    5    5    0  502  0.22908517863E+02 -0.33938101572E+02  0.10374360558E+02  0.42500732770E+02  0.47000000000E+01 0.  1.
         11    1    6    6    0    0  0.88246619675E+01  0.56375744046E+02  0.73376852016E+01  0.57532084959E+02  0.00000000000E+00 0. -1.
        -12    1    6    6    0    0  0.79031444943E+02  0.95542334141E+02  0.12418745064E+03  0.17549025557E+03  0.00000000000E+00 0.  1.
</event>
<event>
12    1  0.8331241E-002  0.2107695E+03  0.7818608E-02  0.1141430E+00
         21   -1    0    0  503  502  0.00000000000E+00  0.00000000000E+00  0.19439181626E+04  0.19439181626E+04  0.00000000000E+00 0. -1.
         21   -1    0    0  501  503 -0.00000000000E+00 -0.00000000000E+00 -0.22630202758E+02  0.22630202758E+02  0.00000000000E+00 0. -1.
          6    2    1    2  501    0  0.16872492912E+02 -0.11917854562E+03  0.99392214533E+03  0.10155325188E+04  0.17010837443E+03 0.  0.
         24    2    3    3    0    0  0.30519407565E+01 -0.20219994066E+02  0.69983416306E+03  0.70489827425E+03  0.81826393925E+02 0.  0.
         -6    2    1    2    0  502 -0.16872492912E+02  0.11917854562E+03  0.92736581452E+03  0.95101584655E+03  0.17301901539E+03 0.  0.
        -24    2    5    5    0    0 -0.31285594010E+02  0.10198778495E+03  0.91556115327E+03  0.92523407463E+03  0.80159658296E+02 0.  0.
          5    1    3    3  501    0  0.13820552155E+02 -0.98958551556E+02  0.29408798226E+03  0.31063424457E+03  0.47000000000E+01 0. -1.
        -11    1    4    4    0    0  0.33218469675E+01  0.17643830731E+02  0.38493900073E+02  0.42474931112E+02  0.00000000000E+00 0.  1.
         12    1    4    4    0    0 -0.26990621101E+00 -0.37863824796E+02  0.66134026299E+03  0.66242334314E+03  0.00000000000E+00 0. -1.
         -5    1    5    5    0  502  0.14413101099E+02  0.17190760670E+02  0.11804661254E+02  0.25781771914E+02  0.47000000000E+01 0.  1.
         13    1    6    6    0    0 -0.36169545257E+02  0.10308910973E+03  0.61481310771E+03  0.62444435938E+03  0.00000000000E+00 0. -1.
        -14    1    6    6    0    0  0.48839512461E+01 -0.11013247757E+01  0.30074804555E+03  0.30078971525E+03  0.00000000000E+00 0.  1.
</event>
<event>
12    1  0.8331241E-002  0.2083096E+03  0.7818608E-02  0.1143168E+00
         21   -1    0    0  503  502  0.00000000000E+00  0.00000000000E+00  0.18562335670E+03  0.18562335670E+03  0.00000000000E+00 0.  1.
         21   -1    0    0  501  503 -0.00000000000E+00 -0.00000000000E+00 -0.24541071858E+03  0.24541071858E+03  0.00000000000E+00 0. -1.
          6    2    1    2  501    0  0.15982708238E+02  0.11735828129E+03  0.19758936469E+02  0.20924462161E+03  0.17136068087E+03 0.  0.
         24    2    3    3    0    0  0.12998685190E+02  0.50013855012E+02  0.74686908949E+02  0.12216219912E+03  0.81701389317E+02 0.  0.
         -6    2    1    2    0  502 -0.15982708238E+02 -0.11735828129E+03 -0.79546298348E+02  0.22178945367E+03  0.16980734680E+03 0.  0.
        -24    2    5    5    0    0  0.87075659004E+01 -0.13586451244E+03 -0.97684914014E+02  0.18568973613E+03  0.80020923718E+02 0.  0.
          5    1    3    3  501    0  0.29840230485E+01  0.67344426281E+02 -0.54927972480E+02  0.87082422483E+02  0.47000000000E+01 0. -1.
        -11    1    4    4    0    0  0.47468177818E+02  0.31255087277E+02  0.50748113701E+02  0.76193696788E+02  0.00000000000E+00 0.  1.
         12    1    4    4    0    0 -0.34469492628E+02  0.18758767735E+02  0.23938795249E+02  0.45968502335E+02  0.00000000000E+00 0. -1.
         -5    1    5    5    0  502 -0.24690274139E+02  0.18506231147E+02  0.18138615666E+02  0.36099717542E+02  0.47000000000E+01 0.  1.
         11    1    6    6    0    0 -0.23269323587E+02 -0.99813710871E+02 -0.38772525978E+02  0.10957895359E+03  0.00000000000E+00 0. -1.
        -12    1    6    6    0    0  0.31976889487E+02 -0.36050801568E+02 -0.58912388036E+02  0.76110782542E+02  0.00000000000E+00 0.  1.
</event>
<event>
12    1  0.8331241E-002  0.2194359E+03  0.7818608E-02  0.1134617E+00
         21   -1    0    0  503  502  0.00000000000E+00  0.00000000000E+00  0.28948069732E+03  0.28948069732E+03  0.00000000000E+00 0.  1.
         21   -1    0    0  501  503 -0.00000000000E+00 -0.00000000000E+00 -0.19806388762E+03  0.19806388762E+03  0.00000000000E+00 0. -1.
          6    2    1    2  501    0  0.50304650991E+02  0.12783731787E+03 -0.53626531032E+02  0.22589359069E+03  0.17111157685E+03 0.  0.
         24    2    3    3    0    0  0.86184538106E+02  0.54308741205E+02 -0.59574012415E+02  0.14372741504E+03  0.82044456842E+02 0.  0.
         -6    2    1    2    0  502 -0.50304650991E+02 -0.12783731787E+03  0.14504334073E+03  0.26165099426E+03  0.16896962553E+03 0.  0.
        -24    2    5    5    0    0 -0.24958701107E+02 -0.15636822185E+03  0.10735321742E+03  0.20780802765E+03  0.81151127557E+02 0.  0.
          5    1    3    3  501    0 -0.35879887116E+02  0.73528576667E+02  0.59474813834E+01  0.82166175649E+02  0.47000000000E+01 0. -1.
        -11    1    4    4    0    0 -0.10548892592E+02  0.10187845609E+02  0.90040076652E+01  0.17208820038E+02  0.00000000000E+00 0.  1.
         12    1    4    4    0    0  0.96733430698E+02  0.44120895596E+02 -0.68578020081E+02  0.12651859500E+03  0.00000000000E+00 0. -1.
         -5    1    5    5    0  502 -0.25345949884E+02  0.28530903974E+02  0.37690123313E+02  0.53842966602E+02  0.47000000000E+01 0.  1.
         11    1    6    6    0    0 -0.39465534137E+02 -0.48709286813E+02  0.13229088108E+02  0.64071302302E+02  0.00000000000E+00 0. -1.
        -12    1    6    6    0    0  0.14506833030E+02 -0.10765893503E+03  0.94124129307E+02  0.14373672535E+03  0.00000000000E+00 0.  1.
</event>
<event>
12    1  0.8331241E-002  0.4900011E+03  0.7818608E-02  0.1016442E+00
         21   -1    0    0  501  502  0.00000000000E+00  0.00000000000E+00  0.57224337190E+03  0.57224337190E+03  0.00000000000E+00 0.  1.
         21   -1    0    0  502  503 -0.00000000000E+00 -0.00000000000E+00 -0.70467828132E+03  0.70467828132E+03  0.00000000000E+00 0. -1.
         -6    2    1    2    0  503  0.15121768602E+03 -0.43337685434E+03 -0.47251255980E+03  0.68071224032E+03  0.17151894504E+03 0.  0.
        -24    2    3    3    0    0  0.15224545846E+03 -0.40055643786E+03 -0.36574092303E+03  0.56890656751E+03  0.79146195369E+02 0.  0.
          6    2    1    2  501    0 -0.15121768602E+03  0.43337685434E+03  0.34007765038E+03  0.59620941290E+03  0.17067679779E+03 0.  0.
         24    2    5    5    0    0 -0.85755509632E+02  0.27041359993E+03  0.12801468558E+03  0.32082765993E+03  0.77878785286E+02 0.  0.
          5    1    5    5  501    0 -0.65462176389E+02  0.16296325441E+03  0.21206296481E+03  0.27538175297E+03  0.47000000000E+01 0. -1.
        -11    1    6    6    0    0 -0.16929024916E+02  0.17647750407E+03  0.85820528067E+02  0.19696716570E+03  0.00000000000E+00 0.  1.
         12    1    6    6    0    0 -0.68826484716E+02  0.93936095861E+02  0.42194157509E+02  0.12386049423E+03  0.00000000000E+00 0. -1.
         -5    1    3    3    0  503 -0.10277724419E+01 -0.32820416477E+02 -0.10677163677E+03  0.11180567281E+03  0.47000000000E+01 0.  1.
         13    1    4    4    0    0  0.57983859361E+02 -0.66578048950E+02 -0.84777868456E+02  0.12240119088E+03  0.00000000000E+00 0. -1.
        -14    1    4    4    0    0  0.94261599102E+02 -0.33397838891E+03 -0.28096305458E+03  0.44650537663E+03  0.00000000000E+00 0.  1.
</event>
<event>
12    1  0.8331241E-002  0.2127112E+03  0.7818608E-02  0.1140633E+00
         21   -1    0    0  503  502  0.00000000000E+00  0.00000000000E+00  0.38968487745E+03  0.38968487745E+03  0.00000000000E+00 0. -1.
         21   -1    0    0  501  503 -0.00000000000E+00 -0.00000000000E+00 -0.35556975401E+03  0.35556975401E+03  0.00000000000E+00 0.  1.
          6    2    1    2  501    0 -0.98571982032E+01  0.12600074559E+03 -0.29089101597E+03  0.35682824763E+03  0.16350982505E+03 0.  0.
         24    2    3    3    0    0  0.47557719070E+02  0.11499800351E+03 -0.20839066026E+03  0.25560605762E+03  0.80134336905E+02 0.  0.
         -6    2    1    2    0  502  0.98571982032E+01 -0.12600074559E+03  0.32500613942E+03  0.38842638383E+03  0.17109270222E+03 0.  0.
        -24    2    5    5    0    0 -0.15223172142E+01 -0.78311409290E+01  0.20771093777E+03  0.22147188953E+03  0.76435070274E+02 0.  0.
          5    1    3    3  501    0 -0.57414917273E+02  0.11002742075E+02 -0.82500355707E+02  0.10122219001E+03  0.47000000000E+01 0. -1.
        -11    1    4    4    0    0  0.43592102370E+01  0.10165240045E+03 -0.15777919531E+03  0.18774047966E+03  0.00000000000E+00 0.  1.
         12    1    4    4    0    0  0.43198508833E+02  0.13345603059E+02 -0.50611464957E+02  0.67865577958E+02  0.00000000000E+00 0. -1.
         -5    1    5    5    0  502  0.11379515417E+02 -0.11816960466E+03  0.11729520165E+03  0.16695449430E+03  0.47000000000E+01 0.  1.
         13    1    6    6    0    0  0.27807644074E+02  0.38284962558E+01  0.30414538011E+02  0.41388000374E+02  0.00000000000E+00 0. -1.
        -14    1    6    6    0    0 -0.29329961289E+02 -0.11659637185E+02  0.17729639976E+03  0.18008388916E+03  0.00000000000E+00 0.  1.
</event>
<event>
12    1  0.8331241E-002  0.4272636E+03  0.7818608E-02  0.1034767E+00
         21   -1    0    0  503  502  0.00000000000E+00  0.00000000000E+00  0.29113111633E+03  0.29113111633E+03  0.00000000000E+00 0. -1.
         21   -1    0    0  501  503 -0.00000000000E+00 -0.00000000000E+00 -0.67538626454E+03  0.67538626454E+03  0.00000000000E+00 0.  1.
          6    2    1    2  501    0  0.29477268258E+03  0.25665249413E+03 -0.32227462560E+03  0.53478159463E+03  0.17137380929E+03 0.  0.
         24    2    3    3    0    0  0.19814752662E+03  0.16236440206E+03 -0.29018593880E+03  0.39593477655E+03  0.83257593294E+02 0.  0.
         -6    2    1    2    0  502 -0.29477268258E+03 -0.25665249413E+03 -0.61980522607E+02  0.43173578624E+03  0.17260581335E+03 0.  0.
        -24    2    5    5    0    0 -0.78188502879E+02 -0.13676610506E+03  0.10592971032E+01  0.17624104647E+03  0.79002372592E+02 0.  0.
          5    1    3    3  501    0  0.96625155963E+02  0.94288092065E+02 -0.32088686792E+02  0.13884681808E+03  0.47000000000E+01 0. -1.
        -13    1    4    4    0    0  0.25246822697E+02  0.67622309439E+02 -0.75395286333E+02  0.10437733466E+03  0.00000000000E+00 0.  1.
         14    1    4    4    0    0  0.17290070392E+03  0.94742092622E+02 -0.21479065247E+03  0.29155744189E+03  0.00000000000E+00 0. -1.
         -5    1    5    5    0  502 -0.21658417970E+03 -0.11988638906E+03 -0.63039819710E+02  0.25549473977E+03  0.47000000000E+01 0.  1.
         11    1    6    6    0    0 -0.58229350436E+02 -0.45678858030E+02  0.28080793033E+02  0.79156466953E+02  0.00000000000E+00 0. -1.
        -12    1    6    6    0    0 -0.19959152443E+02 -0.91087247034E+02 -0.27021495930E+02  0.97084579521E+02  0.00000000000E+00 0.  1.
</event>
<event>
12    1  0.8331241E-002  0.2672640E+03  0.7818608E-02  0.1102876E+00
         21   -1    0    0  503  502  0.00000000000E+00  0.00000000000E+00  0.37301276850E+03  0.37301276850E+03  0.00000000000E+00 0.  1.
         21   -1    0    0  501  503 -0.00000000000E+00 -0.00000000000E+00 -0.21699982912E+03  0.21699982912E+03  0.00000000000E+00 0. -1.
          6    2    1    2  501    0  0.12397221208E+03  0.16177569253E+03  0.17932460260E+03  0.32173390131E+03  0.17266993396E+03 0.  0.
         24    2    3    3    0    0  0.11698826498E+03  0.13876941511E+03  0.20399362156E+03  0.28696732520E+03  0.88281614088E+02 0.  0.
         -6    2    1    2    0  502 -0.12397221208E+03 -0.16177569253E+03 -0.23311663210E+02  0.26827869631E+03  0.17288591957E+03 0.  0.
        -24    2    5    5    0    0 -0.62350500617E+02 -0.17554835723E+03 -0.23806503149E+02  0.20496000646E+03  0.82079498070E+02 0.  0.
          5    1    3    3  501    0  0.69839471073E+01  0.23006277420E+02 -0.24669018960E+02  0.34766576110E+02  0.47000000000E+01 0. -1.
        -11    1    4    4    0    0  0.21146901171E+02  0.92473857016E+02  0.10659203272E+03  0.14269010863E+03  0.00000000000E+00 0.  1.
         12    1    4    4    0    0  0.95841363804E+02  0.46295558098E+02  0.97401588837E+02  0.14427721658E+03  0.00000000000E+00 0. -1.
         -5    1    5    5    0  502 -0.61621711466E+02  0.13772664698E+02  0.49483993963E+00  0.63318689843E+02  0.47000000000E+01 0.  1.
         13    1    6    6    0    0 -0.52882353786E+02 -0.13948256764E+03  0.16464919972E+02  0.15007672574E+03  0.00000000000E+00 0. -1.
        -14    1    6    6    0    0 -0.94681468305E+01 -0.36065789588E+02 -0.40271423122E+02  0.54883280726E+02  0.00000000000E+00 0.  1.
</event>
<event>
12    1  0.8331241E-002  0.2089910E+03  0.7818608E-02  0.1142495E+00
         21   -1    0    0  503  502  0.00000000000E+00  0.00000000000E+00  0.44938413747E+02  0.44938413747E+02  0.00000000000E+00 0. -1.
         21   -1    0    0  501  503 -0.00000000000E+00 -0.00000000000E+00 -0.10264691417E+04  0.10264691417E+04  0.00000000000E+00 0. -1.
          6    2    1    2  501    0  0.78220900954E+02 -0.89227848369E+02 -0.61825764836E+03  0.65262527517E+03  0.17203811137E+03 0.  0.
         24    2    3    3    0    0  0.68660985332E+02 -0.11388043299E+03 -0.60168322762E+03  0.62106670521E+03  0.77576168990E+02 0.  0.
         -6    2    1    2    0  502 -0.78220900954E+02  0.89227848369E+02 -0.36327307962E+03  0.41878228031E+03  0.17126339261E+03 0.  0.
        -24    2    5    5    0    0 -0.10770051823E+03  0.25140964434E+02 -0.26213073772E+03  0.29538033602E+03  0.79407490400E+02 0.  0.
          5    1    3    3  501    0  0.95599156227E+01  0.24652584617E+02 -0.16574420732E+02  0.31558569955E+02  0.47000000000E+01 0. -1.
        -11    1    4    4    0    0 -0.14862901617E+02 -0.13671651256E+02 -0.45347391675E+02  0.49640767765E+02  0.00000000000E+00 0.  1.
         12    1    4    4    0    0  0.83523886948E+02 -0.10020878173E+03 -0.55633583595E+03  0.57142593745E+03  0.00000000000E+00 0. -1.
         -5    1    5    5    0  502  0.29479617278E+02  0.64086883935E+02 -0.10114234191E+03  0.12340194429E+03  0.47000000000E+01 0.  1.
         11    1    6    6    0    0 -0.63171874983E+02  0.51433148665E+02 -0.18905292366E+03  0.20585689815E+03  0.00000000000E+00 0. -1.
        -12    1    6    6    0    0 -0.44528643250E+02 -0.26292184231E+02 -0.73077814052E+02  0.89523437870E+02  0.00000000000E+00 0.  1.
</event>
<event>
12    1  0.8331241E-002  0.2671704E+03  0.7818608E-02  0.1102975E+00
         21   -1    0    0  503  502  0.00000000000E+00  0.00000000000E+00  0.54395134154E+03  0.54395134154E+03  0.00000000000E+00 0. -1.
         21   -1    0    0  501  503 -0.00000000000E+00 -0.00000000000E+00 -0.13474126404E+03  0.13474126404E+03  0.00000000000E+00 0. -1.
          6    2    1    2  501    0  0.16610012799E+03 -0.11800959067E+03  0.26126384190E+03  0.37368276333E+03  0.17281347320E+03 0.  0.
         24    2    3    3    0    0  0.35546199665E+02 -0.84351165618E+02  0.17661198894E+03  0.21441806546E+03  0.80029124113E+02 0.  0.
         -6    2    1    2    0  502 -0.16610012799E+03  0.11800959067E+03  0.14794623560E+03  0.30500984225E+03  0.17212611433E+03 0.  0.
        -24    2    5    5    0    0 -0.10640824198E+03  0.27816527616E+01  0.10148480494E+03  0.16709191931E+03  0.79310102205E+02 0.  0.
          5    1    3    3  501    0  0.13055392833E+03 -0.33658425049E+02  0.84651852960E+02  0.15926469787E+03  0.47000000000E+01 0. -1.
        -11    1    4    4    0    0  0.37047593701E+00  0.70145899716E+01 -0.46374559293E+01  0.84171089090E+01  0.00000000000E+00 0.  1.
         12    1    4    4    0    0  0.35175723728E+02 -0.91365755590E+02  0.18124944487E+03  0.20600095655E+03  0.00000000000E+00 0. -1.
         -5    1    5    5    0  502 -0.59691886013E+02  0.11522793791E+03  0.46461430658E+02  0.13791792294E+03  0.47000000000E+01 0.  1.
         13    1    6    6    0    0 -0.91056216216E+02  0.28577587003E+02  0.98132976223E+02  0.13688679269E+03  0.00000000000E+00 0. -1.
        -14    1    6    6    0    0 -0.15352025765E+02 -0.25795934242E+02  0.33518287183E+01  0.30205126622E+02  0.00000000000E+00 0.  1.
</event>
<event>
12    1  0.8331241E-002  0.1831436E+03  0.7818608E-02  0.1164930E+00
         21   -1    0    0  503  502  0.00000000000E+00  0.00000000000E+00  0.17438786690E+03  0.17438786690E+03  0.00000000000E+00 0. -1.
         21   -1    0    0  501  503 -0.00000000000E+00 -0.00000000000E+00 -0.22001389752E+03  0.22001389752E+03  0.00000000000E+00 0. -1.
          6    2    1    2  501    0  0.61411382486E+02  0.89394616641E+01 -0.93536599053E+02  0.20564695408E+03  0.17230874175E+03 0.  0.
         24    2    3    3    0    0  0.53274513012E+01  0.64689157988E+02 -0.43341968903E+02  0.11186514948E+03  0.80138732840E+02 0.  0.
         -6    2    1    2    0  502 -0.61411382486E+02 -0.89394616641E+01  0.47910568434E+02  0.18875481034E+03  0.17170231212E+03 0.  0.
        -24    2    5    5    0    0 -0.10064770254E+03  0.23318606204E+02  0.38869399257E+02  0.13694839670E+03  0.81057484167E+02 0.  0.
          5    1    3    3  501    0  0.56083931184E+02 -0.55749696324E+02 -0.50194630150E+02  0.93781804595E+02  0.47000000000E+01 0. -1.
        -11    1    4    4    0    0  0.31515414349E+02  0.15307211748E+02  0.80334194834E+01  0.35945346036E+02  0.00000000000E+00 0.  1.
         12    1    4    4    0    0 -0.26187963048E+02  0.49381946240E+02 -0.51375388387E+02  0.75919803444E+02  0.00000000000E+00 0. -1.
         -5    1    5    5    0  502  0.39236320055E+02 -0.32258067868E+02  0.90411691776E+01  0.51806413639E+02  0.47000000000E+01 0.  1.
         13    1    6    6    0    0 -0.60725641324E+02 -0.24663620319E+02  0.35260215682E+02  0.74425670917E+02  0.00000000000E+00 0. -1.
        -14    1    6    6    0    0 -0.39922061217E+02  0.47982226523E+02  0.36091835744E+01  0.62522725788E+02  0.00000000000E+00 0.  1.
</event>
<event>
12    1  0.8331241E-002  0.1903090E+03  0.7818608E-02  0.1158349E+00
         21   -1    0    0  501  502  0.00000000000E+00  0.00000000000E+00  0.89765982551E+02  0.89765982551E+02  0.00000000000E+00 0. -1.
         21   -1    0    0  502  503 -0.00000000000E+00 -0.00000000000E+00 -0.53392823175E+03  0.53392823175E+03  0.00000000000E+00 0. -1.
         -6    2    1    2    0  503  0.87699935212E+02 -0.39340668041E+01 -0.66687102144E+02  0.20095905781E+03  0.16801969470E+03 0.  0.
        -24    2    3    3    0    0  0.54195737726E+02 -0.51542648181E+02 -0.83948179574E+02  0.14005632336E+03  0.83514395703E+02 0.  0.
          6    2    1    2  501    0 -0.87699935212E+02  0.39340668041E+01 -0.37747514705E+03  0.42273515649E+03  0.16885132623E+03 0.  0.
         24    2    5    5    0    0 -0.18936562175E+02 -0.17882123140E+02 -0.32133383097E+03  0.33120218436E+03  0.75901859548E+02 0.  0.
          5    1    5    5  501    0 -0.68763373037E+02  0.21816189944E+02 -0.56141316082E+02  0.91532972128E+02  0.47000000000E+01 0. -1.
        -11    1    6    6    0    0 -0.11408973621E+02 -0.47908705401E+02 -0.19205651501E+03  0.19827030461E+03  0.00000000000E+00 0.  1.
         12    1    6    6    0    0 -0.75275885548E+01  0.30026582260E+02 -0.12927731596E+03  0.13293187975E+03  0.00000000000E+00 0. -1.
         -5    1    3    3    0  503  0.33504197486E+02  0.47608581377E+02  0.17261077431E+02  0.60902734454E+02  0.47000000000E+01 0.  1.
         11    1    4    4    0    0  0.67509602599E+02 -0.42402713456E+02 -0.92228267529E+02  0.12190812066E+03  0.00000000000E+00 0. -1.
        -12    1    4    4    0    0 -0.13313864873E+02 -0.91399347248E+01  0.82800879550E+01  0.18148202698E+02  0.00000000000E+00 0.  1.
</event>
<event>
12    1  0.8331241E-002  0.2235290E+03  0.7818608E-02  0.1131564E+00
         21   -1    0    0  503  502  0.00000000000E+00  0.00000000000E+00  0.15026267660E+03  0.15026267660E+03  0.00000000000E+00 0.  1.
         21   -1    0    0  501  503 -0.00000000000E+00 -0.00000000000E+00 -0.44133230222E+03  0.44133230222E+03  0.00000000000E+00 0.  1.
          6    2    1    2  501    0 -0.19835775086E+02 -0.13947663028E+03 -0.29433824859E+03  0.36959466177E+03  0.17354544378E+03 0.  0.
         24    2    3    3    0    0  0.30464961543E+02 -0.62167590802E+02 -0.68284336750E+02  0.12540352199E+03  0.79185664444E+02 0.  0.
         -6    2    1    2    0  502  0.19835775086E+02  0.13947663028E+03  0.32686229714E+01  0.22200031705E+03  0.17154086542E+03 0.  0.
        -24    2    5    5    0    0 -0.15239113266E+02  0.41376756015E+02  0.53776815442E+02  0.10612538176E+03  0.80164732035E+02 0.  0.
          5    1    3    3  501    0 -0.50300736629E+02 -0.77309039478E+02 -0.22605391184E+03  0.24419113978E+03  0.47000000000E+01 0. -1.
        -11    1    4    4    0    0 -0.49527957650E+01 -0.35038082072E+02 -0.72414926782E+02  0.80598504961E+02  0.00000000000E+00 0.  1.
         12    1    4    4    0    0  0.35417757308E+02 -0.27129508731E+02  0.41305900316E+01  0.44805017026E+02  0.00000000000E+00 0. -1.
         -5    1    5    5    0  502  0.35074888352E+02  0.98099874265E+02 -0.50508192471E+02  0.11587493530E+03  0.47000000000E+01 0.  1.
         13    1    6    6    0    0 -0.41221911822E+02  0.68017982452E+01  0.69008848063E+01  0.42345397445E+02  0.00000000000E+00 0. -1.
        -14    1    6    6    0    0  0.25982798557E+02  0.34574957770E+02  0.46875930636E+02  0.63779984310E+02  0.00000000000E+00 0.  1.
</event>
<event>
12    1  0.8331241E-002  0.3210798E+03  0.7818608E-02  0.1075342E+00
         21   -1    0    0  501  502  0.00000000000E+00  0.00000000000E+00  0.20085351646E+04  0.20085351646E+04  0.00000000000E+00 0.  1.
         21   -1    0    0  502  503 -0.00000000000E+00 -0.00000000000E+00 -0.17799329471E+03  0.17799329471E+03  0.00000000000E+00 0.  1.
         -6    2    1    2    0  503  0.50863621678E+02 -0.26469653216E+03 -0.86121090498E+01  0.31955775342E+03  0.17143986469E+03 0.  0.
        -24    2    3    3    0    0 -0.14112534648E+02 -0.10155757525E+03  0.28147964538E+02  0.14008738495E+03  0.91208896434E+02 0.  0.
          6    2    1    2  501    0 -0.50863621678E+02  0.26469653216E+03  0.18391539790E+04  0.18669707059E+04  0.17447319624E+03 0.  0.
         24    2    5    5    0    0 -0.75589404109E+02  0.16199780778E+03  0.14707617623E+04  0.14837040786E+04  0.79250133505E+02 0.  0.
          5    1    5    5  501    0  0.24725782431E+02  0.10269872438E+03  0.36839221662E+03  0.38326662726E+03  0.47000000000E+01 0. -1.
        -11    1    6    6    0    0 -0.72470314006E+02  0.15887036595E+03  0.11745362290E+04  0.11874456168E+04  0.00000000000E+00 0.  1.
         12    1    6    6    0    0 -0.31190901034E+01  0.31274418247E+01  0.29622553329E+03  0.29625846180E+03  0.00000000000E+00 0. -1.
         -5    1    3    3    0  503  0.64976156326E+02 -0.16313895691E+03 -0.36760073587E+02  0.17947036848E+03  0.47000000000E+01 0.  1.
         13    1    4    4    0    0  0.33234285288E+02 -0.14365122538E+02  0.17758766570E+02  0.40326768457E+02  0.00000000000E+00 0. -1.
        -14    1    4    4    0    0 -0.47346819936E+02 -0.87192452711E+02  0.10389197968E+02  0.99760616489E+02  0.00000000000E+00 0.  1.
</event>
<event>
12    1  0.8331241E-002  0.2629553E+03  0.7818608E-02  0.1105438E+00
         21   -1    0    0  501  502  0.00000000000E+00  0.00000000000E+00  0.66314505450E+03  0.66314505450E+03  0.00000000000E+00 0.  1.
         21   -1    0    0  502  503 -0.00000000000E+00 -0.00000000000E+00 -0.19599415573E+03  0.19599415573E+03  0.00000000000E+00 0.  1.
         -6    2    1    2    0  503  0.17632172690E+03  0.94754801551E+02 -0.60450176800E+02  0.26981421096E+03  0.17052173107E+03 0.  0.
        -24    2    3    3    0    0  0.92154938436E+02  0.60810428116E+00  0.14860170073E+02  0.12270409155E+03  0.79640234555E+02 0.  0.
          6    2    1    2  501    0 -0.17632172690E+03 -0.94754801551E+02  0.52760107557E+03  0.58932499926E+03  0.16992126417E+03 0.  0.
         24    2    5    5    0    0 -0.11969603885E+03 -0.89119176201E+02  0.23028922307E+03  0.28657979871E+03  0.82616496428E+02 0.  0.
          5    1    5    5  501    0 -0.56625688046E+02 -0.56356253497E+01  0.29731185250E+03  0.30274520055E+03  0.47000000000E+01 0. -1.
        -11    1    6    6    0    0 -0.10965048570E+03 -0.61550175767E+02  0.22352735038E+03  0.25646857414E+03  0.00000000000E+00 0.  1.
         12    1    6    6    0    0 -0.10045553154E+02 -0.27569000434E+02  0.67618726916E+01  0.30111224575E+02  0.00000000000E+00 0. -1.
         -5    1    3    3    0  503  0.84166788465E+02  0.94146697270E+02 -0.75310346872E+02  0.14711011941E+03  0.47000000000E+01 0.  1.
         13    1    4    4    0    0  0.77421238717E+02  0.32044594685E+02 -0.26244071855E+01  0.83831925697E+02  0.00000000000E+00 0. -1.
        -14    1    4    4    0    0  0.14733699719E+02 -0.31436490404E+02  0.17484577258E+02  0.38872165854E+02  0.00000000000E+00 0.  1.
</event>
<event>
12    1  0.8331241E-002  0.1824091E+03  0.7818608E-02  0.1165699E+00
         21   -1    0    0  501  502  0.00000000000E+00  0.00000000000E+00  0.15058053853E+03  0.15058053853E+03  0.00000000000E+00 0.  1.
         21   -1    0    0  502  503 -0.00000000000E+00 -0.00000000000E+00 -0.26769177156E+03  0.26769177156E+03  0.00000000000E+00 0. -1.
         -6    2    1    2    0  503 -0.16134242176E+02 -0.55766774204E+02 -0.14702384189E+03  0.23428423496E+03  0.17292439328E+03 0.  0.
        -24    2    3    3    0    0 -0.26116798467E+01 -0.10194691130E+03 -0.13801847962E+03  0.18510444945E+03  0.69387051341E+02 0.  0.
          6    2    1    2  501    0  0.16134242176E+02  0.55766774204E+02  0.29912608865E+02  0.18398807513E+03  0.17200756014E+03 0.  0.
         24    2    5    5    0    0  0.10874219226E+02  0.73109343439E+02  0.77511361885E+02  0.13283962610E+03  0.78581997298E+02 0.  0.
          5    1    5    5  501    0  0.52600229500E+01 -0.17342569236E+02 -0.47598753020E+02  0.51148449030E+02  0.47000000000E+01 0. -1.
        -11    1    6    6    0    0 -0.26758807012E+02  0.37004727470E+01  0.95123938447E+01  0.28639359070E+02  0.00000000000E+00 0.  1.
         12    1    6    6    0    0  0.37633026238E+02  0.69408870692E+02  0.67998968040E+02  0.10420026703E+03  0.00000000000E+00 0. -1.
         -5    1    3    3    0  503 -0.13522562329E+02  0.46180137092E+02 -0.90053622692E+01  0.49179785516E+02  0.47000000000E+01 0.  1.
         11    1    4    4    0    0  0.31264915963E+02 -0.61941080967E+02 -0.63936510423E+02  0.94350780848E+02  0.00000000000E+00 0. -1.
        -12    1    4    4    0    0 -0.33876595810E+02 -0.40005830329E+02 -0.74081969199E+02  0.90753668600E+02  0.00000000000E+00 0.  1.
</event>
<event>
12    1  0.8331241E-002  0.1881794E+03  0.7818608E-02  0.1161537E+00
         21   -1    0    0  501  502  0.00000000000E+00  0.00000000000E+00  0.70296226939E+03  0.70296226939E+03  0.00000000000E+00 0.  1.
         21   -1    0    0  502  503 -0.00000000000E+00 -0.00000000000E+00 -0.82688116392E+02  0.82688116392E+02  0.00000000000E+00 0.  1.
         -6    2    1    2    0  503 -0.28346608487E+02 -0.72164383511E+02  0.55463909111E+02  0.19031676965E+03  0.16472097358E+03 0.  0.
        -24    2    3    3    0    0  0.29995794474E+02 -0.17263982336E+02 -0.92820714327E+01  0.87205072793E+02  0.79503302438E+02 0.  0.
          6    2    1    2  501    0  0.28346608487E+02  0.72164383511E+02  0.56481024389E+03  0.59533361613E+03  0.17146508226E+03 0.  0.
         24    2    5    5    0    0  0.36127744708E+02  0.10713812061E+03  0.51982864549E+03  0.53763489377E+03  0.77753890600E+02 0.  0.
          5    1    5    5  501    0 -0.77811362213E+01 -0.34973737099E+02  0.44981598398E+02  0.57698722361E+02  0.47000000000E+01 0. -1.
        -13    1    6    6    0    0  0.60364597654E+02  0.74630463003E+02  0.38893248334E+03  0.40060213086E+03  0.00000000000E+00 0.  1.
         14    1    6    6    0    0 -0.24236852946E+02  0.32507657607E+02  0.13089616215E+03  0.13703276291E+03  0.00000000000E+00 0. -1.
         -5    1    3    3    0  503 -0.58342402960E+02 -0.54900401174E+02  0.64745980544E+02  0.10311169686E+03  0.47000000000E+01 0.  1.
         13    1    4    4    0    0  0.21496152317E+00 -0.16401112494E+02  0.32197375153E+02  0.36134660178E+02  0.00000000000E+00 0. -1.
        -14    1    4    4    0    0  0.29780832950E+02 -0.86286984220E+00 -0.41479446585E+02  0.51070412614E+02  0.00000000000E+00 0.  1.
</event>
<event>
12    1  0.8331241E-002  0.2211798E+03  0.7818608E-02  0.1134300E+00
         21   -1    0    0  501  502  0.00000000000E+00  0.00000000000E+00  0.13010394880E+03  0.13010394880E+03  0.00000000000E+00 0.  1.
         21   -1    0    0  502  503 -0.00000000000E+00 -0.00000000000E+00 -0.39793916236E+03  0.39793916236E+03  0.00000000000E+00 0. -1.
         -6    2    1    2    0  503 -0.12702357282E+03  0.16146798693E+02 -0.55370752736E+02  0.22134838683E+03  0.17185307950E+03 0.  0.
        -24    2    3    3    0    0 -0.92381384330E+02 -0.54714169756E+02 -0.44872930793E+02  0.14163858606E+03  0.80746198674E+02 0.  0.
          6    2    1    2  501    0  0.12702357282E+03 -0.16146798693E+02 -0.21246446082E+03  0.30669472433E+03  0.18034633255E+03 0.  0.
         24    2    5    5    0    0  0.50491087584E+02  0.42721458063E+02 -0.55699427355E+02  0.12252073413E+03  0.86801101263E+02 0.  0.
          5    1    5    5  501    0  0.76532485232E+02 -0.58868256756E+02 -0.15676503346E+03  0.18417399020E+03  0.47000000000E+01 0. -1.
        -13    1    6    6    0    0 -0.16500500893E+02 -0.11689726099E+02 -0.21969379250E+02  0.29859166945E+02  0.00000000000E+00 0.  1.
         14    1    6    6    0    0  0.66991588477E+02  0.54411184162E+02 -0.33730048105E+02  0.92661567188E+02  0.00000000000E+00 0. -1.
         -5    1    3    3    0  503 -0.34642188485E+02  0.70860968450E+02 -0.10497821942E+02  0.79709800766E+02  0.47000000000E+01 0.  1.
         13    1    4    4    0    0 -0.16016980061E+02 -0.38088466960E+02 -0.48110318639E+02  0.63418275956E+02  0.00000000000E+00 0. -1.
        -14    1    4    4    0    0 -0.76364404269E+02 -0.16625702796E+02  0.32373878453E+01  0.78220310105E+02  0.00000000000E+00 0.  1.
</event>
<event>
12    1  0.8331241E-002  0.3154589E+03  0.7818608E-02  0.1077875E+00
         21   -1    0    0  501  502  0.00000000000E+00  0.00000000000E+00  0.18620411943E+03  0.18620411943E+03  0.00000000000E+00 0. -1.
         21   -1    0    0  502  503 -0.00000000000E+00 -0.00000000000E+00 -0.13284963400E+04  0.13284963400E+04  0.00000000000E+00 0. -1.
         -6    2    1    2    0  503 -0.11125729488E+03 -0.23919435001E+03 -0.11576442913E+04  0.11998560815E+04  0.17298031154E+03 0.  0.
        -24    2    3    3    0    0 -0.51109387033E+02 -0.10342109296E+03 -0.80220499533E+03  0.81461416876E+03  0.82190616818E+02 0.  0.
          6    2    1    2  501    0  0.11125729488E+03  0.23919435001E+03  0.15352070812E+02  0.31484437793E+03  0.17117001343E+03 0.  0.
         24    2    5    5    0    0  0.70851954398E+02  0.17352049125E+03 -0.54411608444E+02  0.21075447349E+03  0.79545362126E+02 0.  0.
          5    1    5    5  501    0  0.40405340479E+02  0.65673858762E+02  0.69763679256E+02  0.10408990444E+03  0.47000000000E+01 0. -1.
        -11    1    6    6    0    0  0.80778955835E+02  0.96090009432E+02 -0.32422939858E+02  0.12965252272E+03  0.00000000000E+00 0.  1.
         12    1    6    6    0    0 -0.99270014378E+01  0.77430481820E+02 -0.21988668586E+02  0.81101950769E+02  0.00000000000E+00 0. -1.
         -5    1    3    3    0  503 -0.60147907843E+02 -0.13577325706E+03 -0.35543929602E+03  0.38524191270E+03  0.47000000000E+01 0.  1.
         13    1    4    4    0    0 -0.70094056418E+02 -0.71880121469E+02 -0.48518423474E+03  0.49546308666E+03  0.00000000000E+00 0. -1.
        -14    1    4    4    0    0  0.18984669385E+02 -0.31540971487E+02 -0.31702076060E+03  0.31915108210E+03  0.00000000000E+00 0.  1.
</event>
<event>
12    1  0.8331241E-002  0.2269208E+03  0.7818608E-02  0.1129456E+00
         21   -1    0    0  501  502  0.00000000000E+00  0.00000000000E+00  0.37937385491E+02  0.37937385491E+02  0.00000000000E+00 0.  1.
         21   -1    0    0  502  503 -0.00000000000E+00 -0.00000000000E+00 -0.21125431859E+04  0.21125431859E+04  0.00000000000E+00 0. -1.
         -6    2    1    2    0  503 -0.61707738166E+02 -0.13104192087E+03 -0.16838913629E+04  0.16986500343E+04  0.17012344650E+03 0.  0.
        -24    2    3    3    0    0 -0.47091118914E+02 -0.11414263352E+03 -0.66929903813E+03  0.68380083026E+03  0.66153297455E+02 0.  0.
          6    2    1    2  501    0  0.61707738166E+02  0.13104192087E+03 -0.39071443750E+03  0.45183053707E+03  0.17468037264E+03 0.  0.
         24    2    5    5    0    0  0.40728834823E+02  0.11121841893E+03 -0.14249625237E+03  0.20189565946E+03  0.80176684111E+02 0.  0.
          5    1    5    5  501    0  0.20978903343E+02  0.19823501934E+02 -0.24821818514E+03  0.24993487761E+03  0.47000000000E+01 0. -1.
        -11    1    6    6    0    0  0.36978683073E+02  0.96248286378E+02 -0.15207392034E+03  0.18373250360E+03  0.00000000000E+00 0.  1.
         12    1    6    6    0    0  0.37501517504E+01  0.14970132554E+02  0.95776679756E+01  0.18163155857E+02  0.00000000000E+00 0. -1.
         -5    1    3    3    0  503 -0.14616619252E+02 -0.16899287345E+02 -0.10145923247E+04  0.10148492040E+04  0.47000000000E+01 0.  1.
         11    1    4    4    0    0 -0.34875037299E+02 -0.19337608376E+02 -0.28578478777E+03  0.28855355871E+03  0.00000000000E+00 0. -1.
        -12    1    4    4    0    0 -0.12216081615E+02 -0.94805025144E+02 -0.38351425035E+03  0.39524727155E+03  0.00000000000E+00 0.  1.
</event>
<event>
12    1  0.8331241E-002  0.2418938E+03  0.7818608E-02  0.1118598E+00
         21   -1    0    0  501  502  0.00000000000E+00  0.00000000000E+00  0.62282543221E+03  0.62282543221E+03  0.00000000000E+00 0.  1.
         21   -1    0    0  502  503 -0.00000000000E+00 -0.00000000000E+00 -0.11945157272E+03  0.11945157272E+03  0.00000000000E+00 0.  1.
         -6    2    1    2    0  503 -0.21193953722E+02  0.16838177937E+03  0.79865127826E+02  0.25473725920E+03  0.17236886403E+03 0.  0.
        -24    2    3    3    0    0  0.21178622938E+02  0.41783186116E+02  0.79362007669E+02  0.12115214703E+03  0.78645697633E+02 0.  0.
          6    2    1    2  501    0  0.21193953722E+02 -0.16838177937E+03  0.42350873167E+03  0.48753974573E+03  0.17185386398E+03 0.  0.
         24    2    5    5    0    0 -0.41390028594E+02 -0.59288511027E+02  0.13807962113E+03  0.17559429668E+03  0.80864783729E+02 0.  0.
          5    1    5    5  501    0  0.62583982317E+02 -0.10909326834E+03  0.28542911054E+03  0.31194544905E+03  0.47000000000E+01 0. -1.
        -13    1    6    6    0    0  0.23362222694E+01 -0.45732922442E+00  0.85143535808E+02  0.85176808900E+02  0.00000000000E+00 0.  1.
         14    1    6    6    0    0 -0.43726250864E+02 -0.58831181803E+02  0.52936085324E+02  0.90417487779E+02  0.00000000000E+00 0. -1.
         -5    1    3    3    0  503 -0.42372576660E+02  0.12659859325E+03  0.50312015764E+00  0.13358511218E+03  0.47000000000E+01 0.  1.
         11    1    4    4    0    0 -0.13440076009E+02  0.45977003907E+02  0.70393456342E+02  0.85145517951E+02  0.00000000000E+00 0. -1.
        -12    1    4    4    0    0  0.34618698946E+02 -0.41938177911E+01  0.89685513263E+01  0.36006629074E+02  0.00000000000E+00 0.  1.
</event>
<event>
12    1  0.8331241E-002  0.2122064E+03  0.7818608E-02  0.1140893E+00
         21   -1    0    0  503  502  0.00000000000E+00  0.00000000000E+00  0.49672158206E+02  0.49672158206E+02  0.00000000000E+00 0.  1.
         21   -1    0    0  501  503 -0.00000000000E+00 -0.00000000000E+00 -0.90014141147E+03  0.90014141147E+03  0.00000000000E+00 0.  1.
          6    2    1    2  501    0  0.10470518073E+03 -0.48437608805E+02 -0.49456405787E+03  0.53816834280E+03  0.17810721782E+03 0.  0.
         24    2    3    3    0    0  0.14280071214E+02  0.26996842522E+02 -0.23751311243E+03  0.25538868401E+03  0.88758951112E+02 0.  0.
         -6    2    1    2    0  502 -0.10470518073E+03  0.48437608805E+02 -0.35590519540E+03  0.41164522688E+03  0.17167966648E+03 0.  0.
        -24    2    5    5    0    0 -0.12762959471E+02  0.34265523657E+02 -0.72016056940E+02  0.11286545350E+03  0.78837040088E+02 0.  0.
          5    1    3    3  501    0  0.90425109511E+02 -0.75434451328E+02 -0.25705094543E+03  0.28277965879E+03  0.47000000000E+01 0. -1.
        -11    1    4    4    0    0  0.45351312853E+02  0.27941513454E+02 -0.89549298711E+02  0.10419475347E+03  0.00000000000E+00 0.  1.
         12    1    4    4    0    0 -0.31071241639E+02 -0.94467093152E+00 -0.14796381372E+03  0.15119393054E+03  0.00000000000E+00 0. -1.
         -5    1    5    5    0  502 -0.91942221254E+02  0.14172085148E+02 -0.28388913846E+03  0.29877977338E+03  0.47000000000E+01 0.  1.
         11    1    6    6    0    0 -0.10287220381E+01 -0.18344540978E+02 -0.52360878253E+02  0.55490918394E+02  0.00000000000E+00 0. -1.
        -12    1    6    6    0    0 -0.11734237433E+02  0.52610064635E+02 -0.19655178687E+02  0.57374535103E+02  0.00000000000E+00 0.  1.
</event>
<event>
12    1  0.8331241E-002  0.2202077E+03  0.7818608E-02  0.1134243E+00
         21   -1    0    0  503  502  0.00000000000E+00  0.00000000000E+00  0.27643627196E+03  0.27643627196E+03  0.00000000000E+00 0.  1.
         21   -1    0    0  501  503 -0.00000000000E+00 -0.00000000000E+00 -0.23638775376E+03  0.23638775376E+03  0.00000000000E+00 0.  1.
          6    2    1    2  501    0 -0.97333546292E+02  0.91625800989E+02 -0.11241168352E+03  0.24724038124E+03  0.17499232236E+03 0.  0.
         24    2    3    3    0    0 -0.83585027833E+02  0.66783833022E+01 -0.13879991920E+02  0.11633709717E+03  0.79439337358E+02 0.  0.
         -6    2    1    2    0  502  0.97333546292E+02 -0.91625800989E+02  0.15246020172E+03  0.26558364447E+03  0.17152682723E+03 0.  0.
        -24    2    5    5    0    0  0.87543526668E+02 -0.13294455242E+03  0.12526696781E+03  0.21494131361E+03  0.71901543758E+02 0.  0.
          5    1    3    3  501    0 -0.13748518459E+02  0.84947417687E+02 -0.98531691605E+02  0.13090328408E+03  0.47000000000E+01 0. -1.
        -13    1    4    4    0    0 -0.62000679759E+02  0.34030950045E+02  0.13525151240E+02  0.72007774355E+02  0.00000000000E+00 0.  1.
         14    1    4    4    0    0 -0.21584348074E+02 -0.27352566743E+02 -0.27405143160E+02  0.44329322810E+02  0.00000000000E+00 0. -1.
         -5    1    5    5    0  502  0.97900196234E+01  0.41318751430E+02  0.27193233916E+02  0.50642330858E+02  0.47000000000E+01 0.  1.
         11    1    6    6    0    0  0.68450818895E+02 -0.10437176734E+03  0.54347619362E+02  0.13613465449E+03  0.00000000000E+00 0. -1.
        -12    1    6    6    0    0  0.19092707773E+02 -0.28572785083E+02  0.70919348445E+02  0.78806659118E+02  0.00000000000E+00 0.  1.
</event>
<event>
12    1  0.8331241E-002  0.2085112E+03  0.7818608E-02  0.1142816E+00
         21   -1    0    0  503  502  0.00000000000E+00  0.00000000000E+00  0.28332849938E+02  0.28332849938E+02  0.00000000000E+00 0. -1.
         21   -1    0    0  501  503 -0.00000000000E+00 -0.00000000000E+00 -0.18748152597E+04  0.18748152597E+04  0.00000000000E+00 0. -1.
          6    2    1    2  501    0 -0.10599285816E+03  0.51882616066E+02 -0.51698301799E+03  0.55744808581E+03  0.17190298327E+03 0.  0.
         24    2    3    3    0    0 -0.39295903563E+02  0.10382600555E+03 -0.34482837387E+03  0.36559941901E+03  0.49318559238E+02 0.  0.
         -6    2    1    2    0  502  0.10599285816E+03 -0.51882616066E+02 -0.13294993917E+04  0.13457000238E+04  0.17150402201E+03 0.  0.
        -24    2    5    5    0    0  0.46315202524E+02 -0.88950340201E+02 -0.10158147386E+04  0.10242103810E+04  0.84083652098E+02 0.  0.
          5    1    3    3  501    0 -0.66696954602E+02 -0.51943389484E+02 -0.17215464412E+03  0.19184866681E+03  0.47000000000E+01 0. -1.
        -11    1    4    4    0    0 -0.82478599146E+01  0.14086683045E+02 -0.14301455259E+02  0.21702383623E+02  0.00000000000E+00 0.  1.
         12    1    4    4    0    0 -0.31048043648E+02  0.89739322506E+02 -0.33052691861E+03  0.34389703538E+03  0.00000000000E+00 0. -1.
         -5    1    5    5    0  502  0.59677655641E+02  0.37067724135E+02 -0.31368465317E+03  0.32148964274E+03  0.47000000000E+01 0.  1.
         13    1    6    6    0    0  0.70588951612E+02 -0.61142915145E+02 -0.76927942125E+03  0.77492714762E+03  0.00000000000E+00 0. -1.
        -14    1    6    6    0    0 -0.24273749088E+02 -0.27807425056E+02 -0.24653531731E+03  0.24928323342E+03  0.00000000000E+00 0.  1.
</event>
<event>
12    1  0.8331241E-002  0.1835380E+03  0.7818608E-02  0.1164882E+00
         21   -1    0    0  501  502  0.00000000000E+00  0.00000000000E+00  0.51093107080E+02  0.51093107080E+02  0.00000000000E+00 0. -1.
         21   -1    0    0  502  503 -0.00000000000E+00 -0.00000000000E+00 -0.81192933089E+03  0.81192933089E+03  0.00000000000E+00 0.  1.
         -6    2    1    2    0  503 -0.10889496685E+02 -0.62914133240E+02 -0.57333488600E+03  0.60199591400E+03  0.17207387850E+03 0.  0.
        -24    2    3    3    0    0 -0.18840876352E+01  0.14079919774E+01 -0.12215795421E+03  0.14614380315E+03  0.80186739512E+02 0.  0.
          6    2    1    2  501    0  0.10889496685E+02  0.62914133240E+02 -0.18750133781E+03  0.26102652397E+03  0.17000389772E+03 0.  0.
         24    2    5    5    0    0  0.62221556225E+02  0.28223681850E+02 -0.68119523562E+02  0.12644377870E+03  0.81729195543E+02 0.  0.
          5    1    5    5  501    0 -0.51332059540E+02  0.34690451391E+02 -0.11938181424E+03  0.13458274528E+03  0.47000000000E+01 0. -1.
        -13    1    6    6    0    0  0.30424803734E+02 -0.90045485512E+01 -0.70620573212E+02  0.77421030332E+02  0.00000000000E+00 0.  1.
         14    1    6    6    0    0  0.31796752490E+02  0.37228230401E+02  0.25010496496E+01  0.49022748363E+02  0.00000000000E+00 0. -1.
         -5    1    3    3    0  503 -0.90054090500E+01 -0.64322125218E+02 -0.45117693179E+03  0.45585211085E+03  0.47000000000E+01 0.  1.
         13    1    4    4    0    0  0.38430646590E+02 -0.42728001609E+01 -0.70086026103E+02  0.80045127730E+02  0.00000000000E+00 0. -1.
        -14    1    4    4    0    0 -0.40314734225E+02  0.56807921383E+01 -0.52071928109E+02  0.66098675417E+02  0.00000000000E+00 0.  1.
</event>
<event>
12    1  0.8331241E-002  0.1794173E+03  0.7818608E-02  0.1168603E+00
         21   -1    0    0  501  502  0.00000000000E+00  0.00000000000E+00  0.23746965931E+03  0.23746965931E+03  0.00000000000E+00 0. -1.
         21   -1    0    0  502  503 -0.00000000000E+00 -0.00000000000E+00 -0.34697276137E+03  0.34697276137E+03  0.00000000000E+00 0.  1.
         -6    2    1    2    0  503  0.19695847045E+02  0.43097445778E+02 -0.28330424934E+03  0.33533843920E+03  0.17304697306E+03 0.  0.
        -24    2    3    3    0    0 -0.42588664905E+02  0.26422720700E+02 -0.23887837088E+03  0.25689638694E+03  0.80130662051E+02 0.  0.
          6    2    1    2  501    0 -0.19695847045E+02 -0.43097445778E+02  0.17380114728E+03  0.24910398147E+03  0.17204836113E+03 0.  0.
         24    2    5    5    0    0 -0.38664731160E+02 -0.81412288609E+02  0.74176483612E+02  0.14059126629E+03  0.78363456173E+02 0.  0.
          5    1    5    5  501    0  0.18968884115E+02  0.38314842832E+02  0.99624663668E+02  0.10851271519E+03  0.47000000000E+01 0. -1.
        -11    1    6    6    0    0  0.42352304880E+01 -0.41978073671E+02 -0.47796721568E+01  0.42461054065E+02  0.00000000000E+00 0.  1.
         12    1    6    6    0    0 -0.42899961648E+02 -0.39434214938E+02  0.78956155769E+02  0.98130212223E+02  0.00000000000E+00 0. -1.
         -5    1    3    3    0  503  0.62284511949E+02  0.16674725078E+02 -0.44425878457E+02  0.78442052254E+02  0.47000000000E+01 0.  1.
         13    1    4    4    0    0 -0.12476706746E+02  0.18165683998E+02 -0.72892554795E+01  0.23211926499E+02  0.00000000000E+00 0. -1.
        -14    1    4    4    0    0 -0.30111958159E+02  0.82570367019E+01 -0.23158911540E+03  0.23368446044E+03  0.00000000000E+00 0.  1.
</event>
<event>
12    1  0.8331241E-002  0.2232068E+03  0.7818608E-02  0.1131566E+00
         21   -1    0    0  503  502  0.00000000000E+00  0.00000000000E+00  0.48127732497E+02  0.48127732497E+02  0.00000000000E+00 0. -1.
         21   -1    0    0  501  503 -0.00000000000E+00 -0.00000000000E+00 -0.10384046947E+04  0.10384046947E+04  0.00000000000E+00 0. -1.
          6    2    1    2  501    0  0.12418458476E+03 -0.69666750255E+02 -0.45903378281E+03  0.51030280255E+03  0.17152745947E+03 0.  0.
         24    2    3    3    0    0  0.28494586424E+02 -0.46672785469E+02 -0.10312826732E+03  0.14101142145E+03  0.79110625720E+02 0.  0.
         -6    2    1    2    0  502 -0.12418458476E+03  0.69666750255E+02 -0.53124317938E+03  0.57622962463E+03  0.17188949206E+03 0.  0.
        -24    2    5    5    0    0 -0.15693841145E+03  0.56207114037E+02 -0.47292371735E+03  0.50783938686E+03  0.80343610580E+02 0.  0.
          5    1    3    3  501    0  0.95689998331E+02 -0.22993964787E+02 -0.35590551549E+03  0.36929138110E+03  0.47000000000E+01 0. -1.
        -11    1    4    4    0    0 -0.14792357551E+02  0.14832838656E+02 -0.21579224102E+02  0.30074737860E+02  0.00000000000E+00 0.  1.
         12    1    4    4    0    0  0.43286943975E+02 -0.61505624125E+02 -0.81549043213E+02  0.11093668359E+03  0.00000000000E+00 0. -1.
         -5    1    5    5    0  502  0.32753826692E+02  0.13459636219E+02 -0.58319462028E+02  0.68390237763E+02  0.47000000000E+01 0.  1.
         13    1    6    6    0    0 -0.51404760503E+02  0.48607325424E+02 -0.11903436530E+03  0.13847130248E+03  0.00000000000E+00 0. -1.
        -14    1    6    6    0    0 -0.10553365094E+03  0.75997886127E+01 -0.35388935205E+03  0.36936808439E+03  0.00000000000E+00 0.  1.
</event>
<event>
12    1  0.8331241E-002  0.2725425E+03  0.7818608E-02  0.1099966E+00
         21   -1    0    0  501  502  0.00000000000E+00  0.00000000000E+00  0.26417489250E+03  0.26417489250E+03  0.00000000000E+00 0. -1.
         21   -1    0    0  502  503 -0.00000000000E+00 -0.00000000000E+00 -0.30535971943E+03  0.30535971943E+03  0.00000000000E+00 0. -1.
         -6    2    1    2    0  503 -0.20079334939E+03 -0.62648411337E+02 -0.10228476506E+03  0.29022720199E+03  0.17183382382E+03 0.  0.
        -24    2    3    3    0    0 -0.31657124308E+02 -0.93453218036E+01 -0.16924461830E+01  0.86292931681E+02  0.79712590755E+02 0.  0.
          6    2    1    2  501    0  0.20079334939E+03  0.62648411337E+02  0.61099938131E+02  0.27930740995E+03  0.17331080235E+03 0.  0.
         24    2    5    5    0    0  0.15651797354E+03  0.65438834090E+02 -0.18531423629E+02  0.18803124032E+03  0.78944389468E+02 0.  0.
          5    1    5    5  501    0  0.44275375848E+02 -0.27904227529E+01  0.79631361760E+02  0.91276169624E+02  0.47000000000E+01 0. -1.
        -11    1    6    6    0    0  0.61976946027E+02 -0.12526586928E+02 -0.17015198408E+02  0.65479570828E+02  0.00000000000E+00 0.  1.
         12    1    6    6    0    0  0.94541027511E+02  0.77965421018E+02 -0.15162252204E+01  0.12255166950E+03  0.00000000000E+00 0. -1.
         -5    1    3    3    0  503 -0.16913622508E+03 -0.53303089533E+02 -0.10059231888E+03  0.20393427031E+03  0.47000000000E+01 0.  1.
         13    1    4    4    0    0  0.16335902424E+02 -0.67748813176E+00 -0.26835290430E+02  0.31423773018E+02  0.00000000000E+00 0. -1.
        -14    1    4    4    0    0 -0.47993026733E+02 -0.86678336719E+01  0.25142844247E+02  0.54869158663E+02  0.00000000000E+00 0.  1.
</event>
<event>
12    1  0.8331241E-002  0.2632251E+03  0.7818608E-02  0.1105380E+00
         21   -1    0    0  503  502  0.00000000000E+00  0.00000000000E+00  0.23235484531E+03  0.23235484531E+03  0.00000000000E+00 0. -1.
         21   -1    0    0  501  503 -0.00000000000E+00 -0.00000000000E+00 -0.10186901248E+04  0.10186901248E+04  0.00000000000E+00 0. -1.
          6    2    1    2  501    0 -0.18949889696E+03  0.57424943204E+02 -0.91943815217E+03  0.95608083873E+03  0.17180395360E+03 0.  0.
         24    2    3    3    0    0 -0.21546482503E+02  0.23257884313E+02 -0.41204417360E+03  0.42050064780E+03  0.77686637893E+02 0.  0.
         -6    2    1    2    0  502  0.18949889696E+03 -0.57424943204E+02  0.13310287266E+03  0.29496413141E+03  0.17343589034E+03 0.  0.
        -24    2    5    5    0    0  0.15001506482E+03  0.21469842101E+02  0.11177842605E+03  0.20407858706E+03  0.78664981876E+02 0.  0.
          5    1    3    3  501    0 -0.16795241445E+03  0.34167058892E+02 -0.50739397857E+03  0.53558019094E+03  0.47000000000E+01 0. -1.
        -11    1    4    4    0    0 -0.30736277504E+02 -0.13449400850E+02 -0.86728219392E+02  0.92991339258E+02  0.00000000000E+00 0.  1.
         12    1    4    4    0    0  0.91897950005E+01  0.36707285163E+02 -0.32531595421E+03  0.32750930854E+03  0.00000000000E+00 0. -1.
         -5    1    5    5    0  502  0.39483832138E+02 -0.78894785306E+02  0.21324446610E+02  0.90885544351E+02  0.47000000000E+01 0.  1.
         11    1    6    6    0    0  0.43900644025E+02 -0.21959763331E+02  0.62006107558E+02  0.79083848704E+02  0.00000000000E+00 0. -1.
        -12    1    6    6    0    0  0.10611442079E+03  0.43429605432E+02  0.49772318488E+02  0.12499473835E+03  0.00000000000E+00 0.  1.
</event>
<event>
12    1  0.8331241E-002  0.1983238E+03  0.7818608E-02  0.1151194E+00
         21   -1    0    0  501  502  0.00000000000E+00  0.00000000000E+00  0.84831830380E+02  0.84831830380E+02  0.00000000000E+00 0.  1.
         21   -1    0    0  502  503 -0.00000000000E+00 -0.00000000000E+00 -0.64626616943E+03  0.64626616943E+03  0.00000000000E+00 0.  1.
         -6    2    1    2    0  503  0.33625390603E+02 -0.91320754814E+02 -0.47514738514E+03  0.51481627080E+03  0.17262852580E+03 0.  0.
        -24    2    3    3    0    0 -0.76668717884E+00 -0.11550848814E+03 -0.43255794550E+03  0.45478451398E+03  0.79873520651E+02 0.  0.
          6    2    1    2  501    0 -0.33625390603E+02  0.91320754814E+02 -0.86286953915E+02  0.21628172902E+03  0.17280683070E+03 0.  0.
         24    2    5    5    0    0 -0.81850872372E+00  0.49017677704E+02  0.21431454155E+02  0.95902381666E+02  0.79589929626E+02 0.  0.
          5    1    5    5  501    0 -0.32806881880E+02  0.42303077110E+02 -0.10771840807E+03  0.12037934735E+03  0.47000000000E+01 0. -1.
        -11    1    6    6    0    0 -0.20901225714E+02  0.32687593344E+01  0.37807914221E+02  0.43324178026E+02  0.00000000000E+00 0.  1.
         12    1    6    6    0    0  0.20082716990E+02  0.45748918370E+02 -0.16376460065E+02  0.52578203640E+02  0.00000000000E+00 0. -1.
         -5    1    3    3    0  503  0.34392077782E+02  0.24187733325E+02 -0.42589439639E+02  0.60031756815E+02  0.47000000000E+01 0.  1.
         13    1    4    4    0    0  0.67363162622E+01 -0.88078987622E+02 -0.40723806060E+03  0.41670868004E+03  0.00000000000E+00 0. -1.
        -14    1    4    4    0    0 -0.75030034410E+01 -0.27429500516E+02 -0.25319884900E+02  0.38075833944E+02  0.00000000000E+00 0.  1.
</event>
<event>
12    1  0.8331241E-002  0.1998511E+03  0.7818608E-02  0.1151180E+00
         21   -1    0    0  503  502  0.00000000000E+00  0.00000000000E+00  0.77300509121E+02  0.77300509121E+02  0.00000000000E+00 0. -1.
         21   -1    0    0  501  503 -0.00000000000E+00 -0.00000000000E+00 -0.51000792035E+03  0.51000792035E+03  0.00000000000E+00 0. -1.
          6    2    1    2  501    0 -0.26172333213E+02 -0.84304817560E+02 -0.18058071060E+03  0.26935082155E+03  0.17929913202E+03 0.  0.
         24    2    3    3    0    0 -0.29835532524E+02 -0.39785398315E+02 -0.19973993821E+03  0.22051882669E+03  0.79116831899E+02 0.  0.
         -6    2    1    2    0  502  0.26172333213E+02  0.84304817560E+02 -0.25212670063E+03  0.31795760792E+03  0.17244382845E+03 0.  0.
        -24    2    5    5    0    0  0.23670150411E+02 -0.10811847049E+02 -0.17904122186E+03  0.19788672047E+03  0.80163725939E+02 0.  0.
          5    1    3    3  501    0  0.36631993112E+01 -0.44519419245E+02  0.19159227614E+02  0.48831994858E+02  0.47000000000E+01 0. -1.
        -13    1    4    4    0    0 -0.37708665791E+02 -0.11637460650E+02 -0.33607070399E+02  0.51834439776E+02  0.00000000000E+00 0.  1.
         14    1    4    4    0    0  0.78731332668E+01 -0.28147937665E+02 -0.16613286781E+03  0.16868438692E+03  0.00000000000E+00 0. -1.
         -5    1    5    5    0  502  0.25021828016E+01  0.95116664609E+02 -0.73085478773E+02  0.12007088745E+03  0.47000000000E+01 0.  1.
         13    1    6    6    0    0  0.28746667681E+02  0.28633609271E+02 -0.12021911430E+03  0.12688140103E+03  0.00000000000E+00 0. -1.
        -14    1    6    6    0    0 -0.50765172696E+01 -0.39445456320E+02 -0.58822107551E+02  0.71005319439E+02  0.00000000000E+00 0.  1.
</event>
<event>
12    1  0.8331241E-002  0.2511629E+03  0.7818608E-02  0.1112723E+00
         21   -1    0    0  501  502  0.00000000000E+00  0.00000000000E+00  0.36105041991E+03  0.36105041991E+03  0.00000000000E+00 0. -1.
         21   -1    0    0  502  503 -0.00000000000E+00 -0.00000000000E+00 -0.19295050386E+03  0.19295050386E+03  0.00000000000E+00 0.  1.
         -6    2    1    2    0  503  0.11986684820E+03  0.13826567689E+03  0.17058973154E+03  0.30282563602E+03  0.17063719002E+03 0.  0.
        -24    2    3    3    0    0  0.12188418306E+03  0.16214996844E+03  0.12551645972E+03  0.25155947900E+03  0.79871293147E+02 0.  0.
          6    2    1    2  501    0 -0.11986684820E+03 -0.13826567689E+03 -0.24898154878E+01  0.25117528775E+03  0.17203885402E+03 0.  0.
         24    2    5    5    0    0 -0.20092961486E+02 -0.35470299791E+02 -0.46907563900E+02  0.10111948347E+03  0.79768171085E+02 0.  0.
          5    1    5    5  501    0 -0.99773886712E+02 -0.10279537710E+03  0.44417748413E+02  0.15005580428E+03  0.47000000000E+01 0. -1.
        -13    1    6    6    0    0 -0.51169389824E+02 -0.22310641651E+02 -0.28439241082E+02  0.62648716021E+02  0.00000000000E+00 0.  1.
         14    1    6    6    0    0  0.31076428337E+02 -0.13159658140E+02 -0.18468322819E+02  0.38470767452E+02  0.00000000000E+00 0. -1.
         -5    1    3    3    0  503 -0.20173348570E+01 -0.23884291549E+02  0.45073271823E+02  0.51266157020E+02  0.47000000000E+01 0.  1.
         13    1    4    4    0    0  0.12136749926E+03  0.10396111741E+03  0.93149876850E+02  0.18497265573E+03  0.00000000000E+00 0. -1.
        -14    1    4    4    0    0  0.51668379198E+00  0.58188851029E+02  0.32366582869E+02  0.66586823268E+02  0.00000000000E+00 0.  1.
</event>
<event>
12    1  0.8331241E-002  0.1934388E+03  0.7818608E-02  0.1155848E+00
         21   -1    0    0  503  502  0.00000000000E+00  0.00000000000E+00  0.13664986333E+03  0.13664986333E+03  0.00000000000E+00 0. -1.
         21   -1    0    0  501  503 -0.00000000000E+00 -0.00000000000E+00 -0.31094760576E+03  0.31094760576E+03  0.00000000000E+00 0. -1.
          6    2    1    2  501    0  0.37643669853E+02 -0.80726893795E+02 -0.16701587509E+03  0.25402161654E+03  0.16940720727E+03 0.  0.
         24    2    3    3    0    0 -0.63241383206E+01 -0.93909170287E+02 -0.60371105871E+02  0.13782291873E+03  0.80570214810E+02 0.  0.
         -6    2    1    2    0  502 -0.37643669853E+02  0.80726893795E+02 -0.72818673397E+01  0.19357585255E+03  0.17171111739E+03 0.  0.
        -24    2    5    5    0    0 -0.56399480937E+02  0.96749939722E+02  0.38403387474E+02  0.14144379947E+03  0.77395580971E+02 0.  0.
          5    1    3    3  501    0  0.43967808174E+02  0.13182276492E+02 -0.10664476922E+03  0.11619869780E+03  0.47000000000E+01 0. -1.
        -11    1    4    4    0    0 -0.41461048676E+02 -0.30953513663E+02 -0.23135674394E+02  0.56678020388E+02  0.00000000000E+00 0.  1.
         12    1    4    4    0    0  0.35136910355E+02 -0.62955656623E+02 -0.37235431476E+02  0.81144898345E+02  0.00000000000E+00 0. -1.
         -5    1    5    5    0  502  0.18755811084E+02 -0.16023045928E+02 -0.45685254813E+02  0.52132053073E+02  0.47000000000E+01 0.  1.
         11    1    6    6    0    0 -0.40768804037E+02  0.48843471460E+02 -0.17693687639E+02  0.66036706983E+02  0.00000000000E+00 0. -1.
        -12    1    6    6    0    0 -0.15630676900E+02  0.47906468263E+02  0.56097075113E+02  0.75407092491E+02  0.00000000000E+00 0.  1.
</event>
<event>
12    1  0.8331241E-002  0.2390070E+03  0.7818608E-02  0.1120714E+00
         21   -1    0    0  503  502  0.00000000000E+00  0.00000000000E+00  0.37542166738E+03  0.37542166738E+03  0.00000000000E+00 0. -1.
         21   -1    0    0  501  503 -0.00000000000E+00 -0.00000000000E+00 -0.15639074970E+03  0.15639074970E+03  0.00000000000E+00 0. -1.
          6    2    1    2  501    0  0.12159186082E+03 -0.11181913419E+03  0.60660666425E+02  0.24509747220E+03  0.17060174395E+03 0.  0.
         24    2    3    3    0    0 -0.58655813099E+01 -0.28434815535E+02  0.14571330715E+02  0.85897406189E+02  0.79517903220E+02 0.  0.
         -6    2    1    2    0  502 -0.12159186082E+03  0.11181913419E+03  0.15837025125E+03  0.28671494488E+03  0.17273165242E+03 0.  0.
        -24    2    5    5    0    0 -0.15589958880E+03  0.10529788944E+03  0.13656771570E+03  0.24527839834E+03  0.78220358056E+02 0.  0.
          5    1    3    3  501    0  0.12745744213E+03 -0.83384318654E+02  0.46089335710E+02  0.15920006601E+03  0.47000000000E+01 0. -1.
        -13    1    4    4    0    0  0.22563603298E+02  0.18367576868E+02  0.10703363209E+02  0.31000742858E+02  0.00000000000E+00 0.  1.
         14    1    4    4    0    0 -0.28429184608E+02 -0.46802392403E+02  0.38679675059E+01  0.54896663330E+02  0.00000000000E+00 0. -1.
         -5    1    5    5    0  502  0.34307727981E+02  0.65212447501E+01  0.21802535558E+02  0.41436546539E+02  0.47000000000E+01 0.  1.
         13    1    6    6    0    0 -0.13083271346E+03  0.11250966350E+03  0.13510247626E+03  0.21915360454E+03  0.00000000000E+00 0. -1.
        -14    1    6    6    0    0 -0.25066875342E+02 -0.72117740642E+01  0.14652394399E+01  0.26124793802E+02  0.00000000000E+00 0.  1.
</event>
<event>
12    1  0.8331241E-002  0.1801022E+03  0.7818608E-02  0.1167866E+00
         21   -1    0    0  501  502  0.00000000000E+00  0.00000000000E+00  0.18513745014E+04  0.18513745014E+04  0.00000000000E+00 0. -1.
         21   -1    0    0  502  503 -0.00000000000E+00 -0.00000000000E+00 -0.17952856428E+02  0.17952856428E+02  0.00000000000E+00 0. -1.
         -6    2    1    2    0  503  0.14219987881E+02  0.49431923444E+02  0.75949946917E+03  0.78040787256E+03  0.17190485965E+03 0.  0.
        -24    2    3    3    0    0  0.10176384951E+02 -0.37755157837E+01  0.67851575219E+03  0.68331083486E+03  0.80076574221E+02 0.  0.
          6    2    1    2  501    0 -0.14219987881E+02 -0.49431923444E+02  0.10739221758E+04  0.10889194852E+04  0.17260093455E+03 0.  0.
         24    2    5    5    0    0  0.33878205380E+02  0.14190182693E+02  0.36378171296E+03  0.37429876380E+03  0.80083305470E+02 0.  0.
          5    1    5    5  501    0 -0.48098193261E+02 -0.63622106137E+02  0.71014046281E+03  0.71462072143E+03  0.47000000000E+01 0. -1.
        -13    1    6    6    0    0  0.34034611846E+01  0.14521916672E+02  0.74616128259E+01  0.16677688024E+02  0.00000000000E+00 0.  1.
         14    1    6    6    0    0  0.30474744195E+02 -0.33173397887E+00  0.35632010013E+03  0.35762107578E+03  0.00000000000E+00 0. -1.
         -5    1    3    3    0  503  0.40436029303E+01  0.53207439228E+02  0.80983716978E+02  0.97097037696E+02  0.47000000000E+01 0.  1.
         11    1    4    4    0    0 -0.26074321747E+02  0.22839603221E+02  0.23905501789E+03  0.24155500266E+03  0.00000000000E+00 0. -1.
        -12    1    4    4    0    0  0.36250706698E+02 -0.26615119005E+02  0.43946073429E+03  0.44175583220E+03  0.00000000000E+00 0.  1.
</event>
<event>
12    1  0.8331241E-002  0.2563365E+03  0.7818608E-02  0.1109371E+00
         21   -1    0    0  503  502  0.00000000000E+00  0.00000000000E+00  0.86247710171E+03  0.86247710171E+03  0.00000000000E+00 0.  1.
         21   -1    0    0  501  503 -0.00000000000E+00 -0.00000000000E+00 -0.87295866043E+02  0.87295866043E+02  0.00000000000E+00 0.  1.
          6    2    1    2  501    0  0.14475169443E+03  0.12479733658E+03  0.21805212575E+03  0.33650201451E+03  0.17076137727E+03 0.  0.
         24    2    3    3    0    0  0.62443385556E+02  0.10720308763E+03  0.64952287795E+02  0.16172825879E+03  0.80904583340E+02 0.  0.
         -6    2    1    2    0  502 -0.14475169443E+03 -0.12479733658E+03  0.55712910991E+03  0.61327095324E+03  0.17082443830E+03 0.  0.
        -24    2    5    5    0    0 -0.39560651276E+02 -0.10683497352E+03  0.39332669983E+03  0.41771758049E+03  0.82482286297E+02 0.  0.
          5    1    3    3  501    0  0.82308308873E+02  0.17594248950E+02  0.15309983796E+03  0.17477375572E+03  0.47000000000E+01 0. -1.
        -11    1    4    4    0    0 -0.19258457067E+02  0.27146163956E+02  0.19969009230E+02  0.38814478172E+02  0.00000000000E+00 0.  1.
         12    1    4    4    0    0  0.81701842624E+02  0.80056923669E+02  0.44983278564E+02  0.12291378062E+03  0.00000000000E+00 0. -1.
         -5    1    5    5    0  502 -0.10519104315E+03 -0.17962363052E+02  0.16380241008E+03  0.19555337275E+03  0.47000000000E+01 0.  1.
         11    1    6    6    0    0 -0.48810591859E+01  0.14003438792E+02  0.36818650138E+02  0.39692997302E+02  0.00000000000E+00 0. -1.
        -12    1    6    6    0    0 -0.34679592090E+02 -0.12083841232E+03  0.35650804970E+03  0.37802458319E+03  0.00000000000E+00 0.  1.
</event>
<event>
12    1  0.8331241E-002  0.1834908E+03  0.7818608E-02  0.1165218E+00
         21   -1    0    0  503  502  0.00000000000E+00  0.00000000000E+00  0.59872038810E+03  0.59872038810E+03  0.00000000000E+00 0.  1.
         21   -1    0    0  501  503 -0.00000000000E+00 -0.00000000000E+00 -0.81558454655E+02  0.81558454655E+02  0.00000000000E+00 0.  1.
          6    2    1    2  501    0 -0.36007047092E+02  0.43759288841E+02  0.63961554567E+02  0.19134177467E+03  0.17119933256E+03 0.  0.
         24    2    3    3    0    0 -0.49656727737E+00  0.89150465761E+02  0.57436945843E+02  0.13315231138E+03  0.80513869320E+02 0.  0.
         -6    2    1    2    0  502  0.36007047092E+02 -0.43759288841E+02  0.45320037888E+03  0.48893706809E+03  0.17452074471E+03 0.  0.
        -24    2    5    5    0    0 -0.86676391625E+01 -0.29310585044E+02  0.42615472466E+03  0.43454819013E+03  0.79309783966E+02 0.  0.
          5    1    3    3  501    0 -0.35510479814E+02 -0.45391176921E+02  0.65246087235E+01  0.58189463289E+02  0.47000000000E+01 0. -1.
        -13    1    4    4    0    0 -0.17817802172E+02  0.34600189460E+02 -0.14227744267E+02  0.41437614456E+02  0.00000000000E+00 0.  1.
         14    1    4    4    0    0  0.17321234894E+02  0.54550276301E+02  0.71664690110E+02  0.91714696922E+02  0.00000000000E+00 0. -1.
         -5    1    5    5    0  502  0.44674686254E+02 -0.14448703796E+02  0.27045654218E+02  0.54388877957E+02  0.47000000000E+01 0.  1.
         11    1    6    6    0    0 -0.15529211038E+02 -0.81366737417E+01  0.15832313736E+02  0.23622531898E+02  0.00000000000E+00 0. -1.
        -12    1    6    6    0    0  0.68615718757E+01 -0.21173911303E+02  0.41032241093E+03  0.41092565824E+03  0.00000000000E+00 0.  1.
</event>
<event>
12    1  0.8331241E-002  0.1921714E+03  0.7818608E-02  0.1156662E+00
         21   -1    0    0  501  502  0.00000000000E+00  0.00000000000E+00  0.96770973253E+02  0.96770973253E+02  0.00000000000E+00 0.  1.
         21   -1    0    0  502  503 -0.00000000000E+00 -0.00000000000E+00 -0.38908971097E+03  0.38908971097E+03  0.00000000000E+00 0.  1.
         -6    2    1    2    0  503 -0.23511491797E+02 -0.81913732640E+02 -0.18284730271E+03  0.26526018804E+03  0.17224163668E+03 0.  0.
        -24    2    3    3    0    0 -0.66379519018E+02 -0.70505655636E+02 -0.18222840803E+03  0.22064757761E+03  0.78108084019E+02 0.  0.
          6    2    1    2  501    0  0.23511491797E+02  0.81913732640E+02 -0.10947143500E+03  0.22060049619E+03  0.17151657061E+03 0.  0.
         24    2    5    5    0    0 -0.47811097195E+02  0.60665648428E+02 -0.91106417293E+02  0.14380364300E+03  0.80080500465E+02 0.  0.
          5    1    5    5  501    0  0.71322588993E+02  0.21248084213E+02 -0.18365017710E+02  0.76796853183E+02  0.47000000000E+01 0. -1.
        -11    1    6    6    0    0 -0.42617295462E+02  0.61234303289E+02 -0.26780393582E+02  0.79265776046E+02  0.00000000000E+00 0.  1.
         12    1    6    6    0    0 -0.51938017335E+01 -0.56865486177E+00 -0.64326023712E+02  0.64537866957E+02  0.00000000000E+00 0. -1.
         -5    1    3    3    0  503  0.42868027221E+02 -0.11408077004E+02 -0.61889468535E+00  0.44612610430E+02  0.47000000000E+01 0.  1.
         13    1    4    4    0    0 -0.31095307093E+02  0.12773961270E+02 -0.42270989731E+02  0.54008599154E+02  0.00000000000E+00 0. -1.
        -14    1    4    4    0    0 -0.35284211925E+02 -0.83279616906E+02 -0.13995741830E+03  0.16663897845E+03  0.00000000000E+00 0.  1.
</event>
<event>
12    1  0.8331241E-002  0.1876507E+03  0.7818608E-02  0.1161092E+00
         21   -1    0    0  501  502  0.00000000000E+00  0.00000000000E+00  0.38871648010E+03  0.38871648010E+03  0.00000000000E+00 0.  1.
         21   -1    0    0  502  503 -0.00000000000E+00 -0.00000000000E+00 -0.92958984802E+02  0.92958984802E+02  0.00000000000E+00 0. -1.
         -6    2    1    2    0  503 -0.60396647601E+02 -0.31928159751E+02  0.10097818577E+03  0.21120966804E+03  0.17246961311E+03 0.  0.
        -24    2    3    3    0    0 -0.74351627984E+02  0.29734387159E+02  0.27907939895E+02  0.11447104080E+03  0.76892572525E+02 0.  0.
          6    2    1    2  501    0  0.60396647601E+02  0.31928159751E+02  0.19477930953E+03  0.27046579685E+03  0.17477301114E+03 0.  0.
         24    2    5    5    0    0  0.35195247967E+01  0.80685122255E+02  0.13666427138E+03  0.17553584294E+03  0.74921512779E+02 0.  0.
          5    1    5    5  501    0  0.56877122804E+02 -0.48756962504E+02  0.58115038151E+02  0.94929953915E+02  0.47000000000E+01 0. -1.
        -11    1    6    6    0    0  0.78878809711E+01  0.23320474909E+02  0.10891473080E+03  0.11166235624E+03  0.00000000000E+00 0.  1.
         12    1    6    6    0    0 -0.43683561745E+01  0.57364647346E+02  0.27749540579E+02  0.63873486699E+02  0.00000000000E+00 0. -1.
         -5    1    3    3    0  503  0.13954980383E+02 -0.61662546909E+02  0.73070245873E+02  0.96738627242E+02  0.47000000000E+01 0.  1.
         13    1    4    4    0    0 -0.13915881114E+02 -0.25467824877E+02  0.98775411477E+01  0.30656608916E+02  0.00000000000E+00 0. -1.
        -14    1    4    4    0    0 -0.60435746870E+02  0.55202212035E+02  0.18030398747E+02  0.83814431885E+02  0.00000000000E+00 0.  1.
</event>
<event>
12    1  0.8331241E-002  0.1927879E+03  0.7818608E-02  0.1156039E+00
         21   -1    0    0  503  502  0.00000000000E+00  0.00000000000E+00  0.45530570670E+03  0.45530570670E+03  0.00000000000E+00 0. -1.
         21   -1    0    0  501  503 -0.00000000000E+00 -0.00000000000E+00 -0.90230346275E+02  0.90230346275E+02  0.00000000000E+00 0. -1.
          6    2    1    2  501    0  0.26721070977E+02 -0.80991200854E+02  0.26724592335E+03  0.32934686851E+03  0.17255545776E+03 0.  0.
         24    2    3    3    0    0  0.12052233354E+02 -0.12303477799E+03  0.19663370295E+03  0.24573459163E+03  0.80236297666E+02 0.  0.
         -6    2    1    2    0  502 -0.26721070977E+02  0.80991200854E+02  0.97829437077E+02  0.21618918446E+03  0.17289758376E+03 0.  0.
        -24    2    5    5    0    0 -0.60924993278E+02  0.84493569391E+02  0.21630702768E+02  0.13246038418E+03  0.78910379554E+02 0.  0.
          5    1    3    3  501    0  0.14668837623E+02  0.42043577138E+02  0.70612220393E+02  0.83612276877E+02  0.47000000000E+01 0. -1.
        -13    1    4    4    0    0 -0.64297329803E-01 -0.12915737334E+02 -0.64216504848E+01  0.14424215749E+02  0.00000000000E+00 0.  1.
         14    1    4    4    0    0  0.12116530684E+02 -0.11011904066E+03  0.20305535344E+03  0.23131037588E+03  0.00000000000E+00 0. -1.
         -5    1    5    5    0  502  0.34203922301E+02 -0.35023685362E+01  0.76198734309E+02  0.83728800281E+02  0.47000000000E+01 0.  1.
         11    1    6    6    0    0 -0.46484432399E+02  0.59872340126E+02 -0.23238772506E+02  0.79281398293E+02  0.00000000000E+00 0. -1.
        -12    1    6    6    0    0 -0.14440560879E+02  0.24621229264E+02  0.44869475273E+02  0.53178985890E+02  0.00000000000E+00 0.  1.
</event>
<event>
12    1  0.8331241E-002  0.2296224E+03  0.7818608E-02  0.1127928E+00
         21   -1    0    0  503  502  0.00000000000E+00  0.00000000000E+00  0.60194192350E+02  0.60194192350E+02  0.00000000000E+00 0.  1.
         21   -1    0    0  501  503 -0.00000000000E+00 -0.00000000000E+00 -0.98720699908E+03  0.98720699908E+03  0.00000000000E+00 0. -1.
          6    2    1    2  501    0  0.12968803661E+03  0.61016268268E+02 -0.26627237509E+03  0.34789823850E+03  0.17201812341E+03 0.  0.
         24    2    3    3    0    0  0.89475787211E+02  0.64186577799E+02 -0.81565895878E+02  0.15878015548E+03  0.80201677887E+02 0.  0.
         -6    2    1    2    0  502 -0.12968803661E+03 -0.61016268268E+02 -0.66074043164E+03  0.69950295293E+03  0.17940036600E+03 0.  0.
        -24    2    5    5    0    0 -0.35010420970E+02  0.29539201699E+02 -0.35624538139E+03  0.36798603078E+03  0.80029076435E+02 0.  0.
          5    1    3    3  501    0  0.40212249397E+02 -0.31703095306E+01 -0.18470647921E+03  0.18911808302E+03  0.47000000000E+01 0. -1.
        -11    1    4    4    0    0  0.78310320541E+02  0.12128517948E+02 -0.66494142356E+02  0.10344601596E+03  0.00000000000E+00 0.  1.
         12    1    4    4    0    0  0.11165466670E+02  0.52058059851E+02 -0.15071753523E+02  0.55334139513E+02  0.00000000000E+00 0. -1.
         -5    1    5    5    0  502 -0.94677615638E+02 -0.90555469967E+02 -0.30449505025E+03  0.33151692215E+03  0.47000000000E+01 0.  1.
         11    1    6    6    0    0 -0.20405700663E+02 -0.19726498969E+02 -0.22907600458E+03  0.23082751841E+03  0.00000000000E+00 0. -1.
        -12    1    6    6    0    0 -0.14604720307E+02  0.49265700668E+02 -0.12716937681E+03  0.13715851237E+03  0.00000000000E+00 0.  1.
</event>
<event>
12    1  0.8331241E-002  0.1968643E+03  0.7818608E-02  0.1152716E+00
         21   -1    0    0  501  502  0.00000000000E+00  0.00000000000E+00  0.23027730406E+04  0.23027730406E+04  0.00000000000E+00 0. -1.
         21   -1    0    0  502  503 -0.00000000000E+00 -0.00000000000E+00 -0.17644969617E+02  0.17644969617E+02  0.00000000000E+00 0. -1.
         -6    2    1    2    0  503 -0.38180462317E+02  0.86174003362E+02  0.14057678593E+04  0.14192909659E+04  0.17123044475E+03 0.  0.
        -24    2    3    3    0    0 -0.59020509268E+02  0.11853246939E+03  0.12011375920E+04  0.12110194745E+04  0.79393234753E+02 0.  0.
          6    2    1    2  501    0  0.38180462317E+02 -0.86174003362E+02  0.87936021169E+03  0.90112704428E+03  0.17283478085E+03 0.  0.
         24    2    5    5    0    0 -0.21334280754E+02 -0.88704839941E+02  0.73404757514E+03  0.74400841993E+03  0.79993663458E+02 0.  0.
          5    1    5    5  501    0  0.59514743071E+02  0.25308365787E+01  0.14531263655E+03  0.15711862435E+03  0.47000000000E+01 0. -1.
        -11    1    6    6    0    0 -0.18447882468E+02 -0.76877647348E+02  0.31452458416E+03  0.32430882053E+03  0.00000000000E+00 0.  1.
         12    1    6    6    0    0 -0.28863982859E+01 -0.11827192592E+02  0.41952299098E+03  0.41969959940E+03  0.00000000000E+00 0. -1.
         -5    1    3    3    0  503  0.20840046951E+02 -0.32358466030E+02  0.20463026726E+03  0.20827149147E+03  0.47000000000E+01 0.  1.
         13    1    4    4    0    0 -0.49045313901E+02  0.24721164372E+02  0.60196135223E+03  0.60446178403E+03  0.00000000000E+00 0. -1.
        -14    1    4    4    0    0 -0.99751953673E+01  0.93811305020E+02  0.59917623981E+03  0.60655769043E+03  0.00000000000E+00 0.  1.
</event>
<event>
12    1  0.8331241E-002  0.1992050E+03  0.7818608E-02  0.1150528E+00
         21   -1    0    0  503  502  0.00000000000E+00  0.00000000000E+00  0.33566371071E+03  0.33566371071E+03  0.00000000000E+00 0.  1.
         21   -1    0    0  501  503 -0.00000000000E+00 -0.00000000000E+00 -0.37183739746E+03  0.37183739746E+03  0.00000000000E+00 0.  1.
          6    2    1    2  501    0 -0.53314974172E+02  0.84895876449E+02 -0.31041889124E+03  0.36854231068E+03  0.17150437433E+03 0.  0.
         24    2    3    3    0    0 -0.50589356654E+02  0.83434376366E+02 -0.32849760841E+03  0.34960834680E+03  0.69244055758E+02 0.  0.
         -6    2    1    2    0  502  0.53314974172E+02 -0.84895876449E+02  0.27424520449E+03  0.33895879749E+03  0.17214191210E+03 0.  0.
        -24    2    5    5    0    0  0.85279656185E+02 -0.10875969095E+03  0.19986588528E+03  0.25442717226E+03  0.75402412085E+02 0.  0.
          5    1    3    3  501    0 -0.27256175181E+01  0.14615000831E+01  0.18078717172E+02  0.18933963873E+02  0.47000000000E+01 0. -1.
        -13    1    4    4    0    0 -0.33786564562E+02  0.93935686258E+02 -0.27528842792E+03  0.29282958123E+03  0.00000000000E+00 0.  1.
         14    1    4    4    0    0 -0.16802792092E+02 -0.10501309892E+02 -0.53209180487E+02  0.56778765570E+02  0.00000000000E+00 0. -1.
         -5    1    5    5    0  502 -0.31964682013E+02  0.23863814501E+02  0.74379319211E+02  0.84531625235E+02  0.47000000000E+01 0.  1.
         11    1    6    6    0    0  0.51447610730E+02 -0.39936478606E+02  0.38228052907E+02  0.75519288943E+02  0.00000000000E+00 0. -1.
        -12    1    6    6    0    0  0.33832045455E+02 -0.68823212343E+02  0.16163783237E+03  0.17890788331E+03  0.00000000000E+00 0.  1.
</event>
<event>
12    1  0.8331241E-002  0.1765046E+03  0.7818608E-02  0.1171577E+00
         21   -1    0    0  503  502  0.00000000000E+00  0.00000000000E+00  0.21540419410E+03  0.21540419410E+03  0.00000000000E+00 0.  1.
         21   -1    0    0  501  503 -0.00000000000E+00 -0.00000000000E+00 -0.21635572182E+03  0.21635572182E+03  0.00000000000E+00 0.  1.
          6    2    1    2  501    0 -0.31922045725E+02 -0.24460088880E+02 -0.12575724611E+03  0.21558785836E+03  0.17042865595E+03 0.  0.
         24    2    3    3    0    0 -0.76318569891E+02  0.20285296575E+02 -0.83955282036E+02  0.13980728645E+03  0.79130086543E+02 0.  0.
         -6    2    1    2    0  502  0.31922045725E+02  0.24460088880E+02  0.12480571838E+03  0.21617205756E+03  0.17186209058E+03 0.  0.
        -24    2    5    5    0    0 -0.10334274751E+02 -0.18620916222E+01  0.14140620700E+03  0.16348315903E+03  0.81368072901E+02 0.  0.
          5    1    3    3  501    0  0.44396524166E+02 -0.44745385455E+02 -0.41801964075E+02  0.75780571904E+02  0.47000000000E+01 0. -1.
        -11    1    4    4    0    0 -0.43700691467E+02 -0.19705969605E+02 -0.72547086186E+02  0.86954904329E+02  0.00000000000E+00 0.  1.
         12    1    4    4    0    0 -0.32617878424E+02  0.39991266180E+02 -0.11408195849E+02  0.52852382124E+02  0.00000000000E+00 0. -1.
         -5    1    5    5    0  502  0.42256320476E+02  0.26322180502E+02 -0.16600488618E+02  0.52688898536E+02  0.47000000000E+01 0.  1.
         13    1    6    6    0    0 -0.34686242930E+02 -0.28125904498E+01  0.21021561842E+02  0.40656514557E+02  0.00000000000E+00 0. -1.
        -14    1    6    6    0    0  0.24351968178E+02  0.95049882758E+00  0.12038464516E+03  0.12282664447E+03  0.00000000000E+00 0.  1.
</event>
<event>
12    1  0.8331241E-002  0.1812890E+03  0.7818608E-02  0.1166853E+00
         21   -1    0    0  501  502  0.00000000000E+00  0.00000000000E+00  0.41527796362E+03  0.41527796362E+03  0.00000000000E+00 0.  1.
         21   -1    0    0  502  503 -0.00000000000E+00 -0.00000000000E+00 -0.23838368917E+03  0.23838368917E+03  0.00000000000E+00 0.  1.
         -6    2    1    2    0  503  0.29270569391E+02 -0.45949313175E+02 -0.17902160345E+03  0.25478315074E+03  0.17290926459E+03 0.  0.
        -24    2    3    3    0    0  0.23183711872E+02 -0.25240480511E+02 -0.20315933862E+03  0.22206273137E+03  0.82846686369E+02 0.  0.
          6    2    1    2  501    0 -0.29270569391E+02  0.45949313175E+02  0.35591587791E+03  0.39887850205E+03  0.17163869505E+03 0.  0.
         24    2    5    5    0    0 -0.55659946304E+02  0.92074992453E+02  0.27384664304E+03  0.30099373912E+03  0.63477659280E+02 0.  0.
          5    1    5    5  501    0  0.26389376913E+02 -0.46125679278E+02  0.82069234869E+02  0.97884762934E+02  0.47000000000E+01 0. -1.
        -13    1    6    6    0    0 -0.23074474725E+02  0.67361455292E+02  0.10230753875E+03  0.12464681916E+03  0.00000000000E+00 0.  1.
         14    1    6    6    0    0 -0.32585471579E+02  0.24713537161E+02  0.17153910429E+03  0.17634691996E+03  0.00000000000E+00 0. -1.
         -5    1    3    3    0  503  0.60868575191E+01 -0.20708832665E+02  0.24137735165E+02  0.32720419369E+02  0.47000000000E+01 0.  1.
         13    1    4    4    0    0  0.68616753517E+01  0.11188086188E+02  0.18043434523E+01  0.13248075954E+02  0.00000000000E+00 0. -1.
        -14    1    4    4    0    0  0.16322036520E+02 -0.36428566699E+02 -0.20496368207E+03  0.20881465541E+03  0.00000000000E+00 0.  1.
</event>
<event>
12    1  0.8331241E-002  0.2585259E+03  0.7818608E-02  0.1108580E+00
         21   -1    0    0  503  502  0.00000000000E+00  0.00000000000E+00  0.16929395665E+03  0.16929395665E+03  0.00000000000E+00 0. -1.
         21   -1    0    0  501  503 -0.00000000000E+00 -0.00000000000E+00 -0.45890007094E+03  0.45890007094E+03  0.00000000000E+00 0. -1.
          6    2    1    2  501    0  0.18746317862E+03  0.18101016113E+02 -0.26624741534E+03  0.36861504317E+03  0.17181173928E+03 0.  0.
         24    2    3    3    0    0  0.83624643200E+02  0.46067291507E+02 -0.63038064565E+02  0.13865703779E+03  0.78337093686E+02 0.  0.
         -6    2    1    2    0  502 -0.18746317862E+03 -0.18101016113E+02 -0.23358698942E+02  0.25957898442E+03  0.17710316263E+03 0.  0.
        -24    2    5    5    0    0 -0.88665983121E+02  0.58726004768E+02 -0.10635455046E+02  0.13369313171E+03  0.80314011009E+02 0.  0.
          5    1    3    3  501    0  0.10383853542E+03 -0.27966275394E+02 -0.20320935078E+03  0.22995800538E+03  0.47000000000E+01 0. -1.
        -13    1    4    4    0    0  0.61606651327E+02  0.13541007651E+01 -0.45146611063E+01  0.61786691460E+02  0.00000000000E+00 0.  1.
         14    1    4    4    0    0  0.22017991873E+02  0.44713190742E+02 -0.58523403459E+02  0.76870346330E+02  0.00000000000E+00 0. -1.
         -5    1    5    5    0  502 -0.98797195496E+02 -0.76827020881E+02 -0.12723243896E+02  0.12588585270E+03  0.47000000000E+01 0.  1.
         13    1    6    6    0    0 -0.31370272221E+02  0.47072784141E+02  0.28493796770E+02  0.63339067252E+02  0.00000000000E+00 0. -1.
        -14    1    6    6    0    0 -0.57295710901E+02  0.11653220628E+02 -0.39129251816E+02  0.70354064462E+02  0.00000000000E+00 0.  1.
</event>
<event>
12    1  0.8331241E-002  0.1979439E+03  0.7818608E-02  0.1153820E+00
         21   -1    0    0  503  502  0.00000000000E+00  0.00000000000E+00  0.10709240956E+04  0.10709240956E+04  0.00000000000E+00 0.  1.
         21   -1    0    0  501  503 -0.00000000000E+00 -0.00000000000E+00 -0.34704238022E+03  0.34704238022E+03  0.00000000000E+00 0. -1.
          6    2    1    2  501    0  0.55580991949E+02 -0.51765350139E+02 -0.30969468517E+03  0.36754943776E+03  0.18279193920E+03 0.  0.
         24    2    3    3    0    0 -0.32127108271E+02 -0.63236534200E+02 -0.14878518858E+03  0.18386967567E+03  0.81486286874E+02 0.  0.
         -6    2    1    2    0  502 -0.55580991949E+02  0.51765350139E+02  0.10335764006E+04  0.10504170381E+04  0.17125092687E+03 0.  0.
        -24    2    5    5    0    0 -0.51253668244E+02  0.98416713346E+02  0.62079079143E+03  0.63495449522E+03  0.73981188791E+02 0.  0.
          5    1    3    3  501    0  0.87708100221E+02  0.11471184061E+02 -0.16090949659E+03  0.18367976209E+03  0.47000000000E+01 0. -1.
        -13    1    4    4    0    0  0.87300724933E+01 -0.65348953639E+02 -0.10467516611E+03  0.12370768087E+03  0.00000000000E+00 0.  1.
         14    1    4    4    0    0 -0.40857180765E+02  0.21124194393E+01 -0.44110022469E+02  0.60161994798E+02  0.00000000000E+00 0. -1.
         -5    1    5    5    0  502 -0.43273237058E+01 -0.46651363206E+02  0.41278560913E+03  0.41546254287E+03  0.47000000000E+01 0.  1.
         13    1    6    6    0    0  0.14779873294E+02  0.12886781263E+02  0.44614782769E+02  0.48733896083E+02  0.00000000000E+00 0. -1.
        -14    1    6    6    0    0 -0.66033541537E+02  0.85529932083E+02  0.57617600866E+03  0.58622059913E+03  0.00000000000E+00 0.  1.
</event>
<event>
12    1  0.8331241E-002  0.1762687E+03  0.7818608E-02  0.1171676E+00
         21   -1    0    0  501  502  0.00000000000E+00  0.00000000000E+00  0.39134867723E+03  0.39134867723E+03  0.00000000000E+00 0. -1.
         21   -1    0    0  502  503 -0.00000000000E+00 -0.00000000000E+00 -0.85693772020E+02  0.85693772020E+02  0.00000000000E+00 0. -1.
         -6    2    1    2    0  503 -0.29131999723E+02 -0.10070464294E+02  0.86558251296E+02  0.19637457052E+03  0.17355273959E+03 0.  0.
        -24    2    3    3    0    0 -0.33512981561E+02 -0.31016717220E+02  0.12261290910E+03  0.15418491701E+03  0.81571480774E+02 0.  0.
          6    2    1    2  501    0  0.29131999723E+02  0.10070464294E+02  0.21909665391E+03  0.28066787873E+03  0.17268765658E+03 0.  0.
         24    2    5    5    0    0  0.81042488977E+02  0.16180062952E+02  0.10677701058E+03  0.15669280717E+03  0.79508655965E+02 0.  0.
          5    1    5    5  501    0 -0.51910489253E+02 -0.61095986578E+01  0.11231964333E+03  0.12397507156E+03  0.47000000000E+01 0. -1.
        -11    1    6    6    0    0  0.54563759413E+02 -0.16929051048E+02  0.97943183685E+02  0.11338722962E+03  0.00000000000E+00 0.  1.
         12    1    6    6    0    0  0.26478729564E+02  0.33109114000E+02  0.88338268943E+01  0.43305577548E+02  0.00000000000E+00 0. -1.
         -5    1    3    3    0  503  0.43809818377E+01  0.20946252926E+02 -0.36054657805E+02  0.42189653505E+02  0.47000000000E+01 0.  1.
         11    1    4    4    0    0  0.19355998664E+02 -0.26741815059E+02  0.19795428504E+02  0.38492055630E+02  0.00000000000E+00 0. -1.
        -12    1    4    4    0    0 -0.52868980225E+02 -0.42749021608E+01  0.10281748060E+03  0.11569286138E+03  0.00000000000E+00 0.  1.
</event>
<event>
12    1  0.8331241E-002  0.2026036E+03  0.7818608E-02  0.1149010E+00
         21   -1    0    0  501  502  0.00000000000E+00  0.00000000000E+00  0.79377592160E+03  0.79377592160E+03  0.00000000000E+00 0.  1.
         21   -1    0    0  502  503 -0.00000000000E+00 -0.00000000000E+00 -0.53785586369E+02  0.53785586369E+02  0.00000000000E+00 0. -1.
         -6    2    1    2    0  503  0.94524408073E+02  0.49901741074E+02  0.26315975678E+03  0.33211633282E+03  0.17211378055E+03 0.  0.
        -24    2    3    3    0    0  0.12630040732E+03  0.60504225983E+02  0.24545812447E+03  0.29393826843E+03  0.80854564033E+02 0.  0.
          6    2    1    2  501    0 -0.94524408073E+02 -0.49901741074E+02  0.47683057846E+03  0.51544517515E+03  0.16398561080E+03 0.  0.
         24    2    5    5    0    0 -0.11192520297E+03 -0.82418285712E+02  0.40549374732E+03  0.43500173655E+03  0.74035848078E+02 0.  0.
          5    1    5    5  501    0  0.17400794895E+02  0.32516544638E+02  0.71336831134E+02  0.80443438604E+02  0.47000000000E+01 0. -1.
        -13    1    6    6    0    0  0.17353016582E-01 -0.28123380839E+02  0.12546822453E+03  0.12858149252E+03  0.00000000000E+00 0.  1.
         14    1    6    6    0    0 -0.11194255598E+03 -0.54294904873E+02  0.28002552279E+03  0.30642024403E+03  0.00000000000E+00 0. -1.
         -5    1    3    3    0  503 -0.31775999250E+02 -0.10602484908E+02  0.17701632303E+02  0.38178064393E+02  0.47000000000E+01 0.  1.
         13    1    4    4    0    0 -0.51988419540E+00  0.77769726356E+01 -0.43040422935E+01  0.89037274788E+01  0.00000000000E+00 0. -1.
        -14    1    4    4    0    0  0.12682029152E+03  0.52727253347E+02  0.24976216677E+03  0.28503454095E+03  0.00000000000E+00 0.  1.
</event>
<event>
12    1  0.8331241E-002  0.2541873E+03  0.7818608E-02  0.1110692E+00
         21   -1    0    0  503  502  0.00000000000E+00  0.00000000000E+00  0.10136734874E+03  0.10136734874E+03  0.00000000000E+00 0. -1.
         21   -1    0    0  501  503 -0.00000000000E+00 -0.00000000000E+00 -0.64802299593E+03  0.64802299593E+03  0.00000000000E+00 0.  1.
          6    2    1    2  501    0 -0.30377020411E+02 -0.18479185700E+03 -0.32146776947E+03  0.40980120657E+03  0.17182755400E+03 0.  0.
         24    2    3    3    0    0  0.19557307908E+02 -0.28143560665E+02 -0.13786385559E+03  0.16329641334E+03  0.80527806591E+02 0.  0.
         -6    2    1    2    0  502  0.30377020411E+02  0.18479185700E+03 -0.22518787772E+03  0.33958913810E+03  0.17187323428E+03 0.  0.
        -24    2    5    5    0    0  0.69960711248E+02  0.55481355631E+02 -0.86935034118E+02  0.14613626759E+03  0.76324482363E+02 0.  0.
          5    1    3    3  501    0 -0.49934328320E+02 -0.15664829633E+03 -0.18360391389E+03  0.24650479323E+03  0.47000000000E+01 0. -1.
        -13    1    4    4    0    0 -0.22777892715E+02  0.10976655684E+02 -0.69027925355E+02  0.73513086218E+02  0.00000000000E+00 0.  1.
         14    1    4    4    0    0  0.42335200623E+02 -0.39120216348E+02 -0.68835930232E+02  0.89783327126E+02  0.00000000000E+00 0. -1.
         -5    1    5    5    0  502 -0.39583690837E+02  0.12931050137E+03 -0.13825284360E+03  0.19345287051E+03  0.47000000000E+01 0.  1.
         13    1    6    6    0    0  0.21892210120E+02  0.53635640973E+02 -0.78079921077E+02  0.97224096406E+02  0.00000000000E+00 0. -1.
        -14    1    6    6    0    0  0.48068501127E+02  0.18457146576E+01 -0.88551130405E+01  0.48912171187E+02  0.00000000000E+00 0.  1.
</event>
<event>
12    1  0.8331241E-002  0.2313004E+03  0.7818608E-02  0.1125871E+00
         21   -1    0    0  503  502  0.00000000000E+00  0.00000000000E+00  0.44036063412E+03  0.44036063412E+03  0.00000000000E+00 0.  1.
         21   -1    0    0  501  503 -0.00000000000E+00 -0.00000000000E+00 -0.22066282572E+03  0.22066282572E+03  0.00000000000E+00 0. -1.
          6    2    1    2  501    0 -0.15351980639E+03  0.24684498230E+02 -0.11230914410E+03  0.25638967456E+03  0.17013131977E+03 0.  0.
         24    2    3    3    0    0 -0.11504477439E+03 -0.15668895028E+02 -0.12088775544E+02  0.14160754743E+03  0.80160742316E+02 0.  0.
         -6    2    1    2    0  502  0.15351980639E+03 -0.24684498230E+02  0.33200695250E+03  0.40463378528E+03  0.17123734485E+03 0.  0.
        -24    2    5    5    0    0  0.29126059683E+02 -0.56770040790E+02  0.13552443945E+03  0.16983439389E+03  0.80035509466E+02 0.  0.
          5    1    3    3  501    0 -0.38475031996E+02  0.40353393258E+02 -0.10022036856E+03  0.11478212713E+03  0.47000000000E+01 0. -1.
        -13    1    4    4    0    0  0.56397535310E+01 -0.17217558791E+02  0.69804940130E+01  0.19415932820E+02  0.00000000000E+00 0.  1.
         14    1    4    4    0    0 -0.12068452792E+03  0.15486637633E+01 -0.19069269557E+02  0.12219161461E+03  0.00000000000E+00 0. -1.
         -5    1    5    5    0  502  0.12439374671E+03  0.32085542560E+02  0.19648251305E+03  0.23479939139E+03  0.47000000000E+01 0.  1.
         13    1    6    6    0    0  0.21640846408E+02  0.15126103261E+02  0.18335830461E+02  0.32145418208E+02  0.00000000000E+00 0. -1.
        -14    1    6    6    0    0  0.74852132755E+01 -0.71896144051E+02  0.11718860899E+03  0.13768897568E+03  0.00000000000E+00 0.  1.
</event>
<event>
12    1  0.8331241E-002  0.2207429E+03  0.7818608E-02  0.1133962E+00
         21   -1    0    0  503  502  0.00000000000E+00  0.00000000000E+00  0.25628048093E+04  0.25628048093E+04  0.00000000000E+00 0. -1.
         21   -1    0    0  501  503 -0.00000000000E+00 -0.00000000000E+00 -0.22099328115E+02  0.22099328115E+02  0.00000000000E+00 0. -1.
          6    2    1    2  501    0  0.11685058058E+03  0.71382318555E+02  0.75692211474E+03  0.78751421190E+03  0.16881366228E+03 0.  0.
         24    2    3    3    0    0  0.44865262930E+02 -0.63303974887E+01  0.20941345186E+03  0.22983242260E+03  0.83162388768E+02 0.  0.
         -6    2    1    2    0  502 -0.11685058058E+03 -0.71382318555E+02  0.17837833665E+04  0.17973899255E+04  0.17314142301E+03 0.  0.
        -24    2    5    5    0    0 -0.14722048534E+02 -0.12360883414E+02  0.11321925733E+04  0.11351917538E+04  0.80192049449E+02 0.  0.
          5    1    3    3  501    0  0.71985317651E+02  0.77712716044E+02  0.54750866288E+03  0.55768178930E+03  0.47000000000E+01 0. -1.
        -11    1    4    4    0    0  0.69560711867E+02 -0.47695128692E+01  0.16144414036E+03  0.17585690587E+03  0.00000000000E+00 0.  1.
         12    1    4    4    0    0 -0.24695448937E+02 -0.15608846195E+01  0.47969311507E+02  0.53975516723E+02  0.00000000000E+00 0. -1.
         -5    1    5    5    0  502 -0.10212853205E+03 -0.59021435142E+02  0.65159079317E+03  0.66219817170E+03  0.47000000000E+01 0.  1.
         11    1    6    6    0    0 -0.39662491041E+01 -0.46495735812E+02  0.64949894975E+03  0.65117314926E+03  0.00000000000E+00 0. -1.
        -12    1    6    6    0    0 -0.10755799430E+02  0.34134852398E+02  0.48269362356E+03  0.48401860459E+03  0.00000000000E+00 0.  1.
</event>
<event>
12    1  0.8331241E-002  0.1878330E+03  0.7818608E-02  0.1160739E+00
         21   -1    0    0  501  502  0.00000000000E+00  0.00000000000E+00  0.44072403260E+03  0.44072403260E+03  0.00000000000E+00 0.  1.
         21   -1    0    0  502  503 -0.00000000000E+00 -0.00000000000E+00 -0.10400307947E+03  0.10400307947E+03  0.00000000000E+00 0.  1.
         -6    2    1    2    0  503  0.61113016083E+02 -0.45723193789E+02  0.35645533623E+02  0.18986424576E+03  0.17015409653E+03 0.  0.
        -24    2    3    3    0    0  0.35227725091E+02  0.33492511323E+02  0.50273863133E+02  0.10512196440E+03  0.78488375918E+02 0.  0.
          6    2    1    2  501    0 -0.61113016083E+02  0.45723193789E+02  0.30107541951E+03  0.35486286631E+03  0.17162702139E+03 0.  0.
         24    2    5    5    0    0 -0.56290252957E+02  0.62976583081E+02  0.10562043530E+03  0.15853233039E+03  0.82717475965E+02 0.  0.
          5    1    5    5  501    0 -0.48227631256E+01 -0.17253389292E+02  0.19545498420E+03  0.19633053592E+03  0.47000000000E+01 0. -1.
        -11    1    6    6    0    0  0.15755823498E+02  0.39160899593E+02  0.34202286406E+02  0.54328799236E+02  0.00000000000E+00 0.  1.
         12    1    6    6    0    0 -0.72046076456E+02  0.23815683488E+02  0.71418148896E+02  0.10420353115E+03  0.00000000000E+00 0. -1.
         -5    1    3    3    0  503  0.25885290992E+02 -0.79215705113E+02 -0.14628329510E+02  0.84742281362E+02  0.47000000000E+01 0.  1.
         11    1    4    4    0    0  0.15197143816E+02  0.41981511446E+02 -0.57557768377E+01  0.45016990687E+02  0.00000000000E+00 0. -1.
        -12    1    4    4    0    0  0.20030581275E+02 -0.84890001232E+01  0.56029639971E+02  0.60104973709E+02  0.00000000000E+00 0.  1.
</event>
<event>
12    1  0.8331241E-002  0.2518757E+03  0.7818608E-02  0.1112278E+00
         21   -1    0    0  503  502  0.00000000000E+00  0.00000000000E+00  0.20276627170E+03  0.20276627170E+03  0.00000000000E+00 0. -1.
         21   -1    0    0  501  503 -0.00000000000E+00 -0.00000000000E+00 -0.32784012155E+03  0.32784012155E+03  0.00000000000E+00 0. -1.
          6    2    1    2  501    0  0.95793848857E+02 -0.15648579500E+03 -0.12134409978E+03  0.27870303729E+03  0.17113365223E+03 0.  0.
         24    2    3    3    0    0  0.13136993729E+02 -0.24355172348E+02 -0.74923582146E+02  0.11601434192E+03  0.84142910254E+02 0.  0.
         -6    2    1    2    0  502 -0.95793848857E+02  0.15648579500E+03 -0.37297500697E+01  0.25190335596E+03  0.17256049430E+03 0.  0.
        -24    2    5    5    0    0 -0.84608517381E+02  0.15631533965E+03 -0.51934842812E+02  0.20219458750E+03  0.81193205967E+02 0.  0.
          5    1    3    3  501    0  0.82656855129E+02 -0.13213062265E+03 -0.46420517632E+02  0.16268869537E+03  0.47000000000E+01 0. -1.
        -13    1    4    4    0    0  0.22185781332E+02  0.25855557029E+02 -0.46394195411E+02  0.57559882648E+02  0.00000000000E+00 0.  1.
         14    1    4    4    0    0 -0.90487876033E+01 -0.50210729378E+02 -0.28529386736E+02  0.58454459276E+02  0.00000000000E+00 0. -1.
         -5    1    5    5    0  502 -0.11185331476E+02  0.17045535440E+00  0.48205092742E+02  0.49708768458E+02  0.47000000000E+01 0.  1.
         13    1    6    6    0    0 -0.33774454306E+02  0.99196703234E+02  0.79237475647E+01  0.10508798919E+03  0.00000000000E+00 0. -1.
        -14    1    6    6    0    0 -0.50834063075E+02  0.57118636415E+02 -0.59858590377E+02  0.97106598316E+02  0.00000000000E+00 0.  1.
</event>
<event>
12    1  0.8331241E-002  0.1879979E+03  0.7818608E-02  0.1163176E+00
         21   -1    0    0  503  502  0.00000000000E+00  0.00000000000E+00  0.24166517625E+03  0.24166517625E+03  0.00000000000E+00 0.  1.
         21   -1    0    0  501  503 -0.00000000000E+00 -0.00000000000E+00 -0.21375460490E+03  0.21375460490E+03  0.00000000000E+00 0.  1.
          6    2    1    2  501    0 -0.49670453820E+01 -0.29101438437E+02 -0.12223821664E+03  0.22424406196E+03  0.18566543151E+03 0.  0.
         24    2    3    3    0    0 -0.19394149954E+02 -0.88945385401E+02 -0.85088935699E+02  0.15219131455E+03  0.87376510632E+02 0.  0.
         -6    2    1    2    0  502  0.49670453820E+01  0.29101438437E+02  0.15014878799E+03  0.23117571919E+03  0.17328008930E+03 0.  0.
        -24    2    5    5    0    0 -0.61848056251E+02  0.14482152283E+02  0.12151227723E+03  0.15687820185E+03  0.76227435364E+02 0.  0.
          5    1    3    3  501    0  0.14427104572E+02  0.59843946964E+02 -0.37149280945E+02  0.72052747410E+02  0.47000000000E+01 0. -1.
        -11    1    4    4    0    0 -0.13036864100E+02 -0.52449804582E+02 -0.98860520422E+02  0.11266918090E+03  0.00000000000E+00 0.  1.
         12    1    4    4    0    0 -0.63572858540E+01 -0.36495580818E+02  0.13771584723E+02  0.39522133653E+02  0.00000000000E+00 0. -1.
         -5    1    5    5    0  502  0.66815101633E+02  0.14619286154E+02  0.28636510762E+02  0.74297517337E+02  0.47000000000E+01 0.  1.
         11    1    6    6    0    0 -0.65433524695E+01  0.31613596325E+02  0.78110986329E+02  0.84519590152E+02  0.00000000000E+00 0. -1.
        -12    1    6    6    0    0 -0.55304703781E+02 -0.17131444042E+02  0.43401290897E+02  0.72358611698E+02  0.00000000000E+00 0.  1.
</event>
<event>
12    1  0.8331241E-002  0.1780819E+03  0.7818608E-02  0.1169684E+00
         21   -1    0    0  503  502  0.00000000000E+00  0.00000000000E+00  0.64665984004E+03  0.64665984004E+03  0.00000000000E+00 0.  1.
         21   -1    0    0  501  503 -0.00000000000E+00 -0.00000000000E+00 -0.50187505025E+02  0.50187505025E+02  0.00000000000E+00 0.  1.
          6    2    1    2  501    0  0.60324514002E+01 -0.46603190013E+02  0.35115361115E+03  0.39370640474E+03  0.17171961658E+03 0.  0.
         24    2    3    3    0    0 -0.14547693296E+02 -0.49321448145E+02  0.35859956130E+03  0.37115727046E+03  0.80745485489E+02 0.  0.
         -6    2    1    2    0  502 -0.60324514002E+01  0.46603190013E+02  0.24531872387E+03  0.30314094033E+03  0.17176992063E+03 0.  0.
        -24    2    5    5    0    0  0.45069991045E+02  0.24778481092E+02  0.22378470083E+03  0.24336149828E+03  0.80622263068E+02 0.  0.
          5    1    3    3  501    0  0.20580144696E+02  0.27182581316E+01 -0.74459501485E+01  0.22549134276E+02  0.47000000000E+01 0. -1.
        -11    1    4    4    0    0 -0.33330930800E+02 -0.61415750418E+02  0.22184159640E+03  0.23258662739E+03  0.00000000000E+00 0.  1.
         12    1    4    4    0    0  0.18783237503E+02  0.12094302273E+02  0.13675796490E+03  0.13857064307E+03  0.00000000000E+00 0. -1.
         -5    1    5    5    0  502 -0.51102442445E+02  0.21824708921E+02  0.21534023040E+02  0.59779442048E+02  0.47000000000E+01 0.  1.
         11    1    6    6    0    0 -0.11763274325E+02 -0.14960758426E+02  0.17959896098E+02  0.26167857829E+02  0.00000000000E+00 0. -1.
        -12    1    6    6    0    0  0.56833265370E+02  0.39739239518E+02  0.20582480473E+03  0.21719364045E+03  0.00000000000E+00 0.  1.
</event>
<event>
12    1  0.8331241E-002  0.1966631E+03  0.7818608E-02  0.1152641E+00
         21   -1    0    0  503  502  0.00000000000E+00  0.00000000000E+00  0.16813303264E+04  0.16813303264E+04  0.00000000000E+00 0.  1.
         21   -1    0    0  501  503 -0.00000000000E+00 -0.00000000000E+00 -0.24437033524E+02  0.24437033524E+02  0.00000000000E+00 0.  1.
          6    2    1    2  501    0  0.45856586398E+02  0.82680424285E+02  0.61917708707E+03  0.64958021061E+03  0.17214908015E+03 0.  0.
         24    2    3    3    0    0  0.48184868075E+02  0.94056524484E+02  0.62264129137E+03  0.63658300850E+03  0.79920821375E+02 0.  0.
         -6    2    1    2    0  502 -0.45856586398E+02 -0.82680424285E+02  0.10377162058E+04  0.10561871493E+04  0.17244561894E+03 0.  0.
        -24    2    5    5    0    0  0.12189880758E+02 -0.68176857739E+02  0.35327806227E+03  0.36912280871E+03  0.81544966153E+02 0.  0.
          5    1    3    3  501    0 -0.23282816779E+01 -0.11376100199E+02 -0.34642042997E+01  0.12997202112E+02  0.47000000000E+01 0. -1.
        -13    1    4    4    0    0  0.37256430518E+02  0.29390988216E+02  0.11048450328E+03  0.12024432323E+03  0.00000000000E+00 0.  1.
         14    1    4    4    0    0  0.10928437557E+02  0.64665536268E+02  0.51215678809E+03  0.51633868528E+03  0.00000000000E+00 0. -1.
         -5    1    5    5    0  502 -0.58046467155E+02 -0.14503566546E+02  0.68443814350E+03  0.68706434056E+03  0.47000000000E+01 0.  1.
         13    1    6    6    0    0  0.15433204880E+02  0.15952746256E+02  0.90747318689E+02  0.93422426511E+02  0.00000000000E+00 0. -1.
        -14    1    6    6    0    0 -0.32433241223E+01 -0.84129603995E+02  0.26253074358E+03  0.27570038220E+03  0.00000000000E+00 0.  1.
</event>
<event>
12    1  0.8331241E-002  0.1725314E+03  0.7818608E-02  0.1175924E+00
         21   -1    0    0  503  502  0.00000000000E+00  0.00000000000E+00  0.28929333171E+03  0.28929333171E+03  0.00000000000E+00 0.  1.
         21   -1    0    0  501  503 -0.00000000000E+00 -0.00000000000E+00 -0.10185781088E+03  0.10185781088E+03  0.00000000000E+00 0.  1.
          6    2    1    2  501    0 -0.16910599982E+02 -0.14112610191E+01  0.10740648457E+03  0.20096248948E+03  0.16900239406E+03 0.  0.
         24    2    3    3    0    0 -0.60094810736E+02  0.17126700215E+02  0.11507817669E+03  0.15311401066E+03  0.79348619225E+02 0.  0.
         -6    2    1    2    0  502  0.16910599982E+02  0.14112610191E+01  0.80029036263E+02  0.19018865311E+03  0.17169483707E+03 0.  0.
        -24    2    5    5    0    0  0.46385517182E+02  0.50031912504E+02  0.15222801342E+02  0.10384818416E+03  0.76797807254E+02 0.  0.
          5    1    3    3  501    0  0.43184210754E+02 -0.18537961234E+02 -0.76716921171E+01  0.47848478817E+02  0.47000000000E+01 0. -1.
        -11    1    4    4    0    0  0.89781071284E+01  0.29283690650E+02  0.39898240659E+02  0.50299210266E+02  0.00000000000E+00 0.  1.
         12    1    4    4    0    0 -0.69072917864E+02 -0.12156990435E+02  0.75179936028E+02  0.10281480039E+03  0.00000000000E+00 0. -1.
         -5    1    5    5    0  502 -0.29474917200E+02 -0.48620651485E+02  0.64806234921E+02  0.86340468955E+02  0.47000000000E+01 0.  1.
         11    1    6    6    0    0  0.66756065173E+02  0.38253016021E+02  0.20726600910E+02  0.79682227990E+02  0.00000000000E+00 0. -1.
        -12    1    6    6    0    0 -0.20370547991E+02  0.11778896483E+02 -0.55037995680E+01  0.24165956168E+02  0.00000000000E+00 0.  1.
</event>
<event>
12    1  0.8331241E-002  0.1930662E+03  0.7818608E-02  0.1156204E+00
         21   -1    0    0  501  502  0.00000000000E+00  0.00000000000E+00  0.59304297143E+02  0.59304297143E+02  0.00000000000E+00 0.  1.
         21   -1    0    0  502  503 -0.00000000000E+00 -0.00000000000E+00 -0.76400149640E+03  0.76400149640E+03  0.00000000000E+00 0.  1.
         -6    2    1    2    0  503 -0.78691665624E+02  0.28973639143E+02 -0.52850338734E+03  0.56192712003E+03  0.17150629081E+03 0.  0.
        -24    2    3    3    0    0 -0.11022156835E+03  0.76898921372E+01 -0.48433029866E+03  0.50344221243E+03  0.81671870859E+02 0.  0.
          6    2    1    2  501    0  0.78691665624E+02 -0.28973639143E+02 -0.17619381192E+03  0.26137867352E+03  0.17390428864E+03 0.  0.
         24    2    5    5    0    0  0.45172437838E+02 -0.83501580286E+02 -0.14127623954E+03  0.18831594802E+03  0.80565857338E+02 0.  0.
          5    1    5    5  501    0  0.33519227786E+02  0.54527941144E+02 -0.34917572380E+02  0.73062725501E+02  0.47000000000E+01 0. -1.
        -13    1    6    6    0    0  0.24482938097E+02 -0.73436433531E+01 -0.91518985840E+02  0.95021408770E+02  0.00000000000E+00 0.  1.
         14    1    6    6    0    0  0.20689499741E+02 -0.76157936933E+02 -0.49757253697E+02  0.93294539245E+02  0.00000000000E+00 0. -1.
         -5    1    3    3    0  503  0.31529902728E+02  0.21283747005E+02 -0.44173088682E+02  0.58484907595E+02  0.47000000000E+01 0.  1.
         13    1    4    4    0    0 -0.30854372673E+02 -0.11558997136E+02 -0.40736881719E+02  0.52393666220E+02  0.00000000000E+00 0. -1.
        -14    1    4    4    0    0 -0.79367195679E+02  0.19248889273E+02 -0.44359341694E+03  0.45104854621E+03  0.00000000000E+00 0.  1.
</event>
<event>
12    1  0.8331241E-002  0.2017161E+03  0.7818608E-02  0.1148509E+00
         21   -1    0    0  503  502  0.00000000000E+00  0.00000000000E+00  0.54952548796E+03  0.54952548796E+03  0.00000000000E+00 0. -1.
         21   -1    0    0  501  503 -0.00000000000E+00 -0.00000000000E+00 -0.73738927388E+02  0.73738927388E+02  0.00000000000E+00 0. -1.
          6    2    1    2  501    0 -0.25707037253E+01  0.10180148188E+03  0.22831238956E+03  0.30399519620E+03  0.17296352753E+03 0.  0.
         24    2    3    3    0    0 -0.26941945326E+02  0.19409143825E+02  0.17365893478E+03  0.20205626886E+03  0.97809646136E+02 0.  0.
         -6    2    1    2    0  502  0.25707037253E+01 -0.10180148188E+03  0.24747417101E+03  0.31926921914E+03  0.17412414751E+03 0.  0.
        -24    2    5    5    0    0 -0.57031004257E+02 -0.94412978790E+02  0.13158559597E+03  0.18865832605E+03  0.78171918920E+02 0.  0.
          5    1    3    3  501    0  0.24371241600E+02  0.82392338055E+02  0.54653454787E+02  0.10193892734E+03  0.47000000000E+01 0. -1.
        -13    1    4    4    0    0  0.25403775061E+02  0.18844324628E+02  0.15042833071E+02  0.35024950890E+02  0.00000000000E+00 0.  1.
         14    1    4    4    0    0 -0.52345720387E+02  0.56481919733E+00  0.15861610171E+03  0.16703131797E+03  0.00000000000E+00 0. -1.
         -5    1    5    5    0  502  0.59601707983E+02 -0.73885030901E+01  0.11588857503E+03  0.13061089309E+03  0.47000000000E+01 0.  1.
         11    1    6    6    0    0 -0.27273838970E+02 -0.99958144740E+02  0.90128440098E+02  0.13732672248E+03  0.00000000000E+00 0. -1.
        -12    1    6    6    0    0 -0.29757165288E+02  0.55451659505E+01  0.41457155877E+02  0.51331603567E+02  0.00000000000E+00 0.  1.
</event>
<event>
12    1  0.8331241E-002  0.2041166E+03  0.7818608E-02  0.1146322E+00
         21   -1    0    0  501  502  0.00000000000E+00  0.00000000000E+00  0.12801979291E+03  0.12801979291E+03  0.00000000000E+00 0.  1.
         21   -1    0    0  502  503 -0.00000000000E+00 -0.00000000000E+00 -0.35868561909E+03  0.35868561909E+03  0.00000000000E+00 0.  1.
         -6    2    1    2    0  503 -0.11036858525E+03 -0.94704540080E+01 -0.18949401427E+03  0.27847791947E+03  0.17137985903E+03 0.  0.
        -24    2    3    3    0    0  0.77146378354E+01  0.20751568857E+02 -0.10575435220E+03  0.13052036054E+03  0.73221842780E+02 0.  0.
          6    2    1    2  501    0  0.11036858525E+03  0.94704540080E+01 -0.41171811914E+02  0.20822749253E+03  0.17144286640E+03 0.  0.
         24    2    5    5    0    0  0.42258399113E+02  0.10585321674E+02  0.39487650788E+02  0.10254741253E+03  0.84017116833E+02 0.  0.
          5    1    5    5  501    0  0.68110186136E+02 -0.11148676659E+01 -0.80659462702E+02  0.10568008000E+03  0.47000000000E+01 0. -1.
        -13    1    6    6    0    0  0.27931486627E+02  0.42303961001E+02  0.10640030102E+01  0.50704291377E+02  0.00000000000E+00 0.  1.
         14    1    6    6    0    0  0.14326912486E+02 -0.31718639327E+02  0.38423647778E+02  0.51843121151E+02  0.00000000000E+00 0. -1.
         -5    1    3    3    0  503 -0.11808322308E+03 -0.30222022865E+02 -0.83739662064E+02  0.14795755892E+03  0.47000000000E+01 0.  1.
         11    1    4    4    0    0 -0.64001342129E+01  0.15533383752E+02  0.59380569406E+01  0.17818761151E+02  0.00000000000E+00 0. -1.
        -12    1    4    4    0    0  0.14114772048E+02  0.52181851051E+01 -0.11169240914E+03  0.11270159939E+03  0.00000000000E+00 0.  1.
</event>
<event>
12    1  0.8331241E-002  0.3807023E+03  0.7818608E-02  0.1050677E+00
         21   -1    0    0  503  502  0.00000000000E+00  0.00000000000E+00  0.71040148779E+03  0.71040148779E+03  0.00000000000E+00 0. -1.
         21   -1    0    0  501  503 -0.00000000000E+00 -0.00000000000E+00 -0.50147907569E+03  0.50147907569E+03  0.00000000000E+00 0.  1.
          6    2    1    2  501    0 -0.31509712327E+03 -0.12651347105E+03 -0.36223351272E+03  0.52547447421E+03  0.17210011578E+03 0.  0.
         24    2    3    3    0    0 -0.27217001872E+03 -0.13632005544E+03 -0.36367537804E+03  0.48116787901E+03  0.81259280023E+02 0.  0.
         -6    2    1    2    0  502  0.31509712327E+03  0.12651347105E+03  0.57115592482E+03  0.68640608927E+03  0.17216960672E+03 0.  0.
        -24    2    5    5    0    0  0.26457350935E+03  0.45005661138E+02  0.46927439332E+03  0.54641289265E+03  0.79523214465E+02 0.  0.
          5    1    3    3  501    0 -0.42927104549E+02  0.98065843966E+01  0.14418653143E+01  0.44306595198E+02  0.47000000000E+01 0. -1.
        -11    1    4    4    0    0 -0.81007178840E+02 -0.86884180942E+01 -0.12978974457E+03  0.15324173527E+03  0.00000000000E+00 0.  1.
         12    1    4    4    0    0 -0.19116283988E+03 -0.12763163735E+03 -0.23388563347E+03  0.32792614374E+03  0.00000000000E+00 0. -1.
         -5    1    5    5    0  502  0.50523613920E+02  0.81507809910E+02  0.10188153150E+03  0.13999319662E+03  0.47000000000E+01 0.  1.
         11    1    6    6    0    0  0.18322368090E+03 -0.53175135042E+01  0.28649078057E+03  0.34011198236E+03  0.00000000000E+00 0. -1.
        -12    1    6    6    0    0  0.81349828448E+02  0.50323174642E+02  0.18278361275E+03  0.20630091029E+03  0.00000000000E+00 0.  1.
</event>
<event>
12    1  0.8331241E-002  0.1972584E+03  0.7818608E-02  0.1152114E+00
         21   -1    0    0  503  502  0.00000000000E+00  0.00000000000E+00  0.17950975445E+04  0.17950975445E+04  0.00000000000E+00 0. -1.
         21   -1    0    0  501  503 -0.00000000000E+00 -0.00000000000E+00 -0.30156615885E+02  0.30156615885E+02  0.00000000000E+00 0. -1.
          6    2    1    2  501    0  0.94490617877E+02 -0.24566761267E+02  0.13667261054E+04  0.13808603011E+04  0.17118096094E+03 0.  0.
         24    2    3    3    0    0  0.11248492249E+03 -0.64139387850E+02  0.10256387281E+04  0.10369817226E+04  0.81422193985E+02 0.  0.
         -6    2    1    2    0  502 -0.94490617877E+02  0.24566761267E+02  0.39821482321E+03  0.44439385926E+03  0.17140260821E+03 0.  0.
        -24    2    5    5    0    0 -0.11134395560E+03  0.67553962547E+02  0.31941270899E+03  0.35294005851E+03  0.74707375366E+02 0.  0.
          5    1    3    3  501    0 -0.17994304613E+02  0.39572626583E+02  0.34108737730E+03  0.34387857847E+03  0.47000000000E+01 0. -1.
        -11    1    4    4    0    0  0.41009226462E+02  0.10209361392E+02  0.17109630581E+03  0.17623828635E+03  0.00000000000E+00 0.  1.
         12    1    4    4    0    0  0.71475696028E+02 -0.74348749242E+02  0.85454242228E+03  0.86074343629E+03  0.00000000000E+00 0. -1.
         -5    1    5    5    0  502  0.16853337723E+02 -0.42987201280E+02  0.78802114217E+02  0.91453800749E+02  0.47000000000E+01 0.  1.
         11    1    6    6    0    0 -0.24272334871E+02  0.48507055837E+02  0.73310808292E+02  0.91195149643E+02  0.00000000000E+00 0. -1.
        -12    1    6    6    0    0 -0.87071620729E+02  0.19046906710E+02  0.24610190070E+03  0.26174490887E+03  0.00000000000E+00 0.  1.
</event>
<event>
12    1  0.8331241E-002  0.1841043E+03  0.7818608E-02  0.1164038E+00
         21   -1    0    0  503  502  0.00000000000E+00  0.00000000000E+00  0.61638979353E+02  0.61638979353E+02  0.00000000000E+00 0.  1.
         21   -1    0    0  501  503 -0.00000000000E+00 -0.00000000000E+00 -0.12208319599E+04  0.12208319599E+04  0.00000000000E+00 0.  1.
          6    2    1    2  501    0  0.17427369970E+02 -0.64445828169E+02 -0.10551887952E+04  0.10710205888E+04  0.17089391471E+03 0.  0.
         24    2    3    3    0    0  0.10289509831E+02  0.29140049033E+02 -0.51835271657E+03  0.52602120274E+03  0.83986609013E+02 0.  0.
         -6    2    1    2    0  502 -0.17427369970E+02  0.64445828169E+02 -0.10400418527E+03  0.21145035039E+03  0.17157331417E+03 0.  0.
        -24    2    5    5    0    0  0.53806771733E+02  0.19681740146E+02 -0.46962616773E+02  0.10969595463E+03  0.80902258984E+02 0.  0.
          5    1    3    3  501    0  0.71378601393E+01 -0.93585877202E+02 -0.53683607866E+03  0.54499938607E+03  0.47000000000E+01 0. -1.
        -11    1    4    4    0    0  0.43275083169E+02  0.34720606960E+02 -0.35093121815E+03  0.35528998472E+03  0.00000000000E+00 0.  1.
         12    1    4    4    0    0 -0.32985573339E+02 -0.55805579272E+01 -0.16742149841E+03  0.17073121802E+03  0.00000000000E+00 0. -1.
         -5    1    5    5    0  502 -0.71234141703E+02  0.44764088022E+02 -0.57041568497E+02  0.10175439576E+03  0.47000000000E+01 0.  1.
         11    1    6    6    0    0  0.17895088507E+02 -0.31303451096E+02 -0.23632660423E+02  0.43111980723E+02  0.00000000000E+00 0. -1.
        -12    1    6    6    0    0  0.35911683226E+02  0.50985191242E+02 -0.23329956350E+02  0.66583973908E+02  0.00000000000E+00 0.  1.
</event>
<event>
12    1  0.8331241E-002  0.1763237E+03  0.7818608E-02  0.1172015E+00
         21   -1    0    0  501  502  0.00000000000E+00  0.00000000000E+00  0.48019707991E+03  0.48019707991E+03  0.00000000000E+00 0. -1.
         21   -1    0    0  502  503 -0.00000000000E+00 -0.00000000000E+00 -0.13334557424E+03  0.13334557424E+03  0.00000000000E+00 0. -1.
         -6    2    1    2    0  503 -0.34528923997E+02  0.19079306059E+01 -0.48596179805E+02  0.18056584740E+03  0.17043048367E+03 0.  0.
        -24    2    3    3    0    0 -0.83697264605E+02 -0.23933988819E+02 -0.32570881636E+02  0.12256385865E+03  0.79893486552E+02 0.  0.
          6    2    1    2  501    0  0.34528923997E+02 -0.19079306059E+01  0.39544768548E+03  0.43297680675E+03  0.17289926676E+03 0.  0.
         24    2    5    5    0    0  0.51466201925E+02 -0.60082788619E+02  0.23484504555E+03  0.26126051911E+03  0.82741476906E+02 0.  0.
          5    1    5    5  501    0 -0.16937277928E+02  0.58174858013E+02  0.16060263993E+03  0.17171628764E+03  0.47000000000E+01 0. -1.
        -11    1    6    6    0    0  0.35957398591E+02  0.87734756707E+01  0.42408260727E+02  0.56288266687E+02  0.00000000000E+00 0.  1.
         12    1    6    6    0    0  0.15508803334E+02 -0.68856264290E+02  0.19243678482E+03  0.20497225243E+03  0.00000000000E+00 0. -1.
         -5    1    3    3    0  503  0.49168340608E+02  0.25841919424E+02 -0.16025298169E+02  0.58001988751E+02  0.47000000000E+01 0.  1.
         11    1    4    4    0    0 -0.54608094484E+02  0.11471344844E+01 -0.55469207782E+02  0.77847240880E+02  0.00000000000E+00 0. -1.
        -12    1    4    4    0    0 -0.29089170121E+02 -0.25081123303E+02  0.22898326146E+02  0.44716617770E+02  0.00000000000E+00 0.  1.
</event>
<event>
12    1  0.8331241E-002  0.1884527E+03  0.7818608E-02  0.1159986E+00
         21   -1    0    0  501  502  0.00000000000E+00  0.00000000000E+00  0.35692086079E+03  0.35692086079E+03  0.00000000000E+00 0.  1.
         21   -1    0    0  502  503 -0.00000000000E+00 -0.00000000000E+00 -0.60457653530E+03  0.60457653530E+03  0.00000000000E+00 0.  1.
         -6    2    1    2    0  503 -0.20836842450E+01 -0.75761740800E+02 -0.56333126092E+03  0.59384879448E+03  0.17195958265E+03 0.  0.
        -24    2    3    3    0    0 -0.29984161724E+02 -0.10922602489E+03 -0.47665825335E+03  0.49672724592E+03  0.81887067869E+02 0.  0.
          6    2    1    2  501    0  0.20836842450E+01  0.75761740800E+02  0.31567558641E+03  0.36764860160E+03  0.17254053233E+03 0.  0.
         24    2    5    5    0    0 -0.41037944386E+02  0.56416360554E+02  0.96336016579E+02  0.14322566275E+03  0.79787491257E+02 0.  0.
          5    1    5    5  501    0  0.43121628631E+02  0.19345380247E+02  0.21933956983E+03  0.22442293886E+03  0.47000000000E+01 0. -1.
        -11    1    6    6    0    0  0.50312337904E+01  0.38217444671E+02  0.83633480048E+02  0.92089333669E+02  0.00000000000E+00 0.  1.
         12    1    6    6    0    0 -0.46069178177E+02  0.18198915882E+02  0.12702536531E+02  0.51136329077E+02  0.00000000000E+00 0. -1.
         -5    1    3    3    0  503  0.27900477479E+02  0.33464284094E+02 -0.86673007577E+02  0.97121548566E+02  0.47000000000E+01 0.  1.
         11    1    4    4    0    0  0.43576846531E+01  0.19719455212E+01 -0.14790426257E+03  0.14798158287E+03  0.00000000000E+00 0. -1.
        -12    1    4    4    0    0 -0.34341846377E+02 -0.11119797042E+03 -0.32875399078E+03  0.34874566304E+03  0.00000000000E+00 0.  1.
</event>
<event>
12    1  0.8331241E-002  0.5117873E+03  0.7818608E-02  0.1010765E+00
         21   -1    0    0  501  502  0.00000000000E+00  0.00000000000E+00  0.13318444550E+03  0.13318444550E+03  0.00000000000E+00 0.  1.
         21   -1    0    0  502  503 -0.00000000000E+00 -0.00000000000E+00 -0.19760026242E+04  0.19760026242E+04  0.00000000000E+00 0. -1.
         -6    2    1    2    0  503  0.36497228518E+03  0.31548977369E+03 -0.99833329863E+03  0.11218714676E+04  0.17084393031E+03 0.  0.
        -24    2    3    3    0    0  0.13958123904E+03  0.18967861486E+03 -0.56546253286E+03  0.61785880787E+03  0.80874786925E+02 0.  0.
          6    2    1    2  501    0 -0.36497228518E+03 -0.31548977369E+03 -0.84448488009E+03  0.98731560206E+03  0.16999652678E+03 0.  0.
         24    2    5    5    0    0 -0.15493820570E+03 -0.10361287674E+03 -0.24648534015E+03  0.31901052668E+03  0.79191018519E+02 0.  0.
          5    1    5    5  501    0 -0.21003407948E+03 -0.21187689696E+03 -0.59799953995E+03  0.66830507538E+03  0.47000000000E+01 0. -1.
        -13    1    6    6    0    0 -0.14884492224E+03 -0.64980188142E+02 -0.21043680550E+03  0.26582115198E+03  0.00000000000E+00 0.  1.
         14    1    6    6    0    0 -0.60932834584E+01 -0.38632688593E+02 -0.36048534642E+02  0.53189374701E+02  0.00000000000E+00 0. -1.
         -5    1    3    3    0  503  0.22539104614E+03  0.12581115884E+03 -0.43287076576E+03  0.50401265978E+03  0.47000000000E+01 0.  1.
         13    1    4    4    0    0  0.10596926985E+03  0.11587006197E+03 -0.45118640414E+03  0.47772850940E+03  0.00000000000E+00 0. -1.
        -14    1    4    4    0    0  0.33611969190E+02  0.73808552889E+02 -0.11427612873E+03  0.14013029847E+03  0.00000000000E+00 0.  1.
</event>
<event>
12    1  0.8331241E-002  0.2005405E+03  0.7818608E-02  0.1149400E+00
         21   -1    0    0  501  502  0.00000000000E+00  0.00000000000E+00  0.66948662631E+02  0.66948662631E+02  0.00000000000E+00 0.  1.
         21   -1    0    0  502  503 -0.00000000000E+00 -0.00000000000E+00 -0.67550954879E+03  0.67550954879E+03  0.00000000000E+00 0.  1.
         -6    2    1    2    0  503  0.10144237354E+03  0.39339783723E+01 -0.42954103777E+03  0.47404850362E+03  0.17294637700E+03 0.  0.
        -24    2    3    3    0    0  0.34857334396E+01 -0.19621954995E+02 -0.29245857876E+03  0.30386014942E+03  0.80011240826E+02 0.  0.
          6    2    1    2  501    0 -0.10144237354E+03 -0.39339783723E+01 -0.17901984839E+03  0.26840970781E+03  0.17230680135E+03 0.  0.
         24    2    5    5    0    0 -0.11734063508E+03 -0.45903919107E+02 -0.10870826532E+03  0.18486307795E+03  0.80503889419E+02 0.  0.
          5    1    5    5  501    0  0.15898261545E+02  0.41969940734E+02 -0.70311583074E+02  0.83546629853E+02  0.47000000000E+01 0. -1.
        -11    1    6    6    0    0 -0.62174366841E+02 -0.44120139950E+02 -0.10470935114E+03  0.12952330623E+03  0.00000000000E+00 0.  1.
         12    1    6    6    0    0 -0.55166268241E+02 -0.17837791570E+01 -0.39989141782E+01  0.55339771722E+02  0.00000000000E+00 0. -1.
         -5    1    3    3    0  503  0.97956640097E+02  0.23555933367E+02 -0.13708245901E+03  0.17018835419E+03  0.47000000000E+01 0.  1.
         13    1    4    4    0    0  0.34751580100E+01  0.18675334263E+02 -0.16217620958E+02  0.24977110773E+02  0.00000000000E+00 0. -1.
        -14    1    4    4    0    0  0.10575429607E-01 -0.38297289258E+02 -0.27624095780E+03  0.27888303865E+03  0.00000000000E+00 0.  1.
</event>
<event>
12    1  0.8331241E-002  0.2394803E+03  0.7818608E-02  0.1120636E+00
         21   -1    0    0  503  502  0.00000000000E+00  0.00000000000E+00  0.21783636756E+03  0.21783636756E+03  0.00000000000E+00 0. -1.
         21   -1    0    0  501  503 -0.00000000000E+00 -0.00000000000E+00 -0.31267792525E+03  0.31267792525E+03  0.00000000000E+00 0. -1.
          6    2    1    2  501    0 -0.11628211671E+03 -0.11441787762E+03 -0.15601148790E+03  0.28334516938E+03  0.17126563948E+03 0.  0.
         24    2    3    3    0    0 -0.60646611156E+02 -0.85983164235E+02 -0.17253900053E+03  0.21854477527E+03  0.83192524412E+02 0.  0.
         -6    2    1    2    0  502  0.11628211671E+03  0.11441787762E+03  0.61169930212E+02  0.24716912343E+03  0.17532208597E+03 0.  0.
        -24    2    5    5    0    0  0.65899815826E+02  0.22720227120E+02  0.90049521749E+02  0.13852771255E+03  0.78879758691E+02 0.  0.
          5    1    3    3  501    0 -0.55635505551E+02 -0.28434713386E+02  0.16527512624E+02  0.64800394110E+02  0.47000000000E+01 0. -1.
        -13    1    4    4    0    0 -0.29712524201E+01  0.14037824931E+02 -0.52465451283E+01  0.15277928705E+02  0.00000000000E+00 0.  1.
         14    1    4    4    0    0 -0.57675358736E+02 -0.10002098917E+03 -0.16729245540E+03  0.20326684656E+03  0.00000000000E+00 0. -1.
         -5    1    5    5    0  502  0.50382300882E+02  0.91697650501E+02 -0.28879591537E+02  0.10864141087E+03  0.47000000000E+01 0.  1.
         13    1    6    6    0    0  0.15815465466E+01  0.35542974375E+02  0.51048566854E+02  0.62223472217E+02  0.00000000000E+00 0. -1.
        -14    1    6    6    0    0  0.64318269279E+02 -0.12822747255E+02  0.39000954895E+02  0.76304240334E+02  0.00000000000E+00 0.  1.
</event>
<event>
12    1  0.8331241E-002  0.1865435E+03  0.7818608E-02  0.1161847E+00
         21   -1    0    0  501  502  0.00000000000E+00  0.00000000000E+00  0.74623991892E+03  0.74623991892E+03  0.00000000000E+00 0.  1.
         21   -1    0    0  502  503 -0.00000000000E+00 -0.00000000000E+00 -0.73130572826E+02  0.73130572826E+02  0.00000000000E+00 0.  1.
         -6    2    1    2    0  503  0.31017439743E+02  0.66619727519E+02  0.89359252842E+02  0.20684182245E+03  0.17145901488E+03 0.  0.
        -24    2    3    3    0    0  0.24166626830E+02 -0.94098367926E+00  0.10880118010E+03  0.13605014306E+03  0.78019442033E+02 0.  0.
          6    2    1    2  501    0 -0.31017439743E+02 -0.66619727519E+02  0.58375009325E+03  0.61252866930E+03  0.17037291355E+03 0.  0.
         24    2    5    5    0    0 -0.66125353561E+02 -0.10071075462E+01  0.41765345868E+03  0.43046339658E+03  0.80565176089E+02 0.  0.
          5    1    5    5  501    0  0.35107913817E+02 -0.65612619973E+02  0.16609663458E+03  0.18206527272E+03  0.47000000000E+01 0. -1.
        -13    1    6    6    0    0 -0.35816994394E+02 -0.23709480855E+02  0.35247733861E+03  0.35508487831E+03  0.00000000000E+00 0.  1.
         14    1    6    6    0    0 -0.30308359166E+02  0.22702373309E+02  0.65176120064E+02  0.75378518265E+02  0.00000000000E+00 0. -1.
         -5    1    3    3    0  503  0.68508129133E+01  0.67560711199E+02 -0.19441927254E+02  0.70791679388E+02  0.47000000000E+01 0.  1.
         13    1    4    4    0    0  0.52684272367E+02 -0.45761379824E+01  0.72758753450E+02  0.89946705316E+02  0.00000000000E+00 0. -1.
        -14    1    4    4    0    0 -0.28517645536E+02  0.36351543032E+01  0.36042426646E+02  0.46103437749E+02  0.00000000000E+00 0.  1.
</event>
<event>
12    1  0.8331241E-002  0.1783619E+03  0.7818608E-02  0.1169548E+00
         21   -1    0    0  501  502  0.00000000000E+00  0.00000000000E+00  0.82266801775E+03  0.82266801775E+03  0.00000000000E+00 0.  1.
         21   -1    0    0  502  503 -0.00000000000E+00 -0.00000000000E+00 -0.67201439242E+02  0.67201439242E+02  0.00000000000E+00 0.  1.
         -6    2    1    2    0  503 -0.72303075957E+01  0.46476088726E+02  0.86779637021E+02  0.19780355771E+03  0.17141539566E+03 0.  0.
        -24    2    3    3    0    0 -0.36708109774E+02  0.82153191618E+02  0.91422270677E+02  0.15105486212E+03  0.79767835488E+02 0.  0.
          6    2    1    2  501    0  0.72303075957E+01 -0.46476088726E+02  0.66868694148E+03  0.69206589928E+03  0.17204847881E+03 0.  0.
         24    2    5    5    0    0  0.58978797251E+02 -0.35706402200E+02  0.56873275006E+03  0.57889866589E+03  0.83146128571E+02 0.  0.
          5    1    5    5  501    0 -0.51748489655E+02 -0.10769686526E+02  0.99954191427E+02  0.11316723339E+03  0.47000000000E+01 0. -1.
        -11    1    6    6    0    0  0.41621771314E+02  0.14610584827E+02  0.38775706574E+03  0.39025809801E+03  0.00000000000E+00 0.  1.
         12    1    6    6    0    0  0.17357025937E+02 -0.50316987027E+02  0.18097568432E+03  0.18864056787E+03  0.00000000000E+00 0. -1.
         -5    1    3    3    0  503  0.29477802178E+02 -0.35677102892E+02 -0.46426336560E+01  0.46748695589E+02  0.47000000000E+01 0.  1.
         11    1    4    4    0    0  0.34092264283E+01 -0.12292824458E+01  0.49221270750E+02  0.49354507944E+02  0.00000000000E+00 0. -1.
        -12    1    4    4    0    0 -0.40117336202E+02  0.83382474063E+02  0.42200999928E+02  0.10170035418E+03  0.00000000000E+00 0.  1.
</event>
<event>
12    1  0.8331241E-002  0.1948805E+03  0.7818608E-02  0.1154375E+00
         21   -1    0    0  501  502  0.00000000000E+00  0.00000000000E+00  0.57356419082E+03  0.57356419082E+03  0.00000000000E+00 0.  1.
         21   -1    0    0  502  503 -0.00000000000E+00 -0.00000000000E+00 -0.99833380315E+02  0.99833380315E+02  0.00000000000E+00 0.  1.
         -6    2    1    2    0  503  0.41454895836E+02  0.78640842418E+02  0.39939526889E+02  0.19784179870E+03  0.17217235847E+03 0.  0.
        -24    2    3    3    0    0  0.91844545467E+02  0.42927040673E+02  0.11194449629E+02  0.12955591515E+03  0.79882839806E+02 0.  0.
          6    2    1    2  501    0 -0.41454895836E+02 -0.78640842418E+02  0.43379128361E+03  0.47555577243E+03  0.17342296408E+03 0.  0.
         24    2    5    5    0    0 -0.79172390314E+02 -0.73561535382E+02  0.21175349193E+03  0.25023094095E+03  0.78079546525E+02 0.  0.
          5    1    5    5  501    0  0.37717494479E+02 -0.50793070364E+01  0.22203779168E+03  0.22532483149E+03  0.47000000000E+01 0. -1.
        -11    1    6    6    0    0 -0.13803558276E+02 -0.35210022181E+02  0.14295497523E+03  0.14787294826E+03  0.00000000000E+00 0.  1.
         12    1    6    6    0    0 -0.65368832039E+02 -0.38351513201E+02  0.68798516700E+02  0.10235799269E+03  0.00000000000E+00 0. -1.
         -5    1    3    3    0  503 -0.50389649631E+02  0.35713801746E+02  0.28745077260E+02  0.68285883547E+02  0.47000000000E+01 0.  1.
         11    1    4    4    0    0  0.36991306933E+02 -0.19764677368E+02 -0.10979475865E+02  0.43353755897E+02  0.00000000000E+00 0. -1.
        -12    1    4    4    0    0  0.54853238534E+02  0.62691718041E+02  0.22173925494E+02  0.86202159256E+02  0.00000000000E+00 0.  1.
</event>
<event>
12    1  0.8331241E-002  0.1733993E+03  0.7818608E-02  0.1174385E+00
         21   -1    0    0  501  502  0.00000000000E+00  0.00000000000E+00  0.99448243151E+03  0.99448243151E+03  0.00000000000E+00 0.  1.
         21   -1    0    0  502  503 -0.00000000000E+00 -0.00000000000E+00 -0.31144703877E+02  0.31144703877E+02  0.00000000000E+00 0.  1.
         -6    2    1    2    0  503 -0.22736359211E+02  0.28037027899E+01  0.39259393725E+03  0.42912415277E+03  0.17173449317E+03 0.  0.
        -24    2    3    3    0    0  0.13224553349E+02  0.62034650666E+02  0.27236514209E+03  0.29027695040E+03  0.77812278053E+02 0.  0.
          6    2    1    2  501    0  0.22736359211E+02 -0.28037027899E+01  0.57074379038E+03  0.59650298261E+03  0.17187940899E+03 0.  0.
         24    2    5    5    0    0  0.65056916856E+02  0.28772622657E+02  0.24532289366E+03  0.26679258856E+03  0.77036984045E+02 0.  0.
          5    1    5    5  501    0 -0.42320557645E+02 -0.31576325447E+02  0.32542089672E+03  0.32971039406E+03  0.47000000000E+01 0. -1.
        -13    1    6    6    0    0  0.61965108956E+02  0.82035188993E+01  0.23574948984E+03  0.24389504795E+03  0.00000000000E+00 0.  1.
         14    1    6    6    0    0  0.30918079003E+01  0.20569103758E+02  0.95734038138E+01  0.22897540612E+02  0.00000000000E+00 0. -1.
         -5    1    3    3    0  503 -0.35960912560E+02 -0.59230947876E+02  0.12022879517E+03  0.13884720237E+03  0.47000000000E+01 0.  1.
         13    1    4    4    0    0 -0.55901014440E+01  0.60043018463E+01  0.18269992175E+03  0.18288401319E+03  0.00000000000E+00 0. -1.
        -14    1    4    4    0    0  0.18814654793E+02  0.56030348820E+02  0.89665220339E+02  0.10739293721E+03  0.00000000000E+00 0.  1.
</event>
<event>
12    1  0.8331241E-002  0.3241836E+03  0.7818608E-02  0.1073788E+00
         21   -1    0    0  503  502  0.00000000000E+00  0.00000000000E+00  0.27370339279E+03  0.27370339279E+03  0.00000000000E+00 0. -1.
         21   -1    0    0  501  503 -0.00000000000E+00 -0.00000000000E+00 -0.38375019806E+03  0.38375019806E+03  0.00000000000E+00 0.  1.
          6    2    1    2  501    0  0.27357376810E+03  0.21108201716E+02 -0.63942392773E+02  0.33000799575E+03  0.17183854309E+03 0.  0.
         24    2    3    3    0    0  0.18280091575E+03 -0.47928116968E+02 -0.14545641285E+02  0.20563817192E+03  0.79763418154E+02 0.  0.
         -6    2    1    2    0  502 -0.27357376810E+03 -0.21108201716E+02 -0.46104412494E+02  0.32744559509E+03  0.17264656997E+03 0.  0.
        -24    2    5    5    0    0 -0.11117475979E+03 -0.70100525751E+02 -0.30443137900E+02  0.15703124347E+03  0.80362403258E+02 0.  0.
          5    1    3    3  501    0  0.90772852354E+02  0.69036318684E+02 -0.49396751489E+02  0.12436982383E+03  0.47000000000E+01 0. -1.
        -13    1    4    4    0    0  0.16780670387E+03 -0.37573935321E+02 -0.37827511661E+02  0.17607331177E+03  0.00000000000E+00 0.  1.
         14    1    4    4    0    0  0.14994211877E+02 -0.10354181647E+02  0.23281870376E+02  0.29564860149E+02  0.00000000000E+00 0. -1.
         -5    1    5    5    0  502 -0.16239900832E+03  0.48992324035E+02 -0.15661274593E+02  0.17041435162E+03  0.47000000000E+01 0.  1.
         11    1    6    6    0    0 -0.34929986485E+02  0.37917307550E+01  0.18959985130E+02  0.39924456341E+02  0.00000000000E+00 0. -1.
        -12    1    6    6    0    0 -0.76244773301E+02 -0.73892256506E+02 -0.49403123030E+02  0.11710678713E+03  0.00000000000E+00 0.  1.
</event>
<event>
12    1  0.8331241E-002  0.1933550E+03  0.7818608E-02  0.1155620E+00
         21   -1    0    0  501  502  0.00000000000E+00  0.00000000000E+00  0.12904943216E+04  0.12904943216E+04  0.00000000000E+00 0. -1.
         21   -1    0    0  502  503 -0.00000000000E+00 -0.00000000000E+00 -0.28924291428E+02  0.28924291428E+02  0.00000000000E+00 0. -1.
         -6    2    1    2    0  503 -0.84875850101E+02  0.19295340312E+02  0.66090172066E+03  0.68860527979E+03  0.17265551510E+03 0.  0.
        -24    2    3    3    0    0 -0.10377010374E+03  0.55370652118E+02  0.41659281372E+03  0.44088093106E+03  0.83619850411E+02 0.  0.
          6    2    1    2  501    0  0.84875850101E+02 -0.19295340312E+02  0.60066830948E+03  0.63081333320E+03  0.17189189408E+03 0.  0.
         24    2    5    5    0    0  0.62387480790E+02 -0.13552689971E+02  0.16533390777E+03  0.19483531071E+03  0.80929747783E+02 0.  0.
          5    1    5    5  501    0  0.22488369311E+02 -0.57426503411E+01  0.43533440171E+03  0.43597802250E+03  0.47000000000E+01 0. -1.
        -13    1    6    6    0    0  0.21192109022E+02 -0.44335795007E+02  0.10225487003E+03  0.11344966570E+03  0.00000000000E+00 0.  1.
         14    1    6    6    0    0  0.41195371768E+02  0.30783105036E+02  0.63079037742E+02  0.81385645007E+02  0.00000000000E+00 0. -1.
         -5    1    3    3    0  503  0.18894253644E+02 -0.36075311806E+02  0.24430890694E+03  0.24772434873E+03  0.47000000000E+01 0.  1.
         13    1    4    4    0    0 -0.85722066804E+02  0.22757199195E+01  0.29023384185E+03  0.30263696832E+03  0.00000000000E+00 0. -1.
        -14    1    4    4    0    0 -0.18048036941E+02  0.53094932199E+02  0.12635897187E+03  0.13824396275E+03  0.00000000000E+00 0.  1.
</event>
<event>
12    1  0.8331241E-002  0.2757865E+03  0.7818608E-02  0.1098064E+00
         21   -1    0    0  503  502  0.00000000000E+00  0.00000000000E+00  0.32025167375E+03  0.32025167375E+03  0.00000000000E+00 0. -1.
         21   -1    0    0  501  503 -0.00000000000E+00 -0.00000000000E+00 -0.23957199036E+03  0.23957199036E+03  0.00000000000E+00 0.  1.
          6    2    1    2  501    0  0.19603236422E+03  0.88500234828E+02  0.12405619515E+02  0.27606537066E+03  0.17261868409E+03 0.  0.
         24    2    3    3    0    0  0.96231142405E+02 -0.12620992312E+02  0.39383258925E+02  0.13137373482E+03  0.79298769864E+02 0.  0.
         -6    2    1    2    0  502 -0.19603236422E+03 -0.88500234828E+02  0.68274063876E+02  0.28375829345E+03  0.17203616455E+03 0.  0.
        -24    2    5    5    0    0 -0.28125318248E+02 -0.45853062036E+02  0.58525714445E+02  0.11018214949E+03  0.76297509722E+02 0.  0.
          5    1    3    3  501    0  0.99801221817E+02  0.10112122714E+03 -0.26977639410E+02  0.14469163584E+03  0.47000000000E+01 0. -1.
        -11    1    4    4    0    0  0.28472447132E+02 -0.17081215159E+02 -0.22005235585E+02  0.39833133823E+02  0.00000000000E+00 0.  1.
         12    1    4    4    0    0  0.67758695273E+02  0.44602228475E+01  0.61388494510E+02  0.91540600998E+02  0.00000000000E+00 0. -1.
         -5    1    5    5    0  502 -0.16790704597E+03 -0.42647172792E+02  0.97483494309E+01  0.17357614396E+03  0.47000000000E+01 0.  1.
         13    1    6    6    0    0 -0.34210722316E+02 -0.30093152254E+02  0.74241952753E+02  0.87108202154E+02  0.00000000000E+00 0. -1.
        -14    1    6    6    0    0  0.60854040678E+01 -0.15759909781E+02 -0.15716238308E+02  0.23073947333E+02  0.00000000000E+00 0.  1.
</event>
<event>
12    1  0.8331241E-002  0.1905024E+03  0.7818608E-02  0.1158544E+00
         21   -1    0    0  501  502  0.00000000000E+00  0.00000000000E+00  0.76649881724E+03  0.76649881724E+03  0.00000000000E+00 0.  1.
         21   -1    0    0  502  503 -0.00000000000E+00 -0.00000000000E+00 -0.10582425277E+03  0.10582425277E+03  0.00000000000E+00 0.  1.
         -6    2    1    2    0  503  0.74682516151E+02 -0.31060012000E+02  0.54040253827E+01  0.19057898614E+03  0.17247882161E+03 0.  0.
        -24    2    3    3    0    0  0.51089160380E+02  0.47917523466E+02 -0.16797098851E+02  0.10508584336E+03  0.76516015194E+02 0.  0.
          6    2    1    2  501    0 -0.74682516151E+02  0.31060012000E+02  0.65527053909E+03  0.68174408387E+03  0.16986263255E+03 0.  0.
         24    2    5    5    0    0  0.17175588526E+02  0.23187847761E+02  0.19811898635E+03  0.21536493067E+03  0.79361473578E+02 0.  0.
          5    1    5    5  501    0 -0.91858104677E+02  0.78721642398E+01  0.45715155274E+03  0.46637915320E+03  0.47000000000E+01 0. -1.
        -13    1    6    6    0    0  0.19830235245E+02  0.16068800215E+02  0.20410351341E+03  0.20569319084E+03  0.00000000000E+00 0.  1.
         14    1    6    6    0    0 -0.26546467189E+01  0.71190475452E+01 -0.59845270688E+01  0.96717398326E+01  0.00000000000E+00 0. -1.
         -5    1    3    3    0  503  0.23593355771E+02 -0.78977535467E+02  0.22201124233E+02  0.85493142778E+02  0.47000000000E+01 0.  1.
         13    1    4    4    0    0  0.60619599482E+01  0.17078865471E+02  0.28760803984E+02  0.33994394391E+02  0.00000000000E+00 0. -1.
        -14    1    4    4    0    0  0.45027200432E+02  0.30838657995E+02 -0.45557902835E+02  0.71091448968E+02  0.00000000000E+00 0.  1.
</event>
<event>
12    1  0.8331241E-002  0.1867190E+03  0.7818608E-02  0.1163146E+00
         21   -1    0    0  503  502  0.00000000000E+00  0.00000000000E+00  0.19184257766E+03  0.19184257766E+03  0.00000000000E+00 0. -1.
         21   -1    0    0  501  503 -0.00000000000E+00 -0.00000000000E+00 -0.22206656358E+03  0.22206656358E+03  0.00000000000E+00 0. -1.
          6    2    1    2  501    0 -0.31496314485E+01  0.76966571925E+02 -0.11080137409E+03  0.21711960048E+03  0.17008880927E+03 0.  0.
         24    2    3    3    0    0 -0.24909259029E+02  0.85462088436E+02 -0.16536790846E+02  0.11989019728E+03  0.78587239462E+02 0.  0.
         -6    2    1    2    0  502  0.31496314485E+01 -0.76966571925E+02  0.80577388170E+02  0.19678954076E+03  0.16217162050E+03 0.  0.
        -24    2    5    5    0    0  0.16964180066E+02  0.12901107628E+02  0.13044769748E+02  0.83432643605E+02  0.79602876944E+02 0.  0.
          5    1    3    3  501    0  0.21759627581E+02 -0.84955165107E+01 -0.94264583241E+02  0.97229403201E+02  0.47000000000E+01 0. -1.
        -13    1    4    4    0    0 -0.31159664732E+02  0.28662908517E+02  0.25071667746E+02  0.49204426167E+02  0.00000000000E+00 0.  1.
         14    1    4    4    0    0  0.62504057026E+01  0.56799179920E+02 -0.41608458592E+02  0.70685771110E+02  0.00000000000E+00 0. -1.
         -5    1    5    5    0  502 -0.13814548617E+02 -0.89867679554E+02  0.67532618421E+02  0.11335689716E+03  0.47000000000E+01 0.  1.
         13    1    6    6    0    0 -0.16606585761E+02  0.33519254516E+02  0.21489939645E+02  0.43140892665E+02  0.00000000000E+00 0. -1.
        -14    1    6    6    0    0  0.33570765827E+02 -0.20618146888E+02 -0.84451698966E+01  0.40291750941E+02  0.00000000000E+00 0.  1.
</event>
<event>
12    1  0.8331241E-002  0.2052981E+03  0.7818608E-02  0.1145822E+00
         21   -1    0    0  501  502  0.00000000000E+00  0.00000000000E+00  0.30675604295E+03  0.30675604295E+03  0.00000000000E+00 0. -1.
         21   -1    0    0  502  503 -0.00000000000E+00 -0.00000000000E+00 -0.14631890272E+03  0.14631890272E+03  0.00000000000E+00 0. -1.
         -6    2    1    2    0  503 -0.10136431547E+03 -0.40552390840E+02  0.20026931360E+02  0.20627260502E+03  0.17386226948E+03 0.  0.
        -24    2    3    3    0    0  0.87354426947E+01 -0.19805812878E+02 -0.29980253945E+02  0.83491556698E+02  0.74856170289E+02 0.  0.
          6    2    1    2  501    0  0.10136431547E+03  0.40552390840E+02  0.14041020887E+03  0.24680234065E+03  0.17110566251E+03 0.  0.
         24    2    5    5    0    0  0.10134252649E+03  0.77748926023E+02  0.67961908203E+02  0.16522765724E+03  0.79788185696E+02 0.  0.
          5    1    5    5  501    0  0.21788976651E-01 -0.37196535182E+02  0.72448300665E+02  0.81574683411E+02  0.47000000000E+01 0. -1.
        -11    1    6    6    0    0  0.11676550123E+02  0.57187326097E+02  0.30976872724E+02  0.66077974641E+02  0.00000000000E+00 0.  1.
         12    1    6    6    0    0  0.89665976372E+02  0.20561599926E+02  0.36985035479E+02  0.99149682599E+02  0.00000000000E+00 0. -1.
         -5    1    3    3    0  503 -0.11009975817E+03 -0.20746577962E+02  0.50007185305E+02  0.12278104832E+03  0.47000000000E+01 0.  1.
         11    1    4    4    0    0  0.46426234436E+01  0.26762024790E+02  0.13847153509E+01  0.27197010128E+02  0.00000000000E+00 0. -1.
        -12    1    4    4    0    0  0.40928192511E+01 -0.46567837668E+02 -0.31364969296E+02  0.56294546569E+02  0.00000000000E+00 0.  1.
</event>
<event>
12    1  0.8331241E-002  0.2640180E+03  0.7818608E-02  0.1104943E+00
         21   -1    0    0  503  502  0.00000000000E+00  0.00000000000E+00  0.38230947149E+03  0.38230947149E+03  0.00000000000E+00 0. -1.
         21   -1    0    0  501  503 -0.00000000000E+00 -0.00000000000E+00 -0.19388741610E+03  0.19388741610E+03  0.00000000000E+00 0. -1.
          6    2    1    2  501    0 -0.15816286279E+03 -0.11980139727E+03  0.21001116597E+02  0.26357048314E+03  0.17222220162E+03 0.  0.
         24    2    3    3    0    0 -0.58005113751E+02 -0.10795925361E+03  0.54228642892E+02  0.15727857582E+03  0.82316529570E+02 0.  0.
         -6    2    1    2    0  502  0.15816286279E+03  0.11980139727E+03  0.16742093878E+03  0.31262640445E+03  0.17417701359E+03 0.  0.
        -24    2    5    5    0    0  0.19468555308E+02  0.76646534909E+02  0.39547979111E+02  0.11904945105E+03  0.79718336557E+02 0.  0.
          5    1    3    3  501    0 -0.10015774904E+03 -0.11842143661E+02 -0.33227526296E+02  0.10629190732E+03  0.47000000000E+01 0. -1.
        -13    1    4    4    0    0  0.15765720030E+02 -0.75879300441E+01  0.22926820374E+02  0.28840487216E+02  0.00000000000E+00 0.  1.
         14    1    4    4    0    0 -0.73770833781E+02 -0.10037132356E+03  0.31301822518E+02  0.12843808860E+03  0.00000000000E+00 0. -1.
         -5    1    5    5    0  502  0.13869430748E+03  0.43154862358E+02  0.12787295967E+03  0.19357695340E+03  0.47000000000E+01 0.  1.
         13    1    6    6    0    0  0.47478387202E+02  0.37237586152E+02  0.69509731592E+01  0.60738382442E+02  0.00000000000E+00 0. -1.
        -14    1    6    6    0    0 -0.28009831894E+02  0.39408948757E+02  0.32597005951E+02  0.58311068605E+02  0.00000000000E+00 0.  1.
</event>
<event>
12    1  0.8331241E-002  0.3209505E+03  0.7818608E-02  0.1075217E+00
         21   -1    0    0  503  502  0.00000000000E+00  0.00000000000E+00  0.12722777365E+04  0.12722777365E+04  0.00000000000E+00 0.  1.
         21   -1    0    0  501  503 -0.00000000000E+00 -0.00000000000E+00 -0.83921800472E+02  0.83921800472E+02  0.00000000000E+00 0. -1.
          6    2    1    2  501    0  0.27092335311E+03  0.35454807608E+01  0.46671389497E+03  0.56641955551E+03  0.17203842423E+03 0.  0.
         24    2    3    3    0    0  0.69764180433E+02  0.30893693342E+02  0.10929943340E+03  0.15534763380E+03  0.79781326290E+02 0.  0.
         -6    2    1    2    0  502 -0.27092335311E+03 -0.35454807608E+01  0.72164204104E+03  0.78977998144E+03  0.17196845641E+03 0.  0.
        -24    2    5    5    0    0 -0.90454135397E+02 -0.53999711265E+02  0.30835714301E+03  0.33597246183E+03  0.81825717450E+02 0.  0.
          5    1    3    3  501    0  0.20115917268E+03 -0.27348212581E+02  0.35741446157E+03  0.41107192172E+03  0.47000000000E+01 0. -1.
        -11    1    4    4    0    0 -0.13592970337E+02  0.21574237515E+02  0.17089563657E+02  0.30696412705E+02  0.00000000000E+00 0.  1.
         12    1    4    4    0    0  0.83357150770E+02  0.93194558266E+01  0.92209869746E+02  0.12465122109E+03  0.00000000000E+00 0. -1.
         -5    1    5    5    0  502 -0.18046921771E+03  0.50454230504E+02  0.41328489803E+03  0.45380751961E+03  0.47000000000E+01 0.  1.
         11    1    6    6    0    0 -0.90254305814E+02 -0.29415715405E+02  0.16362636185E+03  0.18916847075E+03  0.00000000000E+00 0. -1.
        -12    1    6    6    0    0 -0.19982958250E+00 -0.24583995861E+02  0.14473078116E+03  0.14680399109E+03  0.00000000000E+00 0.  1.
</event>
<event>
12    1  0.8331241E-002  0.2422470E+03  0.7818608E-02  0.1118517E+00
         21   -1    0    0  503  502  0.00000000000E+00  0.00000000000E+00  0.28958936811E+03  0.28958936811E+03  0.00000000000E+00 0. -1.
         21   -1    0    0  501  503 -0.00000000000E+00 -0.00000000000E+00 -0.27866701813E+03  0.27866701813E+03  0.00000000000E+00 0.  1.
          6    2    1    2  501    0  0.15419023522E+03  0.71892164656E+02 -0.14397377860E+03  0.28180145910E+03  0.17245434598E+03 0.  0.
         24    2    3    3    0    0  0.10011478403E+03  0.83121416938E+02 -0.16434913084E+03  0.22274643809E+03  0.75320640838E+02 0.  0.
         -6    2    1    2    0  502 -0.15419023522E+03 -0.71892164656E+02  0.15489612859E+03  0.28645492714E+03  0.17064730486E+03 0.  0.
        -24    2    5    5    0    0 -0.26962190223E+02 -0.68258544736E+02  0.45771832234E+02  0.11873378750E+03  0.81341643932E+02 0.  0.
          5    1    3    3  501    0  0.54075451183E+02 -0.11229252282E+02  0.20375352238E+02  0.59055021008E+02  0.47000000000E+01 0. -1.
        -11    1    4    4    0    0  0.98933933640E+01  0.48473405725E+02 -0.82032343741E+02  0.95795906564E+02  0.00000000000E+00 0.  1.
         12    1    4    4    0    0  0.90221390669E+02  0.34648011212E+02 -0.82316787101E+02  0.12695053152E+03  0.00000000000E+00 0. -1.
         -5    1    5    5    0  502 -0.12722804499E+03 -0.36336199200E+01  0.10912429635E+03  0.16772113964E+03  0.47000000000E+01 0.  1.
         11    1    6    6    0    0  0.95744963004E+01 -0.11916999194E+02  0.49175015854E+02  0.51496291454E+02  0.00000000000E+00 0. -1.
        -12    1    6    6    0    0 -0.36536686524E+02 -0.56341545542E+02 -0.34031836202E+01  0.67237496049E+02  0.00000000000E+00 0.  1.
</event>
<event>
12    1  0.8331241E-002  0.1775827E+03  0.7818608E-02  0.1171247E+00
         21   -1    0    0  503  502  0.00000000000E+00  0.00000000000E+00  0.39457972581E+03  0.39457972581E+03  0.00000000000E+00 0.  1.
         21   -1    0    0  501  503 -0.00000000000E+00 -0.00000000000E+00 -0.15536119837E+03  0.15536119837E+03  0.00000000000E+00 0.  1.
          6    2    1    2  501    0 -0.67306114748E+00  0.42726264220E+02 -0.75185504237E+02  0.18885159099E+03  0.16788709512E+03 0.  0.
         24    2    3    3    0    0  0.29124000206E+02 -0.30355650838E+02 -0.55818506139E+02  0.10745133430E+03  0.81611339220E+02 0.  0.
         -6    2    1    2    0  502  0.67306114748E+00 -0.42726264220E+02  0.31440403168E+03  0.36108933319E+03  0.17236480134E+03 0.  0.
        -24    2    5    5    0    0  0.58952690972E+02 -0.29682234926E+02  0.13980552306E+03  0.17649954158E+03  0.85147219908E+02 0.  0.
          5    1    3    3  501    0 -0.29797061353E+02  0.73081915058E+02 -0.19366998098E+02  0.81400256690E+02  0.47000000000E+01 0. -1.
        -11    1    4    4    0    0 -0.13413972368E+02 -0.38707471167E+02 -0.48503261941E+02  0.63488340644E+02  0.00000000000E+00 0.  1.
         12    1    4    4    0    0  0.42537972573E+02  0.83518203283E+01 -0.73152441973E+01  0.43962993655E+02  0.00000000000E+00 0. -1.
         -5    1    5    5    0  502 -0.58279629824E+02 -0.13044029294E+02  0.17459850862E+03  0.18458979161E+03  0.47000000000E+01 0.  1.
         13    1    6    6    0    0  0.48119244556E+02  0.15393094873E+02  0.11090460797E+03  0.12186977121E+03  0.00000000000E+00 0. -1.
        -14    1    6    6    0    0  0.10833446416E+02 -0.45075329798E+02  0.28900915087E+02  0.54629770369E+02  0.00000000000E+00 0.  1.
</event>
<event>
12    1  0.8331241E-002  0.1906076E+03  0.7818608E-02  0.1159416E+00
         21   -1    0    0  503  502  0.00000000000E+00  0.00000000000E+00  0.17298543258E+03  0.17298543258E+03  0.00000000000E+00 0. -1.
         21   -1    0    0  501  503 -0.00000000000E+00 -0.00000000000E+00 -0.80160387575E+03  0.80160387575E+03  0.00000000000E+00 0. -1.
          6    2    1    2  501    0  0.65129036541E+02  0.16773747417E+02 -0.73683199975E+03  0.76108650508E+03  0.17834831749E+03 0.  0.
         24    2    3    3    0    0 -0.23344399955E+02  0.47100820501E+02 -0.35990287096E+03  0.37269889140E+03  0.81307679989E+02 0.  0.
         -6    2    1    2    0  502 -0.65129036541E+02 -0.16773747417E+02  0.10821355658E+03  0.21350280326E+03  0.17131877646E+03 0.  0.
        -24    2    5    5    0    0 -0.86822955015E+02 -0.59057427364E+02  0.57911664554E+02  0.14414210812E+03  0.79982380539E+02 0.  0.
          5    1    3    3  501    0  0.88473436496E+02 -0.30327073084E+02 -0.37692912879E+03  0.38838761367E+03  0.47000000000E+01 0. -1.
        -13    1    4    4    0    0 -0.29857599403E+02  0.33465841808E+02 -0.74936920635E+02  0.87332587757E+02  0.00000000000E+00 0.  1.
         14    1    4    4    0    0  0.65131994477E+01  0.13634978693E+02 -0.28496595033E+03  0.28536630365E+03  0.00000000000E+00 0. -1.
         -5    1    5    5    0  502  0.21693918473E+02  0.42283679947E+02  0.50301892029E+02  0.69360695140E+02  0.47000000000E+01 0.  1.
         13    1    6    6    0    0 -0.50702409993E+02  0.46963785689E+01  0.48400333013E+02  0.70252278159E+02  0.00000000000E+00 0. -1.
        -14    1    6    6    0    0 -0.36120545021E+02 -0.63753805933E+02  0.95113315419E+01  0.73889829958E+02  0.00000000000E+00 0.  1.
</event>
<event>
12    1  0.8331241E-002  0.2248237E+03  0.7818608E-02  0.1130683E+00
         21   -1    0    0  501  502  0.00000000000E+00  0.00000000000E+00  0.65507144333E+03  0.65507144333E+03  0.00000000000E+00 0. -1.
         21   -1    0    0  502  503 -0.00000000000E+00 -0.00000000000E+00 -0.86511024072E+02  0.86511024072E+02  0.00000000000E+00 0.  1.
         -6    2    1    2    0  503 -0.13751305759E+03  0.45312702272E+02  0.15714102460E+03  0.27274174618E+03  0.16950420792E+03 0.  0.
        -24    2    3    3    0    0 -0.11468244563E+03  0.97950705049E+02  0.12045374996E+03  0.20447724370E+03  0.67493950503E+02 0.  0.
          6    2    1    2  501    0  0.13751305759E+03 -0.45312702272E+02  0.41141939466E+03  0.46884072123E+03  0.17199599292E+03 0.  0.
         24    2    5    5    0    0  0.11082544848E+03 -0.68131155992E+02  0.18637666982E+03  0.24102669990E+03  0.80208930690E+02 0.  0.
          5    1    5    5  501    0  0.26687609110E+02  0.22818453721E+02  0.22504272484E+03  0.22781402133E+03  0.47000000000E+01 0. -1.
        -13    1    6    6    0    0  0.27299530280E+02 -0.57362830805E+02  0.11154346681E+03  0.12836550821E+03  0.00000000000E+00 0.  1.
         14    1    6    6    0    0  0.83525918200E+02 -0.10768325188E+02  0.74833203015E+02  0.11266119169E+03  0.00000000000E+00 0. -1.
         -5    1    3    3    0  503 -0.22830611958E+02 -0.52638002777E+02  0.36687274632E+02  0.68264502479E+02  0.47000000000E+01 0.  1.
         11    1    4    4    0    0 -0.88640717440E+02  0.74716873766E+02  0.12357061018E+03  0.16943873145E+03  0.00000000000E+00 0. -1.
        -12    1    4    4    0    0 -0.26041728192E+02  0.23233831283E+02 -0.31168602162E+01  0.35038512253E+02  0.00000000000E+00 0.  1.
</event>
<event>
12    1  0.8331241E-002  0.3731770E+03  0.7818608E-02  0.1053551E+00
         21   -1    0    0  503  502  0.00000000000E+00  0.00000000000E+00  0.14429286317E+04  0.14429286317E+04  0.00000000000E+00 0. -1.
         21   -1    0    0  501  503 -0.00000000000E+00 -0.00000000000E+00 -0.12221971989E+03  0.12221971989E+03  0.00000000000E+00 0.  1.
          6    2    1    2  501    0 -0.55552628024E+02 -0.32709238857E+03  0.29969787941E+03  0.47807678315E+03  0.16930170264E+03 0.  0.
         24    2    3    3    0    0 -0.10013070642E+03 -0.20045628254E+03  0.17267884896E+03  0.29319889771E+03  0.77063150496E+02 0.  0.
         -6    2    1    2    0  502  0.55552628024E+02  0.32709238857E+03  0.10210110324E+04  0.10870715685E+04  0.17083776373E+03 0.  0.
        -24    2    5    5    0    0  0.24855682897E+02  0.31846859138E+03  0.98599793063E+03  0.10394829184E+04  0.79326980203E+02 0.  0.
          5    1    3    3  501    0  0.44578078398E+02 -0.12663610603E+03  0.12701903045E+03  0.18487788543E+03  0.47000000000E+01 0. -1.
        -13    1    4    4    0    0 -0.16301456896E+02 -0.10490186943E+03  0.53188250466E+02  0.11873975617E+03  0.00000000000E+00 0.  1.
         14    1    4    4    0    0 -0.83829249526E+02 -0.95554413107E+02  0.11949059849E+03  0.17445914154E+03  0.00000000000E+00 0. -1.
         -5    1    5    5    0  502  0.30696945128E+02  0.86237971937E+01  0.35013101800E+02  0.47588650074E+02  0.47000000000E+01 0.  1.
         11    1    6    6    0    0  0.47588739708E+02  0.11702395777E+03  0.36703992984E+03  0.38817213313E+03  0.00000000000E+00 0. -1.
        -12    1    6    6    0    0 -0.22733056811E+02  0.20144463361E+03  0.61895800079E+03  0.65131078529E+03  0.00000000000E+00 0.  1.
</event>
<event>
12    1  0.8331241E-002  0.2444727E+03  0.7818608E-02  0.1117902E+00
         21   -1    0    0  503  502  0.00000000000E+00  0.00000000000E+00  0.85515415513E+02  0.85515415513E+02  0.00000000000E+00 0. -1.
         21   -1    0    0  501  503 -0.00000000000E+00 -0.00000000000E+00 -0.10065201304E+04  0.10065201304E+04  0.00000000000E+00 0.  1.
          6    2    1    2  501    0 -0.11759715612E+03  0.11795148578E+03 -0.15401456306E+03  0.28894180045E+03  0.17895595629E+03 0.  0.
         24    2    3    3    0    0 -0.52805573827E+02 -0.94412121502E+01 -0.35683252059E+02  0.10333135413E+03  0.80786812998E+02 0.  0.
         -6    2    1    2    0  502  0.11759715612E+03 -0.11795148578E+03 -0.76699015182E+03  0.80309374545E+03  0.17012944151E+03 0.  0.
        -24    2    5    5    0    0  0.61532147415E+02 -0.35903889649E+02 -0.19449881644E+03  0.22202274091E+03  0.79931304426E+02 0.  0.
          5    1    3    3  501    0 -0.64791582289E+02  0.12739269793E+03 -0.11833131100E+03  0.18561044633E+03  0.47000000000E+01 0. -1.
        -11    1    4    4    0    0  0.14890698504E+02  0.12274183932E+02 -0.24777849197E+02  0.31405896006E+02  0.00000000000E+00 0.  1.
         12    1    4    4    0    0 -0.67696272331E+02 -0.21715396082E+02 -0.10905402862E+02  0.71925458122E+02  0.00000000000E+00 0. -1.
         -5    1    5    5    0  502  0.56065008701E+02 -0.82047596135E+02 -0.57249133538E+03  0.58107100454E+03  0.47000000000E+01 0.  1.
         11    1    6    6    0    0  0.46374183810E+02  0.14359099627E+02 -0.57169174737E+02  0.75000421374E+02  0.00000000000E+00 0. -1.
        -12    1    6    6    0    0  0.15157963604E+02 -0.50262989276E+02 -0.13732964170E+03  0.14702231953E+03  0.00000000000E+00 0.  1.
</event>
<event>
12    1  0.8331241E-002  0.2359047E+03  0.7818608E-02  0.1122723E+00
         21   -1    0    0  503  502  0.00000000000E+00  0.00000000000E+00  0.51545524765E+03  0.51545524765E+03  0.00000000000E+00 0. -1.
         21   -1    0    0  501  503 -0.00000000000E+00 -0.00000000000E+00 -0.11283360916E+03  0.11283360916E+03  0.00000000000E+00 0.  1.
          6    2    1    2  501    0  0.11679996369E+03  0.11022475526E+03  0.13345336912E+03  0.27103661447E+03  0.17279848514E+03 0.  0.
         24    2    3    3    0    0  0.15117965995E+03  0.75754083918E+02  0.12300791541E+03  0.22102273439E+03  0.71597004482E+02 0.  0.
         -6    2    1    2    0  502 -0.11679996369E+03 -0.11022475526E+03  0.26916826937E+03  0.35725224234E+03  0.17142310006E+03 0.  0.
        -24    2    5    5    0    0  0.92487402114E+01 -0.61684247657E+02  0.11266265843E+03  0.15046599307E+03  0.77824513243E+02 0.  0.
          5    1    3    3  501    0 -0.34379696260E+02  0.34470671340E+02  0.10445453702E+02  0.50013880079E+02  0.47000000000E+01 0. -1.
        -13    1    4    4    0    0  0.11599984442E+03  0.75541780388E+02  0.64420860972E+02  0.15268455003E+03  0.00000000000E+00 0.  1.
         14    1    4    4    0    0  0.35179815524E+02  0.21230353000E+00  0.58587054441E+02  0.68338184357E+02  0.00000000000E+00 0. -1.
         -5    1    5    5    0  502 -0.12604870390E+03 -0.48540507602E+02  0.15650561094E+03  0.20678624928E+03  0.47000000000E+01 0.  1.
         13    1    6    6    0    0 -0.11963462679E+02 -0.53448231097E+02  0.11521244724E+03  0.12756859271E+03  0.00000000000E+00 0. -1.
        -14    1    6    6    0    0  0.21212202891E+02 -0.82360165595E+01 -0.25497888121E+01  0.22897400360E+02  0.00000000000E+00 0.  1.
</event>
<event>
12    1  0.8331241E-002  0.2369616E+03  0.7818608E-02  0.1123075E+00
         21   -1    0    0  503  502  0.00000000000E+00  0.00000000000E+00  0.44365838975E+02  0.44365838975E+02  0.00000000000E+00 0.  1.
         21   -1    0    0  501  503 -0.00000000000E+00 -0.00000000000E+00 -0.12551431792E+04  0.12551431792E+04  0.00000000000E+00 0.  1.
          6    2    1    2  501    0 -0.62301289184E+02 -0.14911851277E+03 -0.71110465110E+03  0.74954693511E+03  0.17330032207E+03 0.  0.
         24    2    3    3    0    0 -0.33730619789E+02 -0.13721755644E+03 -0.69662706176E+03  0.71505626239E+03  0.77780349089E+02 0.  0.
         -6    2    1    2    0  502  0.62301289184E+02  0.14911851277E+03 -0.49967268907E+03  0.54996208302E+03  0.16330252621E+03 0.  0.
        -24    2    5    5    0    0 -0.23513778414E+01  0.13680950749E+03 -0.29453112050E+03  0.33447047733E+03  0.79997180855E+02 0.  0.
          5    1    3    3  501    0 -0.28570669395E+02 -0.11900956333E+02 -0.14477589342E+02  0.34490672717E+02  0.47000000000E+01 0. -1.
        -11    1    4    4    0    0  0.18325526875E+02 -0.87120450413E+02 -0.39040193081E+03  0.40042410691E+03  0.00000000000E+00 0.  1.
         12    1    4    4    0    0 -0.52056146664E+02 -0.50097106024E+02 -0.30622513095E+03  0.31463215549E+03  0.00000000000E+00 0. -1.
         -5    1    5    5    0  502  0.64652667026E+02  0.12309005279E+02 -0.20514156858E+03  0.21549160569E+03  0.47000000000E+01 0.  1.
         11    1    6    6    0    0 -0.42509374143E+01  0.91767431481E+00  0.43439175925E+01  0.61467239322E+01  0.00000000000E+00 0. -1.
        -12    1    6    6    0    0  0.18995595729E+01  0.13589183318E+03 -0.29887503809E+03  0.32832375339E+03  0.00000000000E+00 0.  1.
</event>
<event>
12    1  0.8331241E-002  0.1776470E+03  0.7818608E-02  0.1170670E+00
         21   -1    0    0  501  502  0.00000000000E+00  0.00000000000E+00  0.16754762470E+03  0.16754762470E+03  0.00000000000E+00 0.  1.
         21   -1    0    0  502  503 -0.00000000000E+00 -0.00000000000E+00 -0.20839868539E+03  0.20839868539E+03  0.00000000000E+00 0.  1.
         -6    2    1    2    0  503 -0.16647564661E+02 -0.30724016813E+02 -0.82035920309E+02  0.19358776704E+03  0.17182905665E+03 0.  0.
        -24    2    3    3    0    0 -0.54800241711E+02 -0.38055570704E+01  0.46613294903E+01  0.95004130653E+02  0.77372528021E+02 0.  0.
          6    2    1    2  501    0  0.16647564661E+02  0.30724016813E+02  0.41184859616E+02  0.18235854304E+03  0.17417617214E+03 0.  0.
         24    2    5    5    0    0  0.16271497910E+02  0.45043865487E+02  0.90885559250E+02  0.13042157127E+03  0.80348552640E+02 0.  0.
          5    1    5    5  501    0  0.37606675024E+00 -0.14319848674E+02 -0.49700699635E+02  0.51936971768E+02  0.47000000000E+01 0. -1.
        -13    1    6    6    0    0  0.17999698697E+02 -0.16686947830E+02  0.51843545301E+02  0.57360235098E+02  0.00000000000E+00 0.  1.
         14    1    6    6    0    0 -0.17282007866E+01  0.61730813317E+02  0.39042013949E+02  0.73061336177E+02  0.00000000000E+00 0. -1.
         -5    1    3    3    0  503  0.38152677051E+02 -0.26918459742E+02 -0.86697249800E+02  0.98583636390E+02  0.47000000000E+01 0.  1.
         11    1    4    4    0    0 -0.18265117095E+02 -0.13249016423E+02 -0.34111594681E+02  0.40899288873E+02  0.00000000000E+00 0. -1.
        -12    1    4    4    0    0 -0.36535124616E+02  0.94434593527E+01  0.38772924171E+02  0.54104841780E+02  0.00000000000E+00 0.  1.
</event>
<event>
12    1  0.8331241E-002  0.1821841E+03  0.7818608E-02  0.1166182E+00
         21   -1    0    0  503  502  0.00000000000E+00  0.00000000000E+00  0.33512327393E+03  0.33512327393E+03  0.00000000000E+00 0.  1.
         21   -1    0    0  501  503 -0.00000000000E+00 -0.00000000000E+00 -0.65785439490E+03  0.65785439490E+03  0.00000000000E+00 0.  1.
          6    2    1    2  501    0  0.49006010973E+02 -0.35002278490E+02 -0.61926530877E+03  0.64494956771E+03  0.16983425339E+03 0.  0.
         24    2    3    3    0    0  0.32919037391E+02 -0.41308921492E+02 -0.61994391513E+03  0.62702988658E+03  0.77755583377E+02 0.  0.
         -6    2    1    2    0  502 -0.49006010973E+02  0.35002278490E+02  0.29653418780E+03  0.34802810113E+03  0.17194268240E+03 0.  0.
        -24    2    5    5    0    0  0.32076269404E+02  0.29253266181E+02  0.10050231820E+03  0.13575947124E+03  0.80282485189E+02 0.  0.
          5    1    3    3  501    0  0.16086973582E+02  0.63066430021E+01  0.67860635585E+00  0.17919681124E+02  0.47000000000E+01 0. -1.
        -11    1    4    4    0    0  0.18069636862E+02 -0.62647241585E+02 -0.36634045833E+03  0.37209746043E+03  0.00000000000E+00 0.  1.
         12    1    4    4    0    0  0.14849400529E+02  0.21338320093E+02 -0.25360345680E+03  0.25493242615E+03  0.00000000000E+00 0. -1.
         -5    1    5    5    0  502 -0.81082280378E+02  0.57490123090E+01  0.19603186960E+03  0.21226862988E+03  0.47000000000E+01 0.  1.
         13    1    6    6    0    0 -0.13391606896E+01 -0.20011612395E+02  0.13395738988E+01  0.20101055699E+02  0.00000000000E+00 0. -1.
        -14    1    6    6    0    0  0.33415430094E+02  0.49264878576E+02  0.99162744298E+02  0.11565841554E+03  0.00000000000E+00 0.  1.
</event>
<event>
12    1  0.8331241E-002  0.3303255E+03  0.7818608E-02  0.1071049E+00
         21   -1    0    0  503  502  0.00000000000E+00  0.00000000000E+00  0.78688796236E+03  0.78688796236E+03  0.00000000000E+00 0. -1.
         21   -1    0    0  501  503 -0.00000000000E+00 -0.00000000000E+00 -0.14066644066E+03  0.14066644066E+03  0.00000000000E+00 0.  1.
          6    2    1    2  501    0 -0.28150168989E+03  0.25345202730E+02  0.38105361603E+03  0.50396386298E+03  0.16997686959E+03 0.  0.
         24    2    3    3    0    0 -0.82813341738E+02  0.89032311814E+01  0.76722436505E+02  0.14011368097E+03  0.82511782417E+02 0.  0.
         -6    2    1    2    0  502  0.28150168989E+03 -0.25345202730E+02  0.26516790567E+03  0.42359054003E+03  0.17096592262E+03 0.  0.
        -24    2    5    5    0    0  0.20310860492E+03  0.44561694920E+02  0.20384594007E+03  0.30187396936E+03  0.79598216378E+02 0.  0.
          5    1    3    3  501    0 -0.19868834815E+03  0.16441971549E+02  0.30433117952E+03  0.36385018201E+03  0.47000000000E+01 0. -1.
        -13    1    4    4    0    0 -0.76774873596E+02  0.38765928916E+02  0.49367683543E+02  0.99168274356E+02  0.00000000000E+00 0.  1.
         14    1    4    4    0    0 -0.60384681413E+01 -0.29862697735E+02  0.27354752962E+02  0.40945406618E+02  0.00000000000E+00 0. -1.
         -5    1    5    5    0  502  0.78393084969E+02 -0.69906897650E+02  0.61321965598E+02  0.12171657067E+03  0.47000000000E+01 0.  1.
         13    1    6    6    0    0  0.10721879225E+03 -0.64152466280E+01  0.13799593499E+03  0.17487110360E+03  0.00000000000E+00 0. -1.
        -14    1    6    6    0    0  0.95889812668E+02  0.50976941548E+02  0.65850005081E+02  0.12700286576E+03  0.00000000000E+00 0.  1.
</event>
<event>
12    1  0.8331241E-002  0.1823898E+03  0.7818608E-02  0.1165942E+00
         21   -1    0    0  503  502  0.00000000000E+00  0.00000000000E+00  0.59221315898E+03  0.59221315898E+03  0.00000000000E+00 0. -1.
         21   -1    0    0  501  503 -0.00000000000E+00 -0.00000000000E+00 -0.62908535792E+02  0.62908535792E+02  0.00000000000E+00 0. -1.
          6    2    1    2  501    0 -0.68519823002E+01 -0.61986175643E+02  0.15197828030E+03  0.23602599833E+03  0.16947459566E+03 0.  0.
         24    2    3    3    0    0  0.50238799515E+02 -0.27690330158E+02  0.13347877507E+03  0.16674480262E+03  0.81832477930E+02 0.  0.
         -6    2    1    2    0  502  0.68519823002E+01  0.61986175643E+02  0.37732634289E+03  0.41909569644E+03  0.17139661054E+03 0.  0.
        -24    2    5    5    0    0  0.31710660933E+02 -0.12872404862E+02  0.10296236984E+03  0.13357960112E+03  0.77916592641E+02 0.  0.
          5    1    3    3  501    0 -0.57090781815E+02 -0.34295845485E+02  0.18499505225E+02  0.69281195713E+02  0.47000000000E+01 0. -1.
        -11    1    4    4    0    0  0.23664807375E+02  0.12116433358E+01  0.12414823510E+03  0.12638938035E+03  0.00000000000E+00 0.  1.
         12    1    4    4    0    0  0.26573992140E+02 -0.28901973494E+02  0.93305399747E+01  0.40355422267E+02  0.00000000000E+00 0. -1.
         -5    1    5    5    0  502 -0.24858678633E+02  0.74858580505E+02  0.27436397305E+03  0.28551609532E+03  0.47000000000E+01 0.  1.
         11    1    6    6    0    0 -0.23410700458E+02  0.99220802859E+01  0.29263489913E+02  0.38766743674E+02  0.00000000000E+00 0. -1.
        -12    1    6    6    0    0  0.55121361391E+02 -0.22794485148E+02  0.73698879925E+02  0.94812857446E+02  0.00000000000E+00 0.  1.
</event>
<event>
12    1  0.8331241E-002  0.1921810E+03  0.7818608E-02  0.1157595E+00
         21   -1    0    0  501  502  0.00000000000E+00  0.00000000000E+00  0.33020700516E+03  0.33020700516E+03  0.00000000000E+00 0. -1.
         21   -1    0    0  502  503 -0.00000000000E+00 -0.00000000000E+00 -0.12985582221E+03  0.12985582221E+03  0.00000000000E+00 0. -1.
         -6    2    1    2    0  503 -0.62222698971E+02  0.23891361668E+02  0.91953853475E+01  0.19240081655E+03  0.18025276050E+03 0.  0.
        -24    2    3    3    0    0 -0.99656218337E+02  0.47567658221E+02 -0.21950629344E+02  0.13805010706E+03  0.79887157719E+02 0.  0.
          6    2    1    2  501    0  0.62222698971E+02 -0.23891361668E+02  0.19115579760E+03  0.26766201083E+03  0.17509983340E+03 0.  0.
         24    2    5    5    0    0  0.15726934834E+02 -0.81410810730E+02  0.11036666248E+03  0.15802936307E+03  0.76924786774E+02 0.  0.
          5    1    5    5  501    0  0.46495764136E+02  0.57519449062E+02  0.80789135117E+02  0.10963264777E+03  0.47000000000E+01 0. -1.
        -13    1    6    6    0    0 -0.25557550638E+01 -0.58356815042E+02  0.18051326081E+02  0.61138368632E+02  0.00000000000E+00 0.  1.
         14    1    6    6    0    0  0.18282689898E+02 -0.23053995688E+02  0.92315336404E+02  0.96890994434E+02  0.00000000000E+00 0. -1.
         -5    1    3    3    0  503  0.37433519367E+02 -0.23676296553E+02  0.31146014691E+02  0.54350709487E+02  0.47000000000E+01 0.  1.
         13    1    4    4    0    0 -0.86587584040E+02  0.17477630370E+02 -0.43837745701E+02  0.98613514395E+02  0.00000000000E+00 0. -1.
        -14    1    4    4    0    0 -0.13068634297E+02  0.30090027852E+02  0.21887116357E+02  0.39436592664E+02  0.00000000000E+00 0.  1.
</event>
<event>
12    1  0.8331241E-002  0.1726815E+03  0.7818608E-02  0.1175126E+00
         21   -1    0    0  503  502  0.00000000000E+00  0.00000000000E+00  0.23119309022E+03  0.23119309022E+03  0.00000000000E+00 0.  1.
         21   -1    0    0  501  503 -0.00000000000E+00 -0.00000000000E+00 -0.14895137252E+03  0.14895137252E+03  0.00000000000E+00 0.  1.
          6    2    1    2  501    0  0.11881015542E+01 -0.64680889026E+01 -0.28730813499E+02  0.17487925534E+03  0.17237762774E+03 0.  0.
         24    2    3    3    0    0  0.24108931548E+02 -0.22399826914E+02 -0.79056712563E+02  0.11713870772E+03  0.79928219160E+02 0.  0.
         -6    2    1    2    0  502 -0.11881015542E+01  0.64680889026E+01  0.11097253120E+03  0.20526520740E+03  0.17255623700E+03 0.  0.
        -24    2    5    5    0    0 -0.66475099241E+02  0.17763587709E+02  0.72122587098E+02  0.12831464849E+03  0.80799118679E+02 0.  0.
          5    1    3    3  501    0 -0.22920829994E+02  0.15931738011E+02  0.50325899064E+02  0.57740547628E+02  0.47000000000E+01 0. -1.
        -11    1    4    4    0    0  0.50527599961E+02 -0.28982341956E+02 -0.45424446555E+02  0.73867413979E+02  0.00000000000E+00 0.  1.
         12    1    4    4    0    0 -0.26418668412E+02  0.65825150417E+01 -0.33632266008E+02  0.43271293738E+02  0.00000000000E+00 0. -1.
         -5    1    5    5    0  502  0.65286997686E+02 -0.11295498806E+02  0.38849944101E+02  0.76950558912E+02  0.47000000000E+01 0.  1.
         11    1    6    6    0    0 -0.47021712582E+01  0.30118399515E+02 -0.25839642971E+01  0.30592568957E+02  0.00000000000E+00 0. -1.
        -12    1    6    6    0    0 -0.61772927982E+02 -0.12354811807E+02  0.74706551396E+02  0.97722079530E+02  0.00000000000E+00 0.  1.
</event>
<event>
12    1  0.8331241E-002  0.1957289E+03  0.7818608E-02  0.1153462E+00
         21   -1    0    0  503  502  0.00000000000E+00  0.00000000000E+00  0.24562395854E+03  0.24562395854E+03  0.00000000000E+00 0.  1.
         21   -1    0    0  501  503 -0.00000000000E+00 -0.00000000000E+00 -0.24280075795E+03  0.24280075795E+03  0.00000000000E+00 0. -1.
          6    2    1    2  501    0  0.57400967374E+02 -0.71571207510E+02  0.14766625532E+03  0.24493078785E+03  0.17253538499E+03 0.  0.
         24    2    3    3    0    0  0.88806473394E+02 -0.84260871273E+02  0.75025717311E+02  0.16464335958E+03  0.80573528230E+02 0.  0.
         -6    2    1    2    0  502 -0.57400967374E+02  0.71571207510E+02 -0.14484305473E+03  0.24349392865E+03  0.17289440126E+03 0.  0.
        -24    2    5    5    0    0 -0.83287081738E+02  0.75743595988E+02 -0.16162974671E+03  0.21200769721E+03  0.78417206900E+02 0.  0.
          5    1    3    3  501    0 -0.31405506020E+02  0.12689663764E+02  0.72640538012E+02  0.80287428265E+02  0.47000000000E+01 0. -1.
        -13    1    4    4    0    0  0.15334755108E+02  0.94025614254E-01  0.46833563761E+02  0.49280282564E+02  0.00000000000E+00 0.  1.
         14    1    4    4    0    0  0.73471718286E+02 -0.84354896887E+02  0.28192153550E+02  0.11536307702E+03  0.00000000000E+00 0. -1.
         -5    1    5    5    0  502  0.25886114364E+02 -0.41723884785E+01  0.16786691980E+02  0.31486231437E+02  0.47000000000E+01 0.  1.
         11    1    6    6    0    0 -0.72182836679E+02  0.23955569038E+02 -0.12914140252E+03  0.14987238920E+03  0.00000000000E+00 0. -1.
        -12    1    6    6    0    0 -0.11104245059E+02  0.51788026950E+02 -0.32488344186E+02  0.62135308011E+02  0.00000000000E+00 0.  1.
</event>
<event>
12    1  0.8331241E-002  0.1818046E+03  0.7818608E-02  0.1166304E+00
         21   -1    0    0  501  502  0.00000000000E+00  0.00000000000E+00  0.41250218283E+03  0.41250218283E+03  0.00000000000E+00 0. -1.
         21   -1    0    0  502  503 -0.00000000000E+00 -0.00000000000E+00 -0.80412133278E+02  0.80412133278E+02  0.00000000000E+00 0. -1.
         -6    2    1    2    0  503  0.55893430883E+02 -0.11482826897E+02  0.14321264585E+03  0.23143634973E+03  0.17261804980E+03 0.  0.
        -24    2    3    3    0    0 -0.13187040659E+02 -0.32665312165E+02  0.85496826646E+02  0.13884037241E+03  0.10356650512E+03 0.  0.
          6    2    1    2  501    0 -0.55893430883E+02  0.11482826897E+02  0.18887740370E+03  0.26147796637E+03  0.17158124122E+03 0.  0.
         24    2    5    5    0    0  0.21785314958E+02  0.13886817542E+02  0.41028146184E+02  0.94381408434E+02  0.80975908945E+02 0.  0.
          5    1    5    5  501    0 -0.77678745841E+02 -0.24039906450E+01  0.14784925752E+03  0.16709655794E+03  0.47000000000E+01 0. -1.
        -13    1    6    6    0    0  0.26909898817E+02  0.45166256817E+02  0.31475530431E+02  0.61276769049E+02  0.00000000000E+00 0.  1.
         14    1    6    6    0    0 -0.51245838586E+01 -0.31279439275E+02  0.95526157527E+01  0.33104639385E+02  0.00000000000E+00 0. -1.
         -5    1    3    3    0  503  0.69080471542E+02  0.21182485268E+02  0.57715819203E+02  0.92595977325E+02  0.47000000000E+01 0.  1.
         13    1    4    4    0    0  0.32827277722E+02  0.14137443595E+01 -0.34691650049E+01  0.33040338097E+02  0.00000000000E+00 0. -1.
        -14    1    4    4    0    0 -0.46014318381E+02 -0.34079056524E+02  0.88965991651E+02  0.10580003431E+03  0.00000000000E+00 0.  1.
</event>
<event>
12    1  0.8331241E-002  0.2147663E+03  0.7818608E-02  0.1138293E+00
         21   -1    0    0  501  502  0.00000000000E+00  0.00000000000E+00  0.76092143372E+02  0.76092143372E+02  0.00000000000E+00 0.  1.
         21   -1    0    0  502  503 -0.00000000000E+00 -0.00000000000E+00 -0.70564016059E+03  0.70564016059E+03  0.00000000000E+00 0.  1.
         -6    2    1    2    0  503  0.58271232344E+02  0.11492875889E+03 -0.46479729652E+03  0.51105281950E+03  0.16892099138E+03 0.  0.
        -24    2    3    3    0    0  0.32201360145E+02  0.52287515899E+02 -0.11499040678E+03  0.15469553576E+03  0.83288674025E+02 0.  0.
          6    2    1    2  501    0 -0.58271232344E+02 -0.11492875889E+03 -0.16475072070E+03  0.27067948447E+03  0.17181509597E+03 0.  0.
         24    2    5    5    0    0  0.17699323645E+02 -0.40833005071E+02 -0.13181987161E+03  0.15946690904E+03  0.77926992549E+02 0.  0.
          5    1    5    5  501    0 -0.75970555988E+02 -0.74095753815E+02 -0.32930849093E+02  0.11121257542E+03  0.47000000000E+01 0. -1.
        -13    1    6    6    0    0  0.27857425914E+01 -0.14848406378E+02  0.75669492087E+01  0.16896575217E+02  0.00000000000E+00 0.  1.
         14    1    6    6    0    0  0.14913581053E+02 -0.25984598693E+02 -0.13938682082E+03  0.14257033383E+03  0.00000000000E+00 0. -1.
         -5    1    3    3    0  503  0.26069872199E+02  0.62641242986E+02 -0.34980688974E+03  0.35635728373E+03  0.47000000000E+01 0.  1.
         13    1    4    4    0    0 -0.80137765452E+01 -0.18885490707E+02 -0.14345611431E+02  0.25033556301E+02  0.00000000000E+00 0. -1.
        -14    1    4    4    0    0  0.40215136690E+02  0.71173006606E+02 -0.10064479534E+03  0.12966197946E+03  0.00000000000E+00 0.  1.
</event>
<event>
12    1  0.8331241E-002  0.1869981E+03  0.7818608E-02  0.1161319E+00
         21   -1    0    0  501  502  0.00000000000E+00  0.00000000000E+00  0.22835912446E+03  0.22835912446E+03  0.00000000000E+00 0.  1.
         21   -1    0    0  502  503 -0.00000000000E+00 -0.00000000000E+00 -0.42015067386E+03  0.42015067386E+03  0.00000000000E+00 0.  1.
         -6    2    1    2    0  503 -0.67585262927E+02  0.24884085159E+02 -0.35465203473E+03  0.40093185792E+03  0.17257260356E+03 0.  0.
        -24    2    3    3    0    0 -0.31193545377E+00  0.67004804726E+02 -0.23520668211E+03  0.25744270199E+03  0.80404106494E+02 0.  0.
          6    2    1    2  501    0  0.67585262927E+02 -0.24884085159E+02  0.16286048533E+03  0.24757794040E+03  0.17200091113E+03 0.  0.
         24    2    5    5    0    0  0.26285860407E+02  0.20144365754E+02  0.25100470960E+02  0.96802897372E+02  0.87430117054E+02 0.  0.
          5    1    5    5  501    0  0.41299402520E+02 -0.45028450913E+02  0.13776001437E+03  0.15077504303E+03  0.47000000000E+01 0. -1.
        -11    1    6    6    0    0 -0.11347688650E+02 -0.27680424386E+02  0.19453905883E+02  0.35685156382E+02  0.00000000000E+00 0.  1.
         12    1    6    6    0    0  0.37633549057E+02  0.47824790140E+02  0.56465650771E+01  0.61117740990E+02  0.00000000000E+00 0. -1.
         -5    1    3    3    0  503 -0.67273327473E+02 -0.42120719567E+02 -0.11944535262E+03  0.14348915593E+03  0.47000000000E+01 0.  1.
         13    1    4    4    0    0  0.78030087792E+01 -0.13588188748E+02 -0.11254551191E+02  0.19292245644E+02  0.00000000000E+00 0. -1.
        -14    1    4    4    0    0 -0.81149442330E+01  0.80592993475E+02 -0.22395213092E+03  0.23815045635E+03  0.00000000000E+00 0.  1.
</event>
<event>
12    1  0.8331241E-002  0.1791540E+03  0.7818608E-02  0.1169467E+00
         21   -1    0    0  503  502  0.00000000000E+00  0.00000000000E+00  0.17979178172E+03  0.17979178172E+03  0.00000000000E+00 0. -1.
         21   -1    0    0  501  503 -0.00000000000E+00 -0.00000000000E+00 -0.23481769379E+03  0.23481769379E+03  0.00000000000E+00 0. -1.
          6    2    1    2  501    0 -0.47252017940E+02  0.32646801324E+00 -0.13223119254E+03  0.22266847661E+03  0.17281001827E+03 0.  0.
         24    2    3    3    0    0  0.10816792894E+02  0.37291603009E+02 -0.13095328697E+03  0.15366028116E+03  0.70392130058E+02 0.  0.
         -6    2    1    2    0  502  0.47252017940E+02 -0.32646801324E+00  0.77205280469E+02  0.19194099889E+03  0.16925670428E+03 0.  0.
        -24    2    5    5    0    0  0.69269074158E+02  0.57334263304E+02  0.70177334795E+02  0.12964338480E+03  0.61620828632E+02 0.  0.
          5    1    3    3  501    0 -0.58068810834E+02 -0.36965134995E+02 -0.12779055672E+01  0.69008195452E+02  0.47000000000E+01 0. -1.
        -11    1    4    4    0    0  0.28117689425E+01  0.11623542940E+02 -0.12569620989E+03  0.12626381103E+03  0.00000000000E+00 0.  1.
         12    1    4    4    0    0  0.80050239519E+01  0.25668060069E+02 -0.52570770810E+01  0.27396470130E+02  0.00000000000E+00 0. -1.
         -5    1    5    5    0  502 -0.22017056218E+02 -0.57660731318E+02  0.70279456742E+01  0.62297614087E+02  0.47000000000E+01 0.  1.
         11    1    6    6    0    0  0.42867099532E+02  0.28078394791E+02  0.24713382155E+01  0.51303917871E+02  0.00000000000E+00 0. -1.
        -12    1    6    6    0    0  0.26401974626E+02  0.29255868513E+02  0.67705996579E+02  0.78339466933E+02  0.00000000000E+00 0.  1.
</event>
<event>
12    1  0.8331241E-002  0.2301011E+03  0.7818608E-02  0.1126733E+00
         21   -1    0    0  503  502  0.00000000000E+00  0.00000000000E+00  0.23055604882E+03  0.23055604882E+03  0.00000000000E+00 0.  1.
         21   -1    0    0  501  503 -0.00000000000E+00 -0.00000000000E+00 -0.36547357823E+03  0.36547357823E+03  0.00000000000E+00 0.  1.
          6    2    1    2  501    0  0.13002220399E+03  0.78699041148E+02 -0.24966999259E+03  0.33890197349E+03  0.17152297172E+03 0.  0.
         24    2    3    3    0    0  0.10825362520E+03  0.41720345985E+02 -0.68566056840E+02  0.15272458372E+03  0.71861392160E+02 0.  0.
         -6    2    1    2    0  502 -0.13002220399E+03 -0.78699041148E+02  0.11475246318E+03  0.25712765356E+03  0.17276339257E+03 0.  0.
        -24    2    5    5    0    0 -0.10090446360E+03  0.14440217776E+02  0.84436938722E+02  0.15483451899E+03  0.80336174827E+02 0.  0.
          5    1    3    3  501    0  0.21768578786E+02  0.36978695163E+02 -0.18110393575E+03  0.18617738977E+03  0.47000000000E+01 0. -1.
        -11    1    4    4    0    0  0.37046444888E+01  0.88273378916E+01  0.12970355290E+02  0.16120682411E+02  0.00000000000E+00 0.  1.
         12    1    4    4    0    0  0.10454898072E+03  0.32893008094E+02 -0.81536412130E+02  0.13660390131E+03  0.00000000000E+00 0. -1.
         -5    1    5    5    0  502 -0.29117740393E+02 -0.93139258924E+02  0.30315524453E+02  0.10229313458E+03  0.47000000000E+01 0.  1.
         11    1    6    6    0    0 -0.21845272003E+02  0.20056712250E+02 -0.10228173074E+02  0.31370418224E+02  0.00000000000E+00 0. -1.
        -12    1    6    6    0    0 -0.79059191596E+02 -0.56164944735E+01  0.94665111796E+02  0.12346410076E+03  0.00000000000E+00 0.  1.
</event>
<event>
12    1  0.8331241E-002  0.1775652E+03  0.7818608E-02  0.1170195E+00
         21   -1    0    0  501  502  0.00000000000E+00  0.00000000000E+00  0.43053510837E+03  0.43053510837E+03  0.00000000000E+00 0.  1.
         21   -1    0    0  502  503 -0.00000000000E+00 -0.00000000000E+00 -0.15087383248E+03  0.15087383248E+03  0.00000000000E+00 0.  1.
         -6    2    1    2    0  503 -0.45743584677E+02 -0.60116582826E+01 -0.68730475202E+02  0.19040291881E+03  0.17146654979E+03 0.  0.
        -24    2    3    3    0    0 -0.23375598376E+02  0.30182051914E+02  0.21236852409E+02  0.90770988658E+02  0.79567541275E+02 0.  0.
          6    2    1    2  501    0  0.45743584677E+02  0.60116582826E+01  0.34839175109E+03  0.39100602203E+03  0.17140677192E+03 0.  0.
         24    2    5    5    0    0  0.70838760464E+02  0.45692771576E+02  0.30514886632E+03  0.32700293083E+03  0.81909259518E+02 0.  0.
          5    1    5    5  501    0 -0.25095175787E+02 -0.39681113294E+02  0.43242884769E+02  0.64003091200E+02  0.47000000000E+01 0. -1.
        -13    1    6    6    0    0  0.47888722515E+02  0.20008214766E+01  0.59295436057E+02  0.76244880274E+02  0.00000000000E+00 0.  1.
         14    1    6    6    0    0  0.22950037949E+02  0.43691950100E+02  0.24585343027E+03  0.25075805056E+03  0.00000000000E+00 0. -1.
         -5    1    3    3    0  503 -0.22367986301E+02 -0.36193710196E+02 -0.89967327611E+02  0.99631930154E+02  0.47000000000E+01 0.  1.
         13    1    4    4    0    0  0.20774401206E+02  0.38024251753E+02  0.12385908556E+02  0.45064733413E+02  0.00000000000E+00 0. -1.
        -14    1    4    4    0    0 -0.44149999582E+02 -0.78421998389E+01  0.88509438530E+01  0.45706255245E+02  0.00000000000E+00 0.  1.
</event>
<event>
12    1  0.8331241E-002  0.1987623E+03  0.7818608E-02  0.1151425E+00
         21   -1    0    0  503  502  0.00000000000E+00  0.00000000000E+00  0.97146291396E+03  0.97146291396E+03  0.00000000000E+00 0. -1.
         21   -1    0    0  501  503 -0.00000000000E+00 -0.00000000000E+00 -0.45127019350E+02  0.45127019350E+02  0.00000000000E+00 0. -1.
          6    2    1    2  501    0  0.44580706893E+02 -0.85514410880E+02  0.29596301976E+03  0.35651168183E+03  0.17379964418E+03 0.  0.
         24    2    3    3    0    0  0.26473697978E+02 -0.11317676782E+03  0.14700765550E+03  0.20385893765E+03  0.80233273803E+02 0.  0.
         -6    2    1    2    0  502 -0.44580706893E+02  0.85514410880E+02  0.63037287485E+03  0.66007825148E+03  0.17039126398E+03 0.  0.
        -24    2    5    5    0    0 -0.19690340145E+02  0.75362682291E+01  0.13556538908E+03  0.15852400810E+03  0.79419025380E+02 0.  0.
          5    1    3    3  501    0  0.18107008915E+02  0.27662356936E+02  0.14895536426E+03  0.15265274418E+03  0.47000000000E+01 0. -1.
        -13    1    4    4    0    0 -0.24307269747E+01 -0.85424719476E+02  0.13873438508E+03  0.16294330528E+03  0.00000000000E+00 0.  1.
         14    1    4    4    0    0  0.28904424952E+02 -0.27752048340E+02  0.82732704224E+01  0.40915632371E+02  0.00000000000E+00 0. -1.
         -5    1    5    5    0  502 -0.24890366748E+02  0.77978142651E+02  0.49480748577E+03  0.50155424339E+03  0.47000000000E+01 0.  1.
         13    1    6    6    0    0  0.20310694686E+02 -0.16500480827E+02  0.88324659748E+02  0.92119681425E+02  0.00000000000E+00 0. -1.
        -14    1    6    6    0    0 -0.40001034831E+02  0.24036749056E+02  0.47240729332E+02  0.66404326671E+02  0.00000000000E+00 0.  1.
</event>
<event>
12    1  0.8331241E-002  0.3829809E+03  0.7818608E-02  0.1050059E+00
         21   -1    0    0  501  502  0.00000000000E+00  0.00000000000E+00  0.17745761737E+03  0.17745761737E+03  0.00000000000E+00 0.  1.
         21   -1    0    0  502  503 -0.00000000000E+00 -0.00000000000E+00 -0.82533727922E+03  0.82533727922E+03  0.00000000000E+00 0. -1.
         -6    2    1    2    0  503 -0.17975661436E+03  0.28793561846E+03 -0.28802109456E+03  0.47727366574E+03  0.17208904762E+03 0.  0.
        -24    2    3    3    0    0 -0.60357375859E+02  0.15074293353E+03 -0.21802027991E+03  0.28233722737E+03  0.76256295962E+02 0.  0.
          6    2    1    2  501    0  0.17975661436E+03 -0.28793561846E+03 -0.35985856729E+03  0.52552123085E+03  0.17735561687E+03 0.  0.
         24    2    5    5    0    0  0.19636872477E+03 -0.26484730568E+03 -0.36256537421E+03  0.49656524350E+03  0.80116284805E+02 0.  0.
          5    1    5    5  501    0 -0.16612110407E+02 -0.23088312787E+02  0.27068069159E+01  0.28955987346E+02  0.47000000000E+01 0. -1.
        -13    1    6    6    0    0 -0.36480806325E+01 -0.16727367673E+02 -0.38049140664E+02  0.41723499695E+02  0.00000000000E+00 0.  1.
         14    1    6    6    0    0  0.20001680540E+03 -0.24811993800E+03 -0.32451623354E+03  0.45484174381E+03  0.00000000000E+00 0. -1.
         -5    1    3    3    0  503 -0.11939923850E+03  0.13719268494E+03 -0.70000814644E+02  0.19493643838E+03  0.47000000000E+01 0.  1.
         13    1    4    4    0    0 -0.58000132529E+02  0.59191941574E+02 -0.13672185943E+03  0.15987672803E+03  0.00000000000E+00 0. -1.
        -14    1    4    4    0    0 -0.23572433301E+01  0.91550991951E+02 -0.81298420486E+02  0.12246049933E+03  0.00000000000E+00 0.  1.
</event>
<event>
12    1  0.8331241E-002  0.2824000E+03  0.7818608E-02  0.1094551E+00
         21   -1    0    0  501  502  0.00000000000E+00  0.00000000000E+00  0.56915037967E+03  0.56915037967E+03  0.00000000000E+00 0. -1.
         21   -1    0    0  502  503 -0.00000000000E+00 -0.00000000000E+00 -0.23916119946E+03  0.23916119946E+03  0.00000000000E+00 0.  1.
         -6    2    1    2    0  503  0.14877673258E+03  0.16670204654E+03 -0.95672565156E+02  0.29816602465E+03  0.17270104242E+03 0.  0.
        -24    2    3    3    0    0  0.14631370864E+03  0.76890548437E+02 -0.10042508256E+03  0.20807247272E+03  0.76740464682E+02 0.  0.
          6    2    1    2  501    0 -0.14877673258E+03 -0.16670204654E+03  0.42566174537E+03  0.51014555448E+03  0.17069410302E+03 0.  0.
         24    2    5    5    0    0 -0.98982219473E+02 -0.16659860091E+03  0.24340843286E+03  0.32115385054E+03  0.79621334660E+02 0.  0.
          5    1    5    5  501    0 -0.49794513109E+02 -0.10344562892E+00  0.18225331252E+03  0.18899170394E+03  0.47000000000E+01 0. -1.
        -13    1    6    6    0    0 -0.40608275963E+02 -0.70808456389E+02  0.44944606194E+02  0.93182011133E+02  0.00000000000E+00 0.  1.
         14    1    6    6    0    0 -0.58373943510E+02 -0.95790144520E+02  0.19846382666E+03  0.22797183941E+03  0.00000000000E+00 0. -1.
         -5    1    3    3    0  503  0.24630239381E+01  0.89811498100E+02  0.47525174012E+01  0.90093551931E+02  0.47000000000E+01 0.  1.
         11    1    4    4    0    0  0.23002849611E+02  0.52790716431E+01 -0.52629586091E+02  0.57679051828E+02  0.00000000000E+00 0. -1.
        -12    1    4    4    0    0  0.12331085903E+03  0.71611476794E+02 -0.47795496466E+02  0.15039342089E+03  0.00000000000E+00 0.  1.
</event>
<event>
12    1  0.8331241E-002  0.2037221E+03  0.7818608E-02  0.1146772E+00
         21   -1    0    0  501  502  0.00000000000E+00  0.00000000000E+00  0.11421785751E+03  0.11421785751E+03  0.00000000000E+00 0.  1.
         21   -1    0    0  502  503 -0.00000000000E+00 -0.00000000000E+00 -0.64577893457E+03  0.64577893457E+03  0.00000000000E+00 0.  1.
         -6    2    1    2    0  503 -0.71984472702E+01 -0.10674586928E+03 -0.51735597583E+03  0.55578004767E+03  0.17259130165E+03 0.  0.
        -24    2    3    3    0    0 -0.30006922210E+02 -0.70657541342E+01 -0.34986431332E+03  0.35948460988E+03  0.76640764250E+02 0.  0.
          6    2    1    2  501    0  0.71984472702E+01  0.10674586928E+03 -0.14205101232E+02  0.20421674442E+03  0.17336722743E+03 0.  0.
         24    2    5    5    0    0 -0.47304050457E+02  0.10534669350E+03 -0.35833085547E+02  0.14537509542E+03  0.80711271371E+02 0.  0.
          5    1    5    5  501    0  0.54502497727E+02  0.13991757749E+01  0.21627984315E+02  0.58841648998E+02  0.47000000000E+01 0. -1.
        -13    1    6    6    0    0 -0.25679884950E+02 -0.45785644095E+00  0.10649820216E+02  0.27804402425E+02  0.00000000000E+00 0.  1.
         14    1    6    6    0    0 -0.21624165507E+02  0.10580454994E+03 -0.46482905763E+02  0.11757069299E+03  0.00000000000E+00 0. -1.
         -5    1    3    3    0  503  0.22808474940E+02 -0.99680115144E+02 -0.16749166251E+03  0.19629543778E+03  0.47000000000E+01 0.  1.
         13    1    4    4    0    0 -0.31794338786E+02 -0.12092605180E+02 -0.55656994628E+02  0.65228920962E+02  0.00000000000E+00 0. -1.
        -14    1    4    4    0    0  0.17874165753E+01  0.50268510456E+01 -0.29420731870E+03  0.29425568892E+03  0.00000000000E+00 0.  1.
</event>
<event>
12    1  0.8331241E-002  0.1884700E+03  0.7818608E-02  0.1159924E+00
         21   -1    0    0  503  502  0.00000000000E+00  0.00000000000E+00  0.42801420714E+02  0.42801420714E+02  0.00000000000E+00 0. -1.
         21   -1    0    0  501  503 -0.00000000000E+00 -0.00000000000E+00 -0.13869648037E+04  0.13869648037E+04  0.00000000000E+00 0.  1.
          6    2    1    2  501    0 -0.75436705565E+02  0.10620789233E+02 -0.11253783358E+04  0.11409967209E+04  0.17202796505E+03 0.  0.
         24    2    3    3    0    0 -0.71646698593E+02  0.46571931211E+02 -0.10247589779E+04  0.10339771248E+04  0.10805340207E+03 0.  0.
         -6    2    1    2    0  502  0.75436705565E+02 -0.10620789233E+02 -0.21878504725E+03  0.28876950355E+03  0.17238744610E+03 0.  0.
        -24    2    5    5    0    0  0.37399913668E+02 -0.52104498143E+02 -0.20339011818E+03  0.23023071741E+03  0.86746820078E+02 0.  0.
          5    1    3    3  501    0 -0.37900069716E+01 -0.35951141978E+02 -0.10061935788E+03  0.10701959607E+03  0.47000000000E+01 0. -1.
        -11    1    4    4    0    0 -0.91886748332E+02  0.54595507405E+02 -0.95335032169E+03  0.95932303205E+03  0.00000000000E+00 0.  1.
         12    1    4    4    0    0  0.20240049739E+02 -0.80235761945E+01 -0.71408656202E+02  0.74654092781E+02  0.00000000000E+00 0. -1.
         -5    1    5    5    0  502  0.38036791896E+02  0.41483708911E+02 -0.15394929065E+02  0.58538786148E+02  0.47000000000E+01 0.  1.
         13    1    6    6    0    0  0.55717794310E+02 -0.37533736540E+02 -0.79204592164E+02  0.10385866069E+03  0.00000000000E+00 0. -1.
        -14    1    6    6    0    0 -0.18317880641E+02 -0.14570761604E+02 -0.12418552602E+03  0.12637205671E+03  0.00000000000E+00 0.  1.
</event>
<event>
12    1  0.8331241E-002  0.2031278E+03  0.7818608E-02  0.1147640E+00
         21   -1    0    0  501  502  0.00000000000E+00  0.00000000000E+00  0.63677819938E+03  0.63677819938E+03  0.00000000000E+00 0.  1.
         21   -1    0    0  502  503 -0.00000000000E+00 -0.00000000000E+00 -0.17686753669E+03  0.17686753669E+03  0.00000000000E+00 0. -1.
         -6    2    1    2    0  503  0.95132998462E+02 -0.47441086333E+02 -0.95521810351E+02  0.22223542681E+03  0.17018585314E+03 0.  0.
        -24    2    3    3    0    0  0.90104715544E+01 -0.34614875429E+02 -0.10108111373E+03  0.13485924481E+03  0.81793924951E+02 0.  0.
          6    2    1    2  501    0 -0.95132998462E+02  0.47441086333E+02  0.55543247304E+03  0.59141030926E+03  0.17308950785E+03 0.  0.
         24    2    5    5    0    0 -0.11822388489E+03 -0.36786158654E+01  0.34403536265E+03  0.37264732960E+03  0.80717298860E+02 0.  0.
          5    1    5    5  501    0  0.23090886426E+02  0.51119702198E+02  0.21139711039E+03  0.21876297966E+03  0.47000000000E+01 0. -1.
        -13    1    6    6    0    0 -0.57219870832E+02 -0.40589116558E+02  0.14167645846E+03  0.15809430376E+03  0.00000000000E+00 0.  1.
         14    1    6    6    0    0 -0.61004014055E+02  0.36910500693E+02  0.20235890419E+03  0.21455302584E+03  0.00000000000E+00 0. -1.
         -5    1    3    3    0  503  0.86122526907E+02 -0.12826210904E+02  0.55593033801E+01  0.87376182001E+02  0.47000000000E+01 0.  1.
         11    1    4    4    0    0  0.33828217026E+01 -0.58934429922E+02 -0.89802745656E+02  0.10746740734E+03  0.00000000000E+00 0. -1.
        -12    1    4    4    0    0  0.56276498518E+01  0.24319554493E+02 -0.11278368075E+02  0.27391837471E+02  0.00000000000E+00 0.  1.
</event>
<event>
12    1  0.8331241E-002  0.2383739E+03  0.7818608E-02  0.1121020E+00
         21   -1    0    0  501  502  0.00000000000E+00  0.00000000000E+00  0.16509835693E+03  0.16509835693E+03  0.00000000000E+00 0. -1.
         21   -1    0    0  502  503 -0.00000000000E+00 -0.00000000000E+00 -0.48456045429E+03  0.48456045429E+03  0.00000000000E+00 0.  1.
         -6    2    1    2    0  503  0.16378148061E+03 -0.55088629647E+00 -0.33511777942E+03  0.41077136374E+03  0.17205961268E+03 0.  0.
        -24    2    3    3    0    0  0.15484726556E+03  0.27622108760E+02 -0.17749081288E+03  0.25032857509E+03  0.80129584452E+02 0.  0.
          6    2    1    2  501    0 -0.16378148061E+03  0.55088629647E+00  0.15655682059E+02  0.23888744748E+03  0.17319767700E+03 0.  0.
         24    2    5    5    0    0 -0.66859973399E+02 -0.20438040587E+02 -0.52540949830E+02  0.11844167457E+03  0.79874334546E+02 0.  0.
          5    1    5    5  501    0 -0.96921507213E+02  0.20988926884E+02  0.68196631889E+02  0.12044577292E+03  0.47000000000E+01 0. -1.
        -13    1    6    6    0    0 -0.37953946024E+02  0.29706857827E+02 -0.21689475926E+02  0.52852935460E+02  0.00000000000E+00 0.  1.
         14    1    6    6    0    0 -0.28906027375E+02 -0.50144898415E+02 -0.30851473904E+02  0.65588739107E+02  0.00000000000E+00 0. -1.
         -5    1    3    3    0  503  0.89342150480E+01 -0.28172995056E+02 -0.15762696654E+03  0.16044278865E+03  0.47000000000E+01 0.  1.
         13    1    4    4    0    0  0.55428159600E+02  0.49956773897E+02 -0.73704095305E+02  0.10488209475E+03  0.00000000000E+00 0. -1.
        -14    1    4    4    0    0  0.99419105964E+02 -0.22334665137E+02 -0.10378671758E+03  0.14544648034E+03  0.00000000000E+00 0.  1.
</event>
<event>
12    1  0.8331241E-002  0.2248898E+03  0.7818608E-02  0.1130534E+00
         21   -1    0    0  501  502  0.00000000000E+00  0.00000000000E+00  0.46099577741E+03  0.46099577741E+03  0.00000000000E+00 0. -1.
         21   -1    0    0  502  503 -0.00000000000E+00 -0.00000000000E+00 -0.14350835083E+03  0.14350835083E+03  0.00000000000E+00 0.  1.
         -6    2    1    2    0  503  0.43331450001E+02 -0.13570412195E+03  0.11004429584E+02  0.22515882902E+03  0.17401775066E+03 0.  0.
        -24    2    3    3    0    0 -0.11564468824E+02 -0.98803185886E+02  0.60093925871E+02  0.14265361930E+03  0.82722238195E+02 0.  0.
          6    2    1    2  501    0 -0.43331450001E+02  0.13570412195E+03  0.30648299699E+03  0.37934529922E+03  0.17227247406E+03 0.  0.
         24    2    5    5    0    0 -0.61904083407E+02  0.53957884607E+02  0.69858185378E+02  0.12826606570E+03  0.69487039742E+02 0.  0.
          5    1    5    5  501    0  0.18572633407E+02  0.81746237343E+02  0.23662481162E+03  0.25107923352E+03  0.47000000000E+01 0. -1.
        -11    1    6    6    0    0 -0.45874445801E+02  0.60819979003E+02  0.77993163990E+02  0.10902508084E+03  0.00000000000E+00 0.  1.
         12    1    6    6    0    0 -0.16029637606E+02 -0.68620943953E+01 -0.81349786124E+01  0.19240984858E+02  0.00000000000E+00 0. -1.
         -5    1    3    3    0  503  0.54895918825E+02 -0.36900936064E+02 -0.49089496287E+02  0.82505209725E+02  0.47000000000E+01 0.  1.
         13    1    4    4    0    0  0.22572572931E+02 -0.45413433762E+02 -0.60246227609E+01  0.51070511004E+02  0.00000000000E+00 0. -1.
        -14    1    4    4    0    0 -0.34137041756E+02 -0.53389752124E+02  0.66118548631E+02  0.91583108294E+02  0.00000000000E+00 0.  1.
</event>
<event>
12    1  0.8331241E-002  0.2076216E+03  0.7818608E-02  0.1143635E+00
         21   -1    0    0  501  502  0.00000000000E+00  0.00000000000E+00  0.11449371253E+03  0.11449371253E+03  0.00000000000E+00 0.  1.
         21   -1    0    0  502  503 -0.00000000000E+00 -0.00000000000E+00 -0.61638518682E+03  0.61638518682E+03  0.00000000000E+00 0. -1.
         -6    2    1    2    0  503  0.10915018647E+03 -0.41410630229E+02 -0.22549590016E+02  0.20884252644E+03  0.17169191401E+03 0.  0.
        -24    2    3    3    0    0  0.12535952705E+03 -0.21510576677E+02  0.30641296189E+02  0.14959630100E+03  0.72542734359E+02 0.  0.
          6    2    1    2  501    0 -0.10915018647E+03  0.41410630229E+02 -0.47934188427E+03  0.52203637291E+03  0.17065968802E+03 0.  0.
         24    2    5    5    0    0 -0.32014133401E+02  0.81763369237E+02 -0.24600127714E+03  0.27294152517E+03  0.79185191320E+02 0.  0.
          5    1    5    5  501    0 -0.77136053071E+02 -0.40352739009E+02 -0.23334060714E+03  0.24909484773E+03  0.47000000000E+01 0. -1.
        -13    1    6    6    0    0  0.22550248420E+02  0.18518786193E+02 -0.32475235687E+02  0.43658906065E+02  0.00000000000E+00 0.  1.
         14    1    6    6    0    0 -0.54564381820E+02  0.63244583045E+02 -0.21352604145E+03  0.22928261911E+03  0.00000000000E+00 0. -1.
         -5    1    3    3    0  503 -0.16209340582E+02 -0.19900053551E+02 -0.53190886204E+02  0.59246225438E+02  0.47000000000E+01 0.  1.
         13    1    4    4    0    0  0.10611292633E+03 -0.24601526607E+02 -0.49245964470E+01  0.10903870825E+03  0.00000000000E+00 0. -1.
        -14    1    4    4    0    0  0.19246600721E+02  0.30909499294E+01  0.35565892636E+02  0.40557592751E+02  0.00000000000E+00 0.  1.
</event>
<event>
12    1  0.8331241E-002  0.1795770E+03  0.7818608E-02  0.1169873E+00
         21   -1    0    0  501  502  0.00000000000E+00  0.00000000000E+00  0.50989562754E+03  0.50989562754E+03  0.00000000000E+00 0. -1.
         21   -1    0    0  502  503 -0.00000000000E+00 -0.00000000000E+00 -0.77749878408E+02  0.77749878408E+02  0.00000000000E+00 0. -1.
         -6    2    1    2    0  503 -0.44469144710E+01 -0.13205844261E+02  0.82551662890E+02  0.19764281613E+03  0.17903557287E+03 0.  0.
        -24    2    3    3    0    0  0.93014748089E+01 -0.77306536726E+02  0.69192481879E+02  0.13057214669E+03  0.78731619370E+02 0.  0.
          6    2    1    2  501    0  0.44469144710E+01  0.13205844261E+02  0.34959408625E+03  0.39000268982E+03  0.17231338763E+03 0.  0.
         24    2    5    5    0    0  0.40157095292E+02 -0.14416458067E+02  0.32733333444E+03  0.33944737683E+03  0.79101095028E+02 0.  0.
          5    1    5    5  501    0 -0.35710180821E+02  0.27622302328E+02  0.22260751801E+02  0.50555312984E+02  0.47000000000E+01 0. -1.
        -11    1    6    6    0    0  0.96786633862E+01 -0.45012553812E+02  0.18914315656E+03  0.19466622768E+03  0.00000000000E+00 0.  1.
         12    1    6    6    0    0  0.30478431906E+02  0.30596095745E+02  0.13819017788E+03  0.14478114915E+03  0.00000000000E+00 0. -1.
         -5    1    3    3    0  503 -0.13748389280E+02  0.64100692465E+02  0.13359181010E+02  0.67070669443E+02  0.47000000000E+01 0.  1.
         13    1    4    4    0    0  0.25078662760E+02 -0.37258457143E+02 -0.45956396420E+01  0.45147002760E+02  0.00000000000E+00 0. -1.
        -14    1    4    4    0    0 -0.15777187951E+02 -0.40048079583E+02  0.73788121521E+02  0.85425143931E+02  0.00000000000E+00 0.  1.
</event>
<event>
12    1  0.8331241E-002  0.2215478E+03  0.7818608E-02  0.1132753E+00
         21   -1    0    0  503  502  0.00000000000E+00  0.00000000000E+00  0.28779007324E+03  0.28779007324E+03  0.00000000000E+00 0.  1.
         21   -1    0    0  501  503 -0.00000000000E+00 -0.00000000000E+00 -0.25113375168E+03  0.25113375168E+03  0.00000000000E+00 0. -1.
          6    2    1    2  501    0 -0.14008747830E+03  0.35452039838E+01 -0.13437911072E+03  0.25911609861E+03  0.17159935056E+03 0.  0.
         24    2    3    3    0    0 -0.10056674206E+02 -0.53683633691E+01 -0.90313756488E+02  0.12145235196E+03  0.80399895308E+02 0.  0.
         -6    2    1    2    0  502  0.14008747830E+03 -0.35452039838E+01  0.17103543228E+03  0.27980772631E+03  0.17147062303E+03 0.  0.
        -24    2    5    5    0    0  0.48441159051E+02  0.56506561173E+02  0.10686503378E+03  0.15274399280E+03  0.79818885901E+02 0.  0.
          5    1    3    3  501    0 -0.13003080409E+03  0.89135673529E+01 -0.44065354230E+02  0.13766374664E+03  0.47000000000E+01 0. -1.
        -11    1    4    4    0    0  0.13456836339E+02  0.29675064972E+02 -0.16733956656E+02  0.36629513110E+02  0.00000000000E+00 0.  1.
         12    1    4    4    0    0 -0.23513510545E+02 -0.35043428341E+02 -0.73579799832E+02  0.84822838854E+02  0.00000000000E+00 0. -1.
         -5    1    5    5    0  502  0.91646319248E+02 -0.60051765157E+02  0.64170398505E+02  0.12706373351E+03  0.47000000000E+01 0.  1.
         11    1    6    6    0    0 -0.11618717046E+02  0.16087961762E+02  0.67464788687E+02  0.70322932334E+02  0.00000000000E+00 0. -1.
        -12    1    6    6    0    0  0.60059876097E+02  0.40418599411E+02  0.39400245088E+02  0.82421060465E+02  0.00000000000E+00 0.  1.
</event>
<event>
12    1  0.8331241E-002  0.2884914E+03  0.7818608E-02  0.1092030E+00
         21   -1    0    0  501  502  0.00000000000E+00  0.00000000000E+00  0.65281530692E+02  0.65281530692E+02  0.00000000000E+00 0. -1.
         21   -1    0    0  502  503 -0.00000000000E+00 -0.00000000000E+00 -0.15087181724E+04  0.15087181724E+04  0.00000000000E+00 0.  1.
         -6    2    1    2    0  503  0.16196716345E+03  0.15297283011E+03 -0.10434329888E+04  0.10808159786E+04  0.17255934831E+03 0.  0.
        -24    2    3    3    0    0  0.11324408810E+03  0.55055714553E+02 -0.80119016754E+03  0.81498638272E+03  0.80260602196E+02 0.  0.
          6    2    1    2  501    0 -0.16196716345E+03 -0.15297283011E+03 -0.40000365292E+03  0.49318372450E+03  0.18328451919E+03 0.  0.
         24    2    5    5    0    0 -0.40756789301E+02 -0.14008497334E+03 -0.24808258578E+03  0.29835007162E+03  0.78631293002E+02 0.  0.
          5    1    5    5  501    0 -0.12121037415E+03 -0.12887856775E+02 -0.15192106714E+03  0.19483365288E+03  0.47000000000E+01 0. -1.
        -13    1    6    6    0    0 -0.16238990599E+02 -0.11105420840E+03 -0.23072393686E+03  0.25657411611E+03  0.00000000000E+00 0.  1.
         14    1    6    6    0    0 -0.24517798702E+02 -0.29030764940E+02 -0.17358648918E+02  0.41775955506E+02  0.00000000000E+00 0. -1.
         -5    1    3    3    0  503  0.48723075354E+02  0.97917115562E+02 -0.24224282124E+03  0.26582959586E+03  0.47000000000E+01 0.  1.
         13    1    4    4    0    0  0.81318511246E+02  0.15108055464E+02 -0.29995681951E+03  0.31115116452E+03  0.00000000000E+00 0. -1.
        -14    1    4    4    0    0  0.31925576855E+02  0.39947659089E+02 -0.50123334802E+03  0.50383521819E+03  0.00000000000E+00 0.  1.
</event>
<event>
12    1  0.8331241E-002  0.2143028E+03  0.7818608E-02  0.1138263E+00
         21   -1    0    0  501  502  0.00000000000E+00  0.00000000000E+00  0.38744738747E+03  0.38744738747E+03  0.00000000000E+00 0.  1.
         21   -1    0    0  502  503 -0.00000000000E+00 -0.00000000000E+00 -0.13788251260E+03  0.13788251260E+03  0.00000000000E+00 0. -1.
         -6    2    1    2    0  503  0.11199368643E+03  0.60813946982E+02  0.26032325232E+02  0.21587812779E+03  0.17229266425E+03 0.  0.
        -24    2    3    3    0    0  0.12907273408E+03  0.12317590282E+01  0.15392641281E+02  0.15281447848E+03  0.80337061885E+02 0.  0.
          6    2    1    2  501    0 -0.11199368643E+03 -0.60813946982E+02  0.22353254964E+03  0.30945177228E+03  0.17190891971E+03 0.  0.
         24    2    5    5    0    0 -0.97737990618E+02 -0.97513366919E+02  0.21675650605E+03  0.26922644378E+03  0.80236672256E+02 0.  0.
          5    1    5    5  501    0 -0.14255695812E+02  0.36699419936E+02  0.67760435841E+01  0.40225328506E+02  0.47000000000E+01 0. -1.
        -13    1    6    6    0    0 -0.15948439252E+02  0.13961605522E+02  0.24148555322E+02  0.32131477828E+02  0.00000000000E+00 0.  1.
         14    1    6    6    0    0 -0.81789551366E+02 -0.11147497244E+03  0.19260795073E+03  0.23709496595E+03  0.00000000000E+00 0. -1.
         -5    1    3    3    0  503 -0.17079047654E+02  0.59582187954E+02  0.10639683951E+02  0.63063649314E+02  0.47000000000E+01 0.  1.
         13    1    4    4    0    0  0.11825852174E+03  0.21840600895E+02 -0.70736435867E+01  0.12046628676E+03  0.00000000000E+00 0. -1.
        -14    1    4    4    0    0  0.10814212343E+02 -0.20608841867E+02  0.22466284867E+02  0.32348191718E+02  0.00000000000E+00 0.  1.
</event>
<event>
12    1  0.8331241E-002  0.1934017E+03  0.7818608E-02  0.1155747E+00
         21   -1    0    0  501  502  0.00000000000E+00  0.00000000000E+00  0.79217762494E+02  0.79217762494E+02  0.00000000000E+00 0. -1.
         21   -1    0    0  502  503 -0.00000000000E+00 -0.00000000000E+00 -0.62274911364E+03  0.62274911364E+03  0.00000000000E+00 0.  1.
         -6    2    1    2    0  503  0.87347504806E+02  0.12857028151E+02 -0.44558941226E+03  0.48517929691E+03  0.17045273852E+03 0.  0.
        -24    2    3    3    0    0  0.82851876456E+02 -0.39456035301E+02 -0.39004954164E+03  0.40860492450E+03  0.79988294385E+02 0.  0.
          6    2    1    2  501    0 -0.87347504806E+02 -0.12857028151E+02 -0.97941938887E+02  0.21678757922E+03  0.17207365093E+03 0.  0.
         24    2    5    5    0    0 -0.43830916082E+02 -0.61119430915E+02 -0.10449968181E+03  0.15130439812E+03  0.79473916179E+02 0.  0.
          5    1    5    5  501    0 -0.43516588724E+02  0.48262402765E+02  0.65577429208E+01  0.65483181100E+02  0.47000000000E+01 0. -1.
        -13    1    6    6    0    0 -0.61799175173E+02 -0.20928581815E+02 -0.58496873666E+02  0.87630062293E+02  0.00000000000E+00 0.  1.
         14    1    6    6    0    0  0.17968259091E+02 -0.40190849100E+02 -0.46002808142E+02  0.63674335828E+02  0.00000000000E+00 0. -1.
         -5    1    3    3    0  503  0.44956283496E+01  0.52313063452E+02 -0.55539870616E+02  0.76574372410E+02  0.47000000000E+01 0.  1.
         13    1    4    4    0    0  0.66308477828E+02  0.83493050278E+01 -0.27356235948E+03  0.28160768748E+03  0.00000000000E+00 0. -1.
        -14    1    4    4    0    0  0.16543398628E+02 -0.47805340329E+02 -0.11648718217E+03  0.12699723702E+03  0.00000000000E+00 0.  1.
</event>
<event>
12    1  0.8331241E-002  0.2009165E+03  0.7818608E-02  0.1149020E+00
         21   -1    0    0  501  502  0.00000000000E+00  0.00000000000E+00  0.13630343427E+04  0.13630343427E+04  0.00000000000E+00 0. -1.
         21   -1    0    0  502  503 -0.00000000000E+00 -0.00000000000E+00 -0.29669574874E+02  0.29669574874E+02  0.00000000000E+00 0.  1.
         -6    2    1    2    0  503  0.13965982087E+02  0.10218247488E+03  0.70465645788E+03  0.73267241841E+03  0.17213902010E+03 0.  0.
        -24    2    3    3    0    0 -0.15725140227E+02  0.13331646781E+03  0.58288802860E+03  0.60344189326E+03  0.79769066913E+02 0.  0.
          6    2    1    2  501    0 -0.13965982087E+02 -0.10218247488E+03  0.62870830997E+03  0.66003149919E+03  0.17242718483E+03 0.  0.
         24    2    5    5    0    0  0.33763193669E+02  0.43010358985E+01  0.30948669731E+03  0.32011777444E+03  0.74397053311E+02 0.  0.
          5    1    5    5  501    0 -0.47729175757E+02 -0.10648351077E+03  0.31922161266E+03  0.33991372476E+03  0.47000000000E+01 0. -1.
        -13    1    6    6    0    0  0.53573852170E+02 -0.12302386531E+02  0.18587629890E+03  0.19383370409E+03  0.00000000000E+00 0.  1.
         14    1    6    6    0    0 -0.19810658501E+02  0.16603422429E+02  0.12361039841E+03  0.12628407034E+03  0.00000000000E+00 0. -1.
         -5    1    3    3    0  503  0.29691122315E+02 -0.31133992933E+02  0.12176842928E+03  0.12923052515E+03  0.47000000000E+01 0.  1.
         13    1    4    4    0    0 -0.47440284751E+02  0.80829246234E+02  0.31643286124E+03  0.33002076198E+03  0.00000000000E+00 0. -1.
        -14    1    4    4    0    0  0.31715144523E+02  0.52487221576E+02  0.26645516735E+03  0.27342113128E+03  0.00000000000E+00 0.  1.
</event>
<event>
12    1  0.8331241E-002  0.1844920E+03  0.7818608E-02  0.1166057E+00
         21   -1    0    0  503  502  0.00000000000E+00  0.00000000000E+00  0.25003915937E+03  0.25003915937E+03  0.00000000000E+00 0. -1.
         21   -1    0    0  501  503 -0.00000000000E+00 -0.00000000000E+00 -0.13633020976E+03  0.13633020976E+03  0.00000000000E+00 0. -1.
          6    2    1    2  501    0 -0.44212313630E+02  0.45716740431E+02  0.12165798110E+02  0.18489269342E+03  0.17318358007E+03 0.  0.
         24    2    3    3    0    0 -0.69238407036E+02 -0.64719312067E+01  0.47661376509E+02  0.11683397698E+03  0.80887134101E+02 0.  0.
         -6    2    1    2    0  502  0.44212313630E+02 -0.45716740431E+02  0.10154315151E+03  0.20147667570E+03  0.16197867206E+03 0.  0.
        -24    2    5    5    0    0  0.11831819186E+02 -0.84247931010E+02  0.94333590193E+02  0.15041576265E+03  0.80550416443E+02 0.  0.
          5    1    3    3  501    0  0.25026093406E+02  0.52188671638E+02 -0.35495578399E+02  0.68058716447E+02  0.47000000000E+01 0. -1.
        -13    1    4    4    0    0 -0.24008527110E+02  0.24534386236E+02  0.51467439719E+02  0.61864713959E+02  0.00000000000E+00 0.  1.
         14    1    4    4    0    0 -0.45229879926E+02 -0.31006317443E+02 -0.38060632106E+01  0.54969263018E+02  0.00000000000E+00 0. -1.
         -5    1    5    5    0  502  0.32380494444E+02  0.38531190579E+02  0.72095613141E+01  0.51060913057E+02  0.47000000000E+01 0.  1.
         11    1    6    6    0    0  0.30808457011E+02 -0.42339449028E+02  0.90108146438E+02  0.10421740748E+03  0.00000000000E+00 0. -1.
        -12    1    6    6    0    0 -0.18976637825E+02 -0.41908481982E+02  0.42254437545E+01  0.46198355166E+02  0.00000000000E+00 0.  1.
</event>
<event>
12    1  0.8331241E-002  0.3417612E+03  0.7818608E-02  0.1066069E+00
         21   -1    0    0  503  502  0.00000000000E+00  0.00000000000E+00  0.56575151865E+03  0.56575151865E+03  0.00000000000E+00 0.  1.
         21   -1    0    0  501  503 -0.00000000000E+00 -0.00000000000E+00 -0.39076156646E+03  0.39076156646E+03  0.00000000000E+00 0. -1.
          6    2    1    2  501    0  0.29190466825E+03  0.45332859203E+02 -0.24107992077E+03  0.41807564100E+03  0.17147684955E+03 0.  0.
         24    2    3    3    0    0  0.26337800452E+03 -0.13901667144E+02 -0.19816678316E+03  0.33942370502E+03  0.79857047038E+02 0.  0.
         -6    2    1    2    0  502 -0.29190466825E+03 -0.45332859203E+02  0.41606987295E+03  0.53843744411E+03  0.17186430277E+03 0.  0.
        -24    2    5    5    0    0 -0.19977344391E+03 -0.47609532195E+02  0.17841326866E+03  0.28349412236E+03  0.79759178349E+02 0.  0.
          5    1    3    3  501    0  0.28526663729E+02  0.59234526347E+02 -0.42913137606E+02  0.78651935986E+02  0.47000000000E+01 0. -1.
        -13    1    4    4    0    0  0.23778780143E+03 -0.18883672792E+02 -0.20261831263E+03  0.31297573743E+03  0.00000000000E+00 0.  1.
         14    1    4    4    0    0  0.25590203096E+02  0.49820056477E+01  0.44515294708E+01  0.26447967585E+02  0.00000000000E+00 0. -1.
         -5    1    5    5    0  502 -0.92131224342E+02  0.22766729918E+01  0.23765660430E+03  0.25494332175E+03  0.47000000000E+01 0.  1.
         11    1    6    6    0    0 -0.69019023010E+02 -0.46870397975E+02  0.38155652732E+02  0.91740468601E+02  0.00000000000E+00 0. -1.
        -12    1    6    6    0    0 -0.13075442090E+03 -0.73913421947E+00  0.14025761593E+03  0.19175365376E+03  0.00000000000E+00 0.  1.
</event>
<event>
12    1  0.8331241E-002  0.1900926E+03  0.7818608E-02  0.1158403E+00
         21   -1    0    0  503  502  0.00000000000E+00  0.00000000000E+00  0.22431016863E+03  0.22431016863E+03  0.00000000000E+00 0.  1.
         21   -1    0    0  501  503 -0.00000000000E+00 -0.00000000000E+00 -0.18978463458E+03  0.18978463458E+03  0.00000000000E+00 0.  1.
          6    2    1    2  501    0 -0.81436730356E+02  0.41562081470E+01 -0.63375741395E+02  0.20027276755E+03  0.17159103038E+03 0.  0.
         24    2    3    3    0    0 -0.33291486276E+02  0.41968070103E+02 -0.91247759348E+02  0.13284398425E+03  0.80322653083E+02 0.  0.
         -6    2    1    2    0  502  0.81436730356E+02 -0.41562081470E+01  0.97901275441E+02  0.21382203567E+03  0.17171484528E+03 0.  0.
        -24    2    5    5    0    0  0.96857094730E+02 -0.14736403703E+02  0.12899492295E+02  0.12666056876E+03  0.79234111243E+02 0.  0.
          5    1    3    3  501    0 -0.48145244081E+02 -0.37811861956E+02  0.27872017953E+02  0.67428783297E+02  0.47000000000E+01 0. -1.
        -13    1    4    4    0    0  0.19528496826E+02  0.88812621763E+01 -0.58768489260E+02  0.62561764170E+02  0.00000000000E+00 0.  1.
         14    1    4    4    0    0 -0.52819983102E+02  0.33086807927E+02 -0.32479270087E+02  0.70282220078E+02  0.00000000000E+00 0. -1.
         -5    1    5    5    0  502 -0.15420364374E+02  0.10580195556E+02  0.85001783146E+02  0.87161466907E+02  0.47000000000E+01 0.  1.
         13    1    6    6    0    0 -0.12541784376E+02  0.18525605038E+01  0.97031197618E+01  0.15964926209E+02  0.00000000000E+00 0. -1.
        -14    1    6    6    0    0  0.10939887911E+03 -0.16588964207E+02  0.31963725331E+01  0.11069564255E+03  0.00000000000E+00 0.  1.
</event>
<event>
12    1  0.8331241E-002  0.2177203E+03  0.7818608E-02  0.1135760E+00
         21   -1    0    0  501  502  0.00000000000E+00  0.00000000000E+00  0.37088989438E+02  0.37088989438E+02  0.00000000000E+00 0.  1.
         21   -1    0    0  502  503 -0.00000000000E+00 -0.00000000000E+00 -0.12868742124E+04  0.12868742124E+04  0.00000000000E+00 0. -1.
         -6    2    1    2    0  503  0.17446479197E+02  0.13218152092E+03 -0.69253546753E+03  0.72569118481E+03  0.17101458363E+03 0.  0.
        -24    2    3    3    0    0  0.56172832524E+02  0.13914144284E+03 -0.61606241680E+03  0.63956111780E+03  0.83604986559E+02 0.  0.
          6    2    1    2  501    0 -0.17446479197E+02 -0.13218152092E+03 -0.55724975544E+03  0.59827201703E+03  0.17212141739E+03 0.  0.
         24    2    5    5    0    0  0.15042130202E+01 -0.15285408986E+03 -0.53487846603E+03  0.56209124269E+03  0.80529226021E+02 0.  0.
          5    1    5    5  501    0 -0.18950692217E+02  0.20672568944E+02 -0.22371289406E+02  0.36180774341E+02  0.47000000000E+01 0. -1.
        -13    1    6    6    0    0  0.40635613673E+02 -0.69225446955E+02 -0.26137770722E+03  0.27342589752E+03  0.00000000000E+00 0.  1.
         14    1    6    6    0    0 -0.39131400653E+02 -0.83628642909E+02 -0.27350075882E+03  0.28866534517E+03  0.00000000000E+00 0. -1.
         -5    1    3    3    0  503 -0.38726353327E+02 -0.69599219162E+01 -0.76473050722E+02  0.86130067003E+02  0.47000000000E+01 0.  1.
         11    1    4    4    0    0  0.43955133933E+02  0.15186049450E+02 -0.19453811329E+03  0.20001936761E+03  0.00000000000E+00 0. -1.
        -12    1    4    4    0    0  0.12217698591E+02  0.12395539339E+03 -0.42152430351E+03  0.43954175019E+03  0.00000000000E+00 0.  1.
</event>
<event>
12    1  0.8331241E-002  0.2359509E+03  0.7818608E-02  0.1122808E+00
         21   -1    0    0  501  502  0.00000000000E+00  0.00000000000E+00  0.98336370593E+02  0.98336370593E+02  0.00000000000E+00 0. -1.
         21   -1    0    0  502  503 -0.00000000000E+00 -0.00000000000E+00 -0.75811475065E+03  0.75811475065E+03  0.00000000000E+00 0. -1.
         -6    2    1    2    0  503  0.16608041223E+02 -0.15850422166E+03 -0.54850982244E+03  0.59710622839E+03  0.17399254970E+03 0.  0.
        -24    2    3    3    0    0  0.68717881017E+01 -0.14521431311E+03 -0.55420123924E+03  0.57905356877E+03  0.83842732090E+02 0.  0.
          6    2    1    2  501    0 -0.16608041223E+02  0.15850422166E+03 -0.11126855761E+03  0.25934489285E+03  0.17169643623E+03 0.  0.
         24    2    5    5    0    0 -0.54559559380E+02  0.11762866462E+03 -0.12705747039E+03  0.20118555429E+03  0.86710888670E+02 0.  0.
          5    1    5    5  501    0  0.37951518157E+02  0.40875557047E+02  0.15788912781E+02  0.58159338555E+02  0.47000000000E+01 0. -1.
        -11    1    6    6    0    0 -0.47218938091E+02  0.37275177260E+02 -0.98835159739E+02  0.11570417345E+03  0.00000000000E+00 0.  1.
         12    1    6    6    0    0 -0.73406212889E+01  0.80353487356E+02 -0.28222310655E+02  0.85481380838E+02  0.00000000000E+00 0. -1.
         -5    1    3    3    0  503  0.97362531212E+01 -0.13289908557E+02  0.56914167992E+01  0.18052659623E+02  0.47000000000E+01 0.  1.
         11    1    4    4    0    0  0.87212507764E+01 -0.23688584160E+02 -0.25298246119E+03  0.25423873604E+03  0.00000000000E+00 0. -1.
        -12    1    4    4    0    0 -0.18494626747E+01 -0.12152572895E+03 -0.30121877805E+03  0.32481483272E+03  0.00000000000E+00 0.  1.
</event>
<event>
12    1  0.8331241E-002  0.2500074E+03  0.7818608E-02  0.1113601E+00
         21   -1    0    0  503  502  0.00000000000E+00  0.00000000000E+00  0.16103124353E+04  0.16103124353E+04  0.00000000000E+00 0.  1.
         21   -1    0    0  501  503 -0.00000000000E+00 -0.00000000000E+00 -0.68059352946E+02  0.68059352946E+02  0.00000000000E+00 0. -1.
          6    2    1    2  501    0  0.17484085072E+03  0.33968788714E+02  0.21661117169E+03  0.32936097923E+03  0.17272826419E+03 0.  0.
         24    2    3    3    0    0  0.75844328234E+02 -0.21221832171E+02  0.34930926385E+02  0.11517387030E+03  0.76433778500E+02 0.  0.
         -6    2    1    2    0  502 -0.17484085072E+03 -0.33968788714E+02  0.13256419107E+04  0.13490108090E+04  0.17544368281E+03 0.  0.
        -24    2    5    5    0    0 -0.23402002169E+02  0.24472200996E+02  0.40471778993E+03  0.41387851875E+03  0.79701922663E+02 0.  0.
          5    1    3    3  501    0  0.98996522488E+02  0.55190620885E+02  0.18168024530E+03  0.21418710893E+03  0.47000000000E+01 0. -1.
        -11    1    4    4    0    0 -0.76888686571E+01 -0.17401553140E+02  0.24328645033E+02  0.30883907169E+02  0.00000000000E+00 0.  1.
         12    1    4    4    0    0  0.83533196891E+02 -0.38202790313E+01  0.10602281352E+02  0.84289963131E+02  0.00000000000E+00 0. -1.
         -5    1    5    5    0  502 -0.15143884855E+03 -0.58440989711E+02  0.92092412075E+03  0.93513229027E+03  0.47000000000E+01 0.  1.
         13    1    6    6    0    0 -0.47993456412E+02 -0.40415798221E+01  0.25420031814E+03  0.25872284006E+03  0.00000000000E+00 0. -1.
        -14    1    6    6    0    0  0.24591454243E+02  0.28513780818E+02  0.15051747179E+03  0.15515567870E+03  0.00000000000E+00 0.  1.
</event>
<event>
12    1  0.8331241E-002  0.1896281E+03  0.7818608E-02  0.1159174E+00
         21   -1    0    0  501  502  0.00000000000E+00  0.00000000000E+00  0.39476795042E+02  0.39476795042E+02  0.00000000000E+00 0. -1.
         21   -1    0    0  502  503 -0.00000000000E+00 -0.00000000000E+00 -0.90292765000E+03  0.90292765000E+03  0.00000000000E+00 0.  1.
         -6    2    1    2    0  503  0.66870461796E+02  0.31872328566E+02 -0.43343858510E+03  0.47310446996E+03  0.17456038628E+03 0.  0.
        -24    2    3    3    0    0  0.72578784613E+02  0.77852340005E+02 -0.37942390794E+03  0.40178531580E+03  0.78359882971E+02 0.  0.
          6    2    1    2  501    0 -0.66870461796E+02 -0.31872328566E+02 -0.43001226986E+03  0.46929997508E+03  0.17275534837E+03 0.  0.
         24    2    5    5    0    0 -0.62397719871E+02  0.32330595307E+02 -0.16405465059E+03  0.19562577808E+03  0.80104767850E+02 0.  0.
          5    1    5    5  501    0 -0.44727419252E+01 -0.64202923873E+02 -0.26595761927E+03  0.27367419700E+03  0.47000000000E+01 0. -1.
        -11    1    6    6    0    0 -0.15104208641E+02 -0.41980580761E+01 -0.12090596530E+03  0.12191805960E+03  0.00000000000E+00 0.  1.
         12    1    6    6    0    0 -0.47293511230E+02  0.36528653383E+02 -0.43148685291E+02  0.73707718488E+02  0.00000000000E+00 0. -1.
         -5    1    3    3    0  503 -0.57083228175E+01 -0.45980011439E+02 -0.54014677157E+02  0.71319154157E+02  0.47000000000E+01 0.  1.
         11    1    4    4    0    0 -0.12614179733E+02  0.25167093099E+02 -0.12972096649E+03  0.13274045823E+03  0.00000000000E+00 0. -1.
        -12    1    4    4    0    0  0.85192964346E+02  0.52685246906E+02 -0.24970294145E+03  0.26904485757E+03  0.00000000000E+00 0.  1.
</event>
<event>
12    1  0.8331241E-002  0.1870376E+03  0.7818608E-02  0.1161520E+00
         21   -1    0    0  503  502  0.00000000000E+00  0.00000000000E+00  0.84583429553E+02  0.84583429553E+02  0.00000000000E+00 0. -1.
         21   -1    0    0  501  503 -0.00000000000E+00 -0.00000000000E+00 -0.54574383300E+03  0.54574383300E+03  0.00000000000E+00 0. -1.
          6    2    1    2  501    0 -0.53669638397E+02  0.49069757967E+02 -0.38838641866E+03  0.43107665063E+03  0.17232178414E+03 0.  0.
         24    2    3    3    0    0 -0.27314860501E+02  0.60501146873E+01 -0.36615614649E+03  0.37574547473E+03  0.79571556956E+02 0.  0.
         -6    2    1    2    0  502  0.53669638397E+02 -0.49069757967E+02 -0.72773984793E+02  0.19925061193E+03  0.17063552461E+03 0.  0.
        -24    2    5    5    0    0  0.55381694717E+01 -0.77844715976E+01  0.25104684540E+02  0.82531131625E+02  0.78037639523E+02 0.  0.
          5    1    3    3  501    0 -0.26354777895E+02  0.43019643280E+02 -0.22230272170E+02  0.55331175901E+02  0.47000000000E+01 0. -1.
        -11    1    4    4    0    0  0.20527271980E+02 -0.16120487047E+02 -0.65649219295E+02  0.70647427353E+02  0.00000000000E+00 0.  1.
         12    1    4    4    0    0 -0.47842132481E+02  0.22170601734E+02 -0.30050692719E+03  0.30509804738E+03  0.00000000000E+00 0. -1.
         -5    1    5    5    0  502  0.48131468925E+02 -0.41285286370E+02 -0.97878669333E+02  0.11671948030E+03  0.47000000000E+01 0.  1.
         11    1    6    6    0    0 -0.27400593509E+02 -0.27858492960E+02  0.61656226477E+01  0.39558855612E+02  0.00000000000E+00 0. -1.
        -12    1    6    6    0    0  0.32938762981E+02  0.20074021363E+02  0.18939061892E+02  0.42972276013E+02  0.00000000000E+00 0.  1.
</event>
<event>
12    1  0.8331241E-002  0.2287003E+03  0.7818608E-02  0.1127774E+00
         21   -1    0    0  501  502  0.00000000000E+00  0.00000000000E+00  0.13124304815E+03  0.13124304815E+03  0.00000000000E+00 0. -1.
         21   -1    0    0  502  503 -0.00000000000E+00 -0.00000000000E+00 -0.46027233739E+03  0.46027233739E+03  0.00000000000E+00 0.  1.
         -6    2    1    2    0  503  0.14704831100E+03  0.20862196328E+02 -0.27506227837E+03  0.35771926339E+03  0.17391198179E+03 0.  0.
        -24    2    3    3    0    0  0.36689886295E+02 -0.10384270718E+02 -0.20521070798E+03  0.22334420806E+03  0.79480939687E+02 0.  0.
          6    2    1    2  501    0 -0.14704831100E+03 -0.20862196328E+02 -0.53967010864E+02  0.23379612216E+03  0.17230714283E+03 0.  0.
         24    2    5    5    0    0 -0.13203545828E+03 -0.49521069236E+02 -0.90086028878E+02  0.18507866938E+03  0.79075424240E+02 0.  0.
          5    1    5    5  501    0 -0.15012852719E+02  0.28658872908E+02  0.36119018014E+02  0.48717452780E+02  0.47000000000E+01 0. -1.
        -11    1    6    6    0    0 -0.98410746297E+02 -0.29185834819E+00 -0.36634841177E+02  0.10500891275E+03  0.00000000000E+00 0.  1.
         12    1    6    6    0    0 -0.33624711981E+02 -0.49229210888E+02 -0.53451187702E+02  0.80069756632E+02  0.00000000000E+00 0. -1.
         -5    1    3    3    0  503  0.11035842470E+03  0.31246467047E+02 -0.69851570395E+02  0.13437505532E+03  0.47000000000E+01 0.  1.
         11    1    4    4    0    0  0.16618379640E+02  0.32674336731E+01 -0.23704409345E+00  0.16938206947E+02  0.00000000000E+00 0. -1.
        -12    1    4    4    0    0  0.20071506655E+02 -0.13651704392E+02 -0.20497366388E+03  0.20640600112E+03  0.00000000000E+00 0.  1.
</event>
<event>
12    1  0.8331241E-002  0.1985553E+03  0.7818608E-02  0.1151716E+00
         21   -1    0    0  503  502  0.00000000000E+00  0.00000000000E+00  0.55481097313E+03  0.55481097313E+03  0.00000000000E+00 0. -1.
         21   -1    0    0  501  503 -0.00000000000E+00 -0.00000000000E+00 -0.98268498512E+02  0.98268498512E+02  0.00000000000E+00 0. -1.
          6    2    1    2  501    0 -0.96554522868E+02 -0.23689202557E+02  0.53997434199E+02  0.20576665831E+03  0.17187274527E+03 0.  0.
         24    2    3    3    0    0 -0.55955511937E+02  0.53421808309E+02  0.35198643789E+02  0.11649251756E+03  0.79665884818E+02 0.  0.
         -6    2    1    2    0  502  0.96554522868E+02  0.23689202557E+02  0.40254504042E+03  0.44731281334E+03  0.16781623641E+03 0.  0.
        -24    2    5    5    0    0  0.12440218941E+03  0.48815453405E+02  0.29456201174E+03  0.33290457282E+03  0.78738952402E+02 0.  0.
          5    1    3    3  501    0 -0.40599010931E+02 -0.77111010866E+02  0.18798790410E+02  0.89274140748E+02  0.47000000000E+01 0. -1.
        -11    1    4    4    0    0 -0.22771940281E+02 -0.10830948666E+02  0.36263269191E+02  0.44168941640E+02  0.00000000000E+00 0.  1.
         12    1    4    4    0    0 -0.33183571655E+02  0.64252756975E+02 -0.10646254016E+01  0.72323575921E+02  0.00000000000E+00 0. -1.
         -5    1    5    5    0  502 -0.27847666546E+02 -0.25126250849E+02  0.10798302868E+03  0.11440824051E+03  0.47000000000E+01 0.  1.
         13    1    6    6    0    0  0.51390689992E+02  0.18195428974E+02  0.43773273109E+02  0.69915492505E+02  0.00000000000E+00 0. -1.
        -14    1    6    6    0    0  0.73011499422E+02  0.30620024431E+02  0.25078873863E+03  0.26298908032E+03  0.00000000000E+00 0.  1.
</event>
<event>
12    1  0.8331241E-002  0.2389300E+03  0.7818608E-02  0.1121903E+00
         21   -1    0    0  501  502  0.00000000000E+00  0.00000000000E+00  0.95347229790E+02  0.95347229790E+02  0.00000000000E+00 0. -1.
         21   -1    0    0  502  503 -0.00000000000E+00 -0.00000000000E+00 -0.94098811447E+03  0.94098811447E+03  0.00000000000E+00 0.  1.
         -6    2    1    2    0  503 -0.16338092652E+03  0.16964833644E+02 -0.74895933522E+03  0.78614732168E+03  0.17351193858E+03 0.  0.
        -24    2    3    3    0    0 -0.90160330698E+02  0.32379770142E+02 -0.65139230171E+03  0.66310142801E+03  0.78830440526E+02 0.  0.
          6    2    1    2  501    0  0.16338092652E+03 -0.16964833644E+02 -0.96681549460E+02  0.25018802259E+03  0.16206662799E+03 0.  0.
         24    2    5    5    0    0  0.26542280591E+02  0.19291493558E+02 -0.50331592880E+02  0.10115868065E+03  0.81382768732E+02 0.  0.
          5    1    5    5  501    0  0.13683864593E+03 -0.36256327202E+02 -0.46349956580E+02  0.14902934194E+03  0.47000000000E+01 0. -1.
        -11    1    6    6    0    0 -0.29631898166E+01 -0.16341532082E+01 -0.62804841868E+02  0.62895938762E+02  0.00000000000E+00 0.  1.
         12    1    6    6    0    0  0.29505470408E+02  0.20925646767E+02  0.12473248988E+02  0.38262741890E+02  0.00000000000E+00 0. -1.
         -5    1    3    3    0  503 -0.73220595825E+02 -0.15414936498E+02 -0.97567033516E+02  0.12304589367E+03  0.47000000000E+01 0.  1.
         13    1    4    4    0    0 -0.19770248393E+02  0.37605209402E+02 -0.12556354883E+03  0.13255647585E+03  0.00000000000E+00 0. -1.
        -14    1    4    4    0    0 -0.70390082305E+02 -0.52254392605E+01 -0.52582875288E+03  0.53054495215E+03  0.00000000000E+00 0.  1.
</event>
<event>
12    1  0.8331241E-002  0.2072162E+03  0.7818608E-02  0.1144197E+00
         21   -1    0    0  503  502  0.00000000000E+00  0.00000000000E+00  0.71782573775E+03  0.71782573775E+03  0.00000000000E+00 0.  1.
         21   -1    0    0  501  503 -0.00000000000E+00 -0.00000000000E+00 -0.71099303243E+02  0.71099303243E+02  0.00000000000E+00 0.  1.
          6    2    1    2  501    0 -0.11355511502E+03  0.29736646247E+01  0.16094106800E+03  0.26079059171E+03  0.17089791843E+03 0.  0.
         24    2    3    3    0    0 -0.62415522601E+02  0.46370678245E+02  0.15834034954E+03  0.19350454233E+03  0.79538697171E+02 0.  0.
         -6    2    1    2    0  502  0.11355511502E+03 -0.29736646247E+01  0.48578536650E+03  0.52813444928E+03  0.17330599350E+03 0.  0.
        -24    2    5    5    0    0  0.13602395572E+03  0.22114928477E+02  0.30040215930E+03  0.33965816479E+03  0.78323846953E+02 0.  0.
          5    1    3    3  501    0 -0.51139592419E+02 -0.43397013621E+02  0.26007184611E+01  0.67286049375E+02  0.47000000000E+01 0. -1.
        -13    1    4    4    0    0 -0.72479216015E+02  0.33979517784E+02  0.78615673682E+02  0.11219745332E+03  0.00000000000E+00 0.  1.
         14    1    4    4    0    0  0.10063693414E+02  0.12391160461E+02  0.79724675859E+02  0.81307089011E+02  0.00000000000E+00 0. -1.
         -5    1    5    5    0  502 -0.22468840699E+02 -0.25088593102E+02  0.18538320720E+03  0.18847628449E+03  0.47000000000E+01 0.  1.
         11    1    6    6    0    0  0.81801465725E+01 -0.18701168439E+02  0.18967460300E+02  0.27864189368E+02  0.00000000000E+00 0. -1.
        -12    1    6    6    0    0  0.12784380915E+03  0.40816096916E+02  0.28143469900E+03  0.31179397542E+03  0.00000000000E+00 0.  1.
</event>
<event>
12    1  0.8331241E-002  0.2381846E+03  0.7818608E-02  0.1121156E+00
         21   -1    0    0  501  502  0.00000000000E+00  0.00000000000E+00  0.12506709115E+04  0.12506709115E+04  0.00000000000E+00 0. -1.
         21   -1    0    0  502  503 -0.00000000000E+00 -0.00000000000E+00 -0.81926108837E+02  0.81926108837E+02  0.00000000000E+00 0.  1.
         -6    2    1    2    0  503 -0.11439475674E+03  0.11591864118E+03  0.13762722683E+03  0.27432702689E+03  0.17260003585E+03 0.  0.
        -24    2    3    3    0    0 -0.35163495379E+02 -0.44248412002E+01  0.24331971032E+02  0.90974766159E+02  0.80176758705E+02 0.  0.
          6    2    1    2  501    0  0.11439475674E+03 -0.11591864118E+03  0.10311175758E+04  0.10582699935E+04  0.17380630627E+03 0.  0.
         24    2    5    5    0    0 -0.10530345611E+02 -0.29146053341E+02  0.31113527172E+03  0.32238116256E+03  0.78511630083E+02 0.  0.
          5    1    5    5  501    0  0.12492510235E+03 -0.86772587835E+02  0.71998230411E+03  0.73588883089E+03  0.47000000000E+01 0. -1.
        -13    1    6    6    0    0 -0.45948495217E+00 -0.24673025561E+02  0.31035445513E+03  0.31133399611E+03  0.00000000000E+00 0.  1.
         14    1    6    6    0    0 -0.10070860659E+02 -0.44730277805E+01  0.78081659383E+00  0.11047166446E+02  0.00000000000E+00 0. -1.
         -5    1    3    3    0  503 -0.79231261365E+02  0.12034348238E+03  0.11329525580E+03  0.18335226073E+03  0.47000000000E+01 0.  1.
         13    1    4    4    0    0  0.37527465989E+01 -0.24566611334E+02  0.37706447465E+02  0.45159469438E+02  0.00000000000E+00 0. -1.
        -14    1    4    4    0    0 -0.38916241977E+02  0.20141770134E+02 -0.13374476433E+02  0.45815296721E+02  0.00000000000E+00 0.  1.
</event>
<event>
12    1  0.8331241E-002  0.1936791E+03  0.7818608E-02  0.1155312E+00
         21   -1    0    0  503  502  0.00000000000E+00  0.00000000000E+00  0.37135526268E+04  0.37135526268E+04  0.00000000000E+00 0.  1.
         21   -1    0    0  501  503 -0.00000000000E+00 -0.00000000000E+00 -0.12130233492E+02  0.12130233492E+02  0.00000000000E+00 0.  1.
          6    2    1    2  501    0 -0.70206156388E+02 -0.51763810141E+02  0.10809012193E+04  0.10980141558E+04  0.17227664991E+03 0.  0.
         24    2    3    3    0    0 -0.44922298332E+02 -0.61121331250E+02  0.10529190113E+04  0.10588742702E+04  0.82598098167E+02 0.  0.
         -6    2    1    2    0  502  0.70206156388E+02  0.51763810141E+02  0.26205211741E+04  0.26276687045E+04  0.17292541891E+03 0.  0.
        -24    2    5    5    0    0  0.38662352872E+02 -0.37933841862E+02  0.81745775670E+03  0.82209387710E+03  0.68318408199E+02 0.  0.
          5    1    3    3  501    0 -0.25283858055E+02  0.93575211090E+01  0.27982208007E+02  0.39139885596E+02  0.47000000000E+01 0. -1.
        -11    1    4    4    0    0 -0.22305330026E+02 -0.53836334136E+02  0.30151918155E+03  0.30709883664E+03  0.00000000000E+00 0.  1.
         12    1    4    4    0    0 -0.22616968306E+02 -0.72849971145E+01  0.75139982970E+03  0.75177543357E+03  0.00000000000E+00 0. -1.
         -5    1    5    5    0  502  0.31543803516E+02  0.89697652003E+02  0.18030634174E+04  0.18055748274E+04  0.47000000000E+01 0.  1.
         13    1    6    6    0    0  0.54777902768E+02 -0.20999816471E+02  0.69158834671E+03  0.69407207999E+03  0.00000000000E+00 0. -1.
        -14    1    6    6    0    0 -0.16115549896E+02 -0.16934025391E+02  0.12586940999E+03  0.12802179711E+03  0.00000000000E+00 0.  1.
</event>
<event>
12    1  0.8331241E-002  0.2663091E+03  0.7818608E-02  0.1103562E+00
         21   -1    0    0  501  502  0.00000000000E+00  0.00000000000E+00  0.10855038484E+03  0.10855038484E+03  0.00000000000E+00 0.  1.
         21   -1    0    0  502  503 -0.00000000000E+00 -0.00000000000E+00 -0.71647505195E+03  0.71647505195E+03  0.00000000000E+00 0. -1.
         -6    2    1    2    0  503  0.14055298050E+03 -0.14679219255E+03 -0.42938816015E+03  0.50526696483E+03  0.17209713987E+03 0.  0.
        -24    2    3    3    0    0  0.39574432021E+02 -0.11364646464E+03 -0.32676259295E+03  0.35745152730E+03  0.80722658627E+02 0.  0.
          6    2    1    2  501    0 -0.14055298050E+03  0.14679219255E+03 -0.17853650696E+03  0.31975847195E+03  0.17049078552E+03 0.  0.
         24    2    5    5    0    0 -0.31471009270E+02  0.12258619082E+03 -0.75888285419E+02  0.16795743654E+03  0.80205174525E+02 0.  0.
          5    1    5    5  501    0 -0.10908197123E+03  0.24206001732E+02 -0.10264822154E+03  0.15180103541E+03  0.47000000000E+01 0. -1.
        -13    1    6    6    0    0 -0.12722175247E+02  0.52247448452E+02 -0.78458155902E+02  0.95117463382E+02  0.00000000000E+00 0.  1.
         14    1    6    6    0    0 -0.18748834023E+02  0.70338742366E+02  0.25698704831E+01  0.72839973155E+02  0.00000000000E+00 0. -1.
         -5    1    3    3    0  503  0.10097854848E+03 -0.33145727907E+02 -0.10262556720E+03  0.14781543754E+03  0.47000000000E+01 0.  1.
         11    1    4    4    0    0  0.27469156024E+01  0.10128340851E+02 -0.61914048676E+02  0.62797119816E+02  0.00000000000E+00 0. -1.
        -12    1    4    4    0    0  0.36827516419E+02 -0.12377480549E+03 -0.26484854428E+03  0.29465440748E+03  0.00000000000E+00 0.  1.
</event>
<event>
12    1  0.8331241E-002  0.2172470E+03  0.7818608E-02  0.1136389E+00
         21   -1    0    0  503  502  0.00000000000E+00  0.00000000000E+00  0.14500625077E+03  0.14500625077E+03  0.00000000000E+00 0.  1.
         21   -1    0    0  501  503 -0.00000000000E+00 -0.00000000000E+00 -0.38516912462E+03  0.38516912462E+03  0.00000000000E+00 0.  1.
          6    2    1    2  501    0 -0.44482097705E+02  0.12159901464E+03 -0.22792261624E+03  0.31487294919E+03  0.17444562982E+03 0.  0.
         24    2    3    3    0    0 -0.17047446082E+02  0.50156563176E+02 -0.21727348851E+03  0.23746379016E+03  0.79843513080E+02 0.  0.
         -6    2    1    2    0  502  0.44482097705E+02 -0.12159901464E+03 -0.12240257620E+02  0.21530242620E+03  0.17158185639E+03 0.  0.
        -24    2    5    5    0    0 -0.17316360059E+02 -0.10672872538E+03 -0.41554185447E+02  0.14514851505E+03  0.87466930586E+02 0.  0.
          5    1    3    3  501    0 -0.27434651623E+02  0.71442451466E+02 -0.10649127731E+02  0.77409159035E+02  0.47000000000E+01 0. -1.
        -13    1    4    4    0    0 -0.14602116691E+02  0.71032742212E+02 -0.14391286622E+03  0.16115143605E+03  0.00000000000E+00 0.  1.
         14    1    4    4    0    0 -0.24453293909E+01 -0.20876179035E+02 -0.73360622287E+02  0.76312354106E+02  0.00000000000E+00 0. -1.
         -5    1    5    5    0  502  0.61798457764E+02 -0.14870289266E+02  0.29313927827E+02  0.70153911149E+02  0.47000000000E+01 0.  1.
         13    1    6    6    0    0  0.66177673324E+01  0.14062043606E+02 -0.82001503727E+01  0.17572090968E+02  0.00000000000E+00 0. -1.
        -14    1    6    6    0    0 -0.23934127391E+02 -0.12079076898E+03 -0.33354035074E+02  0.12757642408E+03  0.00000000000E+00 0.  1.
</event>
<event>
12    1  0.8331241E-002  0.1802582E+03  0.7818608E-02  0.1168138E+00
         21   -1    0    0  503  502  0.00000000000E+00  0.00000000000E+00  0.19124299618E+03  0.19124299618E+03  0.00000000000E+00 0. -1.
         21   -1    0    0  501  503 -0.00000000000E+00 -0.00000000000E+00 -0.29441854578E+03  0.29441854578E+03  0.00000000000E+00 0. -1.
          6    2    1    2  501    0 -0.39908209885E+02  0.26181925093E+02 -0.21112595361E+03  0.27760975276E+03  0.17382418739E+03 0.  0.
         24    2    3    3    0    0 -0.47571307775E+02 -0.47622094813E+02 -0.10710665688E+03  0.14975100056E+03  0.80141331294E+02 0.  0.
         -6    2    1    2    0  502  0.39908209885E+02 -0.26181925093E+02  0.10795040400E+03  0.20805178920E+03  0.17133037922E+03 0.  0.
        -24    2    5    5    0    0  0.56816295300E+02  0.27404534716E+02  0.11227809928E+03  0.15149906182E+03  0.79790314068E+02 0.  0.
          5    1    3    3  501    0  0.76630978895E+01  0.73804019906E+02 -0.10401929673E+03  0.12785875221E+03  0.47000000000E+01 0. -1.
        -11    1    4    4    0    0  0.60906268270E+01  0.84215894664E+01  0.64388941677E+01  0.12226130311E+02  0.00000000000E+00 0.  1.
         12    1    4    4    0    0 -0.53661934602E+02 -0.56043684279E+02 -0.11354555105E+03  0.13752487025E+03  0.00000000000E+00 0. -1.
         -5    1    5    5    0  502 -0.16908085414E+02 -0.53586459809E+02 -0.43276952782E+01  0.56552727376E+02  0.47000000000E+01 0.  1.
         11    1    6    6    0    0  0.98283787733E+01 -0.27453739304E+02  0.37902125130E+02  0.47821291497E+02  0.00000000000E+00 0. -1.
        -12    1    6    6    0    0  0.46987916526E+02  0.54858274020E+02  0.74375974153E+02  0.10367777032E+03  0.00000000000E+00 0.  1.
</event>
<event>
12    1  0.8331241E-002  0.2124003E+03  0.7818608E-02  0.1140616E+00
         21   -1    0    0  503  502  0.00000000000E+00  0.00000000000E+00  0.10021568650E+03  0.10021568650E+03  0.00000000000E+00 0.  1.
         21   -1    0    0  501  503 -0.00000000000E+00 -0.00000000000E+00 -0.53047828855E+03  0.53047828855E+03  0.00000000000E+00 0.  1.
          6    2    1    2  501    0  0.45642424977E+02 -0.10774222573E+03 -0.87040107562E+02  0.22954269893E+03  0.17726322841E+03 0.  0.
         24    2    3    3    0    0  0.31564368548E+02  0.38003135544E+01 -0.75622090432E+02  0.11643924692E+03  0.82635621351E+02 0.  0.
         -6    2    1    2    0  502 -0.45642424977E+02  0.10774222573E+03 -0.34322249448E+03  0.40115127612E+03  0.17154896518E+03 0.  0.
        -24    2    5    5    0    0 -0.56568094249E+02  0.12985373914E+02 -0.99809137793E+02  0.13967396653E+03  0.78602695360E+02 0.  0.
          5    1    3    3  501    0  0.14078056429E+02 -0.11154253928E+03 -0.11418017130E+02  0.11310345201E+03  0.47000000000E+01 0. -1.
        -11    1    4    4    0    0  0.10129231166E+02 -0.31615152287E+02 -0.36332454965E+01  0.33396401767E+02  0.00000000000E+00 0.  1.
         12    1    4    4    0    0  0.21435137381E+02  0.35415465841E+02 -0.71988844936E+02  0.83042845149E+02  0.00000000000E+00 0. -1.
         -5    1    5    5    0  502  0.10925669272E+02  0.94756851813E+02 -0.24341335669E+03  0.26147730959E+03  0.47000000000E+01 0.  1.
         13    1    6    6    0    0 -0.55861236598E+01  0.30362836551E+01 -0.85581045808E+02  0.85816893428E+02  0.00000000000E+00 0. -1.
        -14    1    6    6    0    0 -0.50981970589E+02  0.99490902589E+01 -0.14228091985E+02  0.53857073107E+02  0.00000000000E+00 0.  1.
</event>
<event>
12    1  0.8331241E-002  0.2259336E+03  0.7818608E-02  0.1130632E+00
         21   -1    0    0  501  502  0.00000000000E+00  0.00000000000E+00  0.77647356345E+03  0.77647356345E+03  0.00000000000E+00 0. -1.
         21   -1    0    0  502  503 -0.00000000000E+00 -0.00000000000E+00 -0.17850464690E+03  0.17850464690E+03  0.00000000000E+00 0.  1.
         -6    2    1    2    0  503 -0.11892831817E+03 -0.69560558560E+02 -0.81978768501E+02  0.24034664844E+03  0.17906249401E+03 0.  0.
        -24    2    3    3    0    0 -0.12104506900E+03 -0.33952182720E+02 -0.92352681272E+00  0.15166474911E+03  0.84833270468E+02 0.  0.
          6    2    1    2  501    0  0.11892831817E+03  0.69560558560E+02  0.67994768505E+03  0.71463156192E+03  0.17142578195E+03 0.  0.
         24    2    5    5    0    0  0.11514989569E+03  0.23440288097E+01  0.32489286780E+03  0.35321995225E+03  0.77097121703E+02 0.  0.
          5    1    5    5  501    0  0.37784224770E+01  0.67216529751E+02  0.35505481725E+03  0.36141160966E+03  0.47000000000E+01 0. -1.
        -11    1    6    6    0    0  0.63536557090E+02  0.24411914232E+02  0.96885660841E+02  0.11840467440E+03  0.00000000000E+00 0.  1.
         12    1    6    6    0    0  0.51613338601E+02 -0.22067885422E+02  0.22800720696E+03  0.23481527785E+03  0.00000000000E+00 0. -1.
         -5    1    3    3    0  503  0.21167508343E+01 -0.35608375840E+02 -0.81055241689E+02  0.88681899333E+02  0.47000000000E+01 0.  1.
         11    1    4    4    0    0 -0.76327157612E+02  0.22456971020E+02 -0.34436359132E+01  0.79636732510E+02  0.00000000000E+00 0. -1.
        -12    1    4    4    0    0 -0.44717911389E+02 -0.56409153741E+02  0.25201091005E+01  0.72028016595E+02  0.00000000000E+00 0.  1.
</event>
<event>
12    1  0.8331241E-002  0.1921753E+03  0.7818608E-02  0.1158066E+00
         21   -1    0    0  503  502  0.00000000000E+00  0.00000000000E+00  0.31743561722E+03  0.31743561722E+03  0.00000000000E+00 0. -1.
         21   -1    0    0  501  503 -0.00000000000E+00 -0.00000000000E+00 -0.11235305259E+03  0.11235305259E+03  0.00000000000E+00 0. -1.
          6    2    1    2  501    0 -0.70695655428E+02  0.97417776293E+01  0.93616128964E+02  0.20762628445E+03  0.17103191651E+03 0.  0.
         24    2    3    3    0    0 -0.80028953275E+02 -0.36280491838E+02  0.19551218404E+02  0.11980339044E+03  0.79055011039E+02 0.  0.
         -6    2    1    2    0  502  0.70695655428E+02 -0.97417776293E+01  0.11146643566E+03  0.22216238536E+03  0.17843368870E+03 0.  0.
        -24    2    5    5    0    0  0.10850438454E+03 -0.43768139393E+02  0.69217999796E+02  0.15587276608E+03  0.76264908165E+02 0.  0.
          5    1    3    3  501    0  0.93332978463E+01  0.46022269467E+02  0.74064910560E+02  0.87822894008E+02  0.47000000000E+01 0. -1.
        -13    1    4    4    0    0 -0.62187623728E+02 -0.37664565392E+02  0.47334931872E+02  0.86755494388E+02  0.00000000000E+00 0.  1.
         14    1    4    4    0    0 -0.17841329547E+02  0.13840735540E+01 -0.27783713469E+02  0.33047896056E+02  0.00000000000E+00 0. -1.
         -5    1    5    5    0  502 -0.37808729115E+02  0.34026361764E+02  0.42248435863E+02  0.66289619285E+02  0.47000000000E+01 0.  1.
         11    1    6    6    0    0  0.73971974059E+02 -0.54959370404E+02  0.75375106466E+02  0.11905373583E+03  0.00000000000E+00 0. -1.
        -12    1    6    6    0    0  0.34532410484E+02  0.11191231011E+02 -0.61571066699E+01  0.36819030241E+02  0.00000000000E+00 0.  1.
</event>
<event>
12    1  0.8331241E-002  0.2677963E+03  0.7818608E-02  0.1102582E+00
         21   -1    0    0  503  502  0.00000000000E+00  0.00000000000E+00  0.19871305484E+02  0.19871305484E+02  0.00000000000E+00 0.  1.
         21   -1    0    0  501  503 -0.00000000000E+00 -0.00000000000E+00 -0.36236383071E+04  0.36236383071E+04  0.00000000000E+00 0.  1.
          6    2    1    2  501    0 -0.91869514817E+01  0.20483873158E+03 -0.19290210001E+04  0.19474880894E+04  0.17188523318E+03 0.  0.
         24    2    3    3    0    0 -0.12514360607E+00  0.23082812170E+02 -0.76395099983E+03  0.76828177743E+03  0.78121235951E+02 0.  0.
         -6    2    1    2    0  502  0.91869514817E+01 -0.20483873158E+03 -0.16747460015E+04  0.16960215232E+04  0.17225426431E+03 0.  0.
        -24    2    5    5    0    0 -0.56969583992E+02 -0.12728714360E+03 -0.83888117685E+03  0.85395084263E+03  0.77864384206E+02 0.  0.
          5    1    3    3  501    0 -0.90618078757E+01  0.18175591941E+03 -0.11650700003E+04  0.11792063120E+04  0.47000000000E+01 0. -1.
        -11    1    4    4    0    0  0.31519954016E+02  0.34704551885E+02 -0.38792726214E+03  0.39074988693E+03  0.00000000000E+00 0.  1.
         12    1    4    4    0    0 -0.31645097622E+02 -0.11621739715E+02 -0.37602373769E+03  0.37753189050E+03  0.00000000000E+00 0. -1.
         -5    1    5    5    0  502  0.66156535474E+02 -0.77551587980E+02 -0.83586482469E+03  0.84207068060E+03  0.47000000000E+01 0.  1.
         11    1    6    6    0    0  0.12501184130E+02 -0.46427537128E+01 -0.29315565400E+02  0.32206166201E+02  0.00000000000E+00 0. -1.
        -12    1    6    6    0    0 -0.69470768122E+02 -0.12264438988E+03 -0.80956561145E+03  0.82174467643E+03  0.00000000000E+00 0.  1.
</event>
<event>
12    1  0.8331241E-002  0.2140750E+03  0.7818608E-02  0.1138590E+00
         21   -1    0    0  501  502  0.00000000000E+00  0.00000000000E+00  0.45848895219E+03  0.45848895219E+03  0.00000000000E+00 0.  1.
         21   -1    0    0  502  503 -0.00000000000E+00 -0.00000000000E+00 -0.13918056191E+03  0.13918056191E+03  0.00000000000E+00 0.  1.
         -6    2    1    2    0  503 -0.85981966009E+02  0.93511060329E+02  0.27631385622E+00  0.21407522384E+03  0.17231049948E+03 0.  0.
        -24    2    3    3    0    0 -0.77904576152E+02  0.13067174972E+03 -0.73238266543E+01  0.17501100494E+03  0.86203156854E+02 0.  0.
          6    2    1    2  501    0  0.85981966009E+02 -0.93511060329E+02  0.31903207643E+03  0.38359429026E+03  0.17095583303E+03 0.  0.
         24    2    5    5    0    0 -0.14890531299E+01 -0.40650917334E+02  0.23389065717E+03  0.25049085236E+03  0.79913160653E+02 0.  0.
          5    1    5    5  501    0  0.87471019139E+02 -0.52860142995E+02  0.85141419256E+02  0.13310343790E+03  0.47000000000E+01 0. -1.
        -11    1    6    6    0    0  0.22924679587E+02 -0.47232692379E+02  0.88369599569E+02  0.10278936857E+03  0.00000000000E+00 0.  1.
         12    1    6    6    0    0 -0.24413732717E+02  0.65817750449E+01  0.14552105760E+03  0.14770148379E+03  0.00000000000E+00 0. -1.
         -5    1    3    3    0  503 -0.80773898572E+01 -0.37160689392E+02  0.76001405105E+01  0.39064218907E+02  0.47000000000E+01 0.  1.
         11    1    4    4    0    0  0.12065291504E+02 -0.41039158219E+01  0.72512756542E+00  0.12764763771E+02  0.00000000000E+00 0. -1.
        -12    1    4    4    0    0 -0.89969867656E+02  0.13477566554E+03 -0.80489542197E+01  0.16224624117E+03  0.00000000000E+00 0.  1.
</event>
<event>
12    1  0.8331241E-002  0.1877175E+03  0.7818608E-02  0.1160798E+00
         21   -1    0    0  501  502  0.00000000000E+00  0.00000000000E+00  0.25658741788E+02  0.25658741788E+02  0.00000000000E+00 0.  1.
         21   -1    0    0  502  503 -0.00000000000E+00 -0.00000000000E+00 -0.17471719449E+04  0.17471719449E+04  0.00000000000E+00 0.  1.
         -6    2    1    2    0  503  0.72494436578E+01 -0.73525851685E+02 -0.12773638469E+04  0.12910833716E+04  0.17256671100E+03 0.  0.
        -24    2    3    3    0    0 -0.36646600952E+02  0.65262242992E+01 -0.48377512527E+03  0.49224650045E+03  0.82961921456E+02 0.  0.
          6    2    1    2  501    0 -0.72494436578E+01  0.73525851685E+02 -0.44414935617E+03  0.48174731505E+03  0.17132781348E+03 0.  0.
         24    2    5    5    0    0 -0.65418653307E+02  0.20466611129E+02 -0.25179429092E+03  0.27384950100E+03  0.83034341609E+02 0.  0.
          5    1    5    5  501    0  0.58169209649E+02  0.53059240556E+02 -0.19235506526E+03  0.20789781406E+03  0.47000000000E+01 0. -1.
        -13    1    6    6    0    0 -0.13313625652E+02  0.32468167718E+02 -0.31489723125E+02  0.47149095489E+02  0.00000000000E+00 0.  1.
         14    1    6    6    0    0 -0.52105027654E+02 -0.12001556589E+02 -0.22030456779E+03  0.22670040551E+03  0.00000000000E+00 0. -1.
         -5    1    3    3    0  503  0.43896044610E+02 -0.80052075984E+02 -0.79358872165E+03  0.79883687116E+03  0.47000000000E+01 0.  1.
         13    1    4    4    0    0  0.41451953014E+01  0.13442231499E+02 -0.11518818696E+02  0.18181293021E+02  0.00000000000E+00 0. -1.
        -14    1    4    4    0    0 -0.40791796253E+02 -0.69160072001E+01 -0.47225630657E+03  0.47406520743E+03  0.00000000000E+00 0.  1.
</event>
<event>
12    1  0.8331241E-002  0.1972166E+03  0.7818608E-02  0.1152536E+00
         21   -1    0    0  503  502  0.00000000000E+00  0.00000000000E+00  0.11942419731E+03  0.11942419731E+03  0.00000000000E+00 0.  1.
         21   -1    0    0  501  503 -0.00000000000E+00 -0.00000000000E+00 -0.38253654103E+03  0.38253654103E+03  0.00000000000E+00 0.  1.
          6    2    1    2  501    0  0.77170383306E+02  0.56363035897E+02 -0.23160218315E+03  0.30419395576E+03  0.17251762693E+03 0.  0.
         24    2    3    3    0    0 -0.18775153808E+02 -0.48292942351E+01 -0.10796934167E+03  0.13609512515E+03  0.80552317561E+02 0.  0.
         -6    2    1    2    0  502 -0.77170383306E+02 -0.56363035897E+02 -0.31510160574E+02  0.19776678258E+03  0.17025495646E+03 0.  0.
        -24    2    5    5    0    0 -0.96508906677E+02 -0.44065168101E+02 -0.70848406751E+02  0.15199775757E+03  0.82632399572E+02 0.  0.
          5    1    3    3  501    0  0.95945537114E+02  0.61192330132E+02 -0.12363284148E+03  0.16809883061E+03  0.47000000000E+01 0. -1.
        -13    1    4    4    0    0  0.98278420570E+01 -0.18928282872E+02  0.21648087573E+01  0.21437181926E+02  0.00000000000E+00 0.  1.
         14    1    4    4    0    0 -0.28602995865E+02  0.14098988637E+02 -0.11013415043E+03  0.11465794322E+03  0.00000000000E+00 0. -1.
         -5    1    5    5    0  502  0.19338523371E+02 -0.12297867796E+02  0.39338246177E+02  0.45769025014E+02  0.47000000000E+01 0.  1.
         13    1    6    6    0    0  0.11825758850E+02  0.66934859053E+01 -0.13886686675E+01  0.13659418971E+02  0.00000000000E+00 0. -1.
        -14    1    6    6    0    0 -0.10833466553E+03 -0.50758654007E+02 -0.69459738083E+02  0.13833833860E+03  0.00000000000E+00 0.  1.
</event>
<event>
12    1  0.8331241E-002  0.2169296E+03  0.7818608E-02  0.1136341E+00
         21   -1    0    0  503  502  0.00000000000E+00  0.00000000000E+00  0.70529361940E+03  0.70529361940E+03  0.00000000000E+00 0.  1.
         21   -1    0    0  501  503 -0.00000000000E+00 -0.00000000000E+00 -0.11696376079E+03  0.11696376079E+03  0.00000000000E+00 0. -1.
          6    2    1    2  501    0  0.91310663864E+02  0.94579317791E+02  0.23770551941E+02  0.21745519962E+03  0.17157750439E+03 0.  0.
         24    2    3    3    0    0  0.57444405409E+02  0.75730812917E+02  0.82015034963E+02  0.14733601964E+03  0.77113040313E+02 0.  0.
         -6    2    1    2    0  502 -0.91310663864E+02 -0.94579317791E+02  0.56455930667E+03  0.60480218058E+03  0.17255602625E+03 0.  0.
        -24    2    5    5    0    0 -0.12802151714E+03 -0.98739576304E+02  0.46504601606E+03  0.49854786534E+03  0.78378340128E+02 0.  0.
          5    1    3    3  501    0  0.33866258455E+02  0.18848504874E+02 -0.58244483022E+02  0.70119179974E+02  0.47000000000E+01 0. -1.
        -13    1    4    4    0    0 -0.59624100658E+01 -0.12396818139E+02  0.10893198119E+02  0.17546885736E+02  0.00000000000E+00 0.  1.
         14    1    4    4    0    0  0.63406815475E+02  0.88127631056E+02  0.71121836844E+02  0.12978913391E+03  0.00000000000E+00 0. -1.
         -5    1    5    5    0  502  0.36710853272E+02  0.41602585129E+01  0.99513290611E+02  0.10625431524E+03  0.47000000000E+01 0.  1.
         11    1    6    6    0    0 -0.10168161655E+03 -0.30244691327E+02  0.28644657125E+03  0.30545954017E+03  0.00000000000E+00 0. -1.
        -12    1    6    6    0    0 -0.26339900582E+02 -0.68494884976E+02  0.17859944481E+03  0.19308832517E+03  0.00000000000E+00 0.  1.
</event>
<event>
12    1  0.8331241E-002  0.2096053E+03  0.7818608E-02  0.1142870E+00
         21   -1    0    0  503  502  0.00000000000E+00  0.00000000000E+00  0.97493843137E+02  0.97493843137E+02  0.00000000000E+00 0.  1.
         21   -1    0    0  501  503 -0.00000000000E+00 -0.00000000000E+00 -0.54846038631E+03  0.54846038631E+03  0.00000000000E+00 0.  1.
          6    2    1    2  501    0  0.10213662287E+03  0.44271566940E+02 -0.37119131218E+03  0.42628319924E+03  0.17760212371E+03 0.  0.
         24    2    3    3    0    0  0.49142649645E+02 -0.50747166206E+02 -0.12844732320E+03  0.16023122118E+03  0.64691997268E+02 0.  0.
         -6    2    1    2    0  502 -0.10213662287E+03 -0.44271566940E+02 -0.79775230993E+02  0.21967103020E+03  0.17175393055E+03 0.  0.
        -24    2    5    5    0    0 -0.11073440982E+03 -0.78771817612E+01 -0.57472089820E+01  0.13660051043E+03  0.79388346290E+02 0.  0.
          5    1    3    3  501    0  0.52993973229E+02  0.95018733146E+02 -0.24274398897E+03  0.26605197806E+03  0.47000000000E+01 0. -1.
        -11    1    4    4    0    0  0.41742749867E+02 -0.79208689714E+01 -0.28271818663E+02  0.51034234218E+02  0.00000000000E+00 0.  1.
         12    1    4    4    0    0  0.73998997784E+01 -0.42826297235E+02 -0.10017550454E+03  0.10919698696E+03  0.00000000000E+00 0. -1.
         -5    1    5    5    0  502  0.85977869487E+01 -0.36394385178E+02 -0.74028022011E+02  0.83070519776E+02  0.47000000000E+01 0.  1.
         13    1    6    6    0    0 -0.60053147891E+02 -0.21299776028E+02  0.32667610456E+02  0.71604705176E+02  0.00000000000E+00 0. -1.
        -14    1    6    6    0    0 -0.50681261933E+02  0.13422594267E+02 -0.38414819438E+02  0.64995805252E+02  0.00000000000E+00 0.  1.
</event>
<event>
12    1  0.8331241E-002  0.1736050E+03  0.7818608E-02  0.1179780E+00
         21   -1    0    0  503  502  0.00000000000E+00  0.00000000000E+00  0.90725317356E+02  0.90725317356E+02  0.00000000000E+00 0. -1.
         21   -1    0    0  501  503 -0.00000000000E+00 -0.00000000000E+00 -0.34235698304E+03  0.34235698304E+03  0.00000000000E+00 0. -1.
          6    2    1    2  501    0 -0.20346684340E+02 -0.14454320810E+02 -0.21423545414E+03  0.27574542944E+03  0.17180162133E+03 0.  0.
         24    2    3    3    0    0 -0.22618659134E+02 -0.24749568152E+02 -0.30279528873E+02  0.91427697174E+02  0.79486030704E+02 0.  0.
         -6    2    1    2    0  502  0.20346684340E+02  0.14454320810E+02 -0.37396211549E+02  0.15733687096E+03  0.15077632232E+03 0.  0.
        -24    2    5    5    0    0 -0.21885322133E+02  0.42912213967E+02 -0.47329801625E+02  0.10523926770E+03  0.80714112222E+02 0.  0.
          5    1    3    3  501    0  0.22719747939E+01  0.10295247343E+02 -0.18395592527E+03  0.18431773227E+03  0.47000000000E+01 0. -1.
        -11    1    4    4    0    0 -0.22312052361E+02  0.24564861558E+02  0.69356926278E+00  0.33192486232E+02  0.00000000000E+00 0.  1.
         12    1    4    4    0    0 -0.30660677260E+00 -0.49314429710E+02 -0.30973098136E+02  0.58235210942E+02  0.00000000000E+00 0. -1.
         -5    1    5    5    0  502  0.42232006473E+02 -0.28457893157E+02  0.99335900756E+01  0.52097603260E+02  0.47000000000E+01 0.  1.
         13    1    6    6    0    0 -0.47086771076E+02  0.20204574369E+02 -0.57245153066E+01  0.51557336154E+02  0.00000000000E+00 0. -1.
        -14    1    6    6    0    0  0.25201448943E+02  0.22707639598E+02 -0.41605286318E+02  0.53681931546E+02  0.00000000000E+00 0.  1.
</event>
<event>
12    1  0.8331241E-002  0.2333344E+03  0.7818608E-02  0.1125923E+00
         21   -1    0    0  503  502  0.00000000000E+00  0.00000000000E+00  0.15925342586E+04  0.15925342586E+04  0.00000000000E+00 0. -1.
         21   -1    0    0  501  503 -0.00000000000E+00 -0.00000000000E+00 -0.37443978134E+02  0.37443978134E+02  0.00000000000E+00 0. -1.
          6    2    1    2  501    0 -0.13957058298E+03  0.95174781872E+01  0.47900556999E+03  0.52888638608E+03  0.17522540705E+03 0.  0.
         24    2    3    3    0    0 -0.14185100069E+03 -0.33777929114E+02  0.28416701797E+03  0.32922706636E+03  0.79855571062E+02 0.  0.
         -6    2    1    2    0  502  0.13957058298E+03 -0.95174781872E+01  0.10760847105E+04  0.11010918507E+04  0.18674696632E+03 0.  0.
        -24    2    5    5    0    0  0.82503633841E+02  0.70536800981E+02  0.64519472687E+03  0.65910362426E+03  0.79743727302E+02 0.  0.
          5    1    3    3  501    0  0.22804177087E+01  0.43295407301E+02  0.19483855202E+03  0.19965931972E+03  0.47000000000E+01 0. -1.
        -11    1    4    4    0    0 -0.36296113059E+02  0.36046566649E+01  0.15048324306E+03  0.15484058840E+03  0.00000000000E+00 0.  1.
         12    1    4    4    0    0 -0.10555488763E+03 -0.37382585779E+02  0.13368377491E+03  0.17438647797E+03  0.00000000000E+00 0. -1.
         -5    1    5    5    0  502  0.57066949142E+02 -0.80054279168E+02  0.43088998361E+03  0.44198822640E+03  0.47000000000E+01 0.  1.
         13    1    6    6    0    0  0.83529798705E+02  0.28029257884E+02  0.50408021907E+03  0.51172232101E+03  0.00000000000E+00 0. -1.
        -14    1    6    6    0    0 -0.10261648634E+01  0.42507543097E+02  0.14111450780E+03  0.14738130325E+03  0.00000000000E+00 0.  1.
</event>
<event>
12    1  0.8331241E-002  0.1975739E+03  0.7818608E-02  0.1151980E+00
         21   -1    0    0  501  502  0.00000000000E+00  0.00000000000E+00  0.83242263818E+02  0.83242263818E+02  0.00000000000E+00 0. -1.
         21   -1    0    0  502  503 -0.00000000000E+00 -0.00000000000E+00 -0.63132395660E+03  0.63132395660E+03  0.00000000000E+00 0. -1.
         -6    2    1    2    0  503  0.61479514418E+02 -0.72167081980E+02 -0.92173901423E+02  0.21801710303E+03  0.17334246651E+03 0.  0.
        -24    2    3    3    0    0  0.10866601298E+03 -0.61599012156E+02 -0.64909520904E+02  0.16230636626E+03  0.80792140381E+02 0.  0.
          6    2    1    2  501    0 -0.61479514418E+02  0.72167081980E+02 -0.45590779136E+03  0.49654911738E+03  0.17239864657E+03 0.  0.
         24    2    5    5    0    0 -0.33556115695E+00  0.87141580835E+02 -0.19867520973E+03  0.23168403911E+03  0.81313512452E+02 0.  0.
          5    1    5    5  501    0 -0.61143953261E+02 -0.14974498856E+02 -0.25723258163E+03  0.26486507827E+03  0.47000000000E+01 0. -1.
        -11    1    6    6    0    0  0.36249589834E+02  0.24953095512E+02 -0.10168823608E+03  0.11080246882E+03  0.00000000000E+00 0.  1.
         12    1    6    6    0    0 -0.36585150990E+02  0.62188485324E+02 -0.96986973647E+02  0.12088157030E+03  0.00000000000E+00 0. -1.
         -5    1    3    3    0  503 -0.47186498567E+02 -0.10568069824E+02 -0.27264380519E+02  0.55710736773E+02  0.47000000000E+01 0.  1.
         13    1    4    4    0    0  0.11834947447E+02  0.18384720387E+02 -0.23377305640E+01  0.21989290779E+02  0.00000000000E+00 0. -1.
        -14    1    4    4    0    0  0.96831065538E+02 -0.79983732543E+02 -0.62571790340E+02  0.14031707548E+03  0.00000000000E+00 0.  1.
</event>
<event>
12    1  0.8331241E-002  0.3110493E+03  0.7818608E-02  0.1079862E+00
         21   -1    0    0  503  502  0.00000000000E+00  0.00000000000E+00  0.14784806175E+04  0.14784806175E+04  0.00000000000E+00 0.  1.
         21   -1    0    0  501  503 -0.00000000000E+00 -0.00000000000E+00 -0.76223081590E+02  0.76223081590E+02  0.00000000000E+00 0.  1.
          6    2    1    2  501    0 -0.97934344001E+02 -0.23997974340E+03  0.40818012805E+03  0.51309842875E+03  0.17169032493E+03 0.  0.
         24    2    3    3    0    0 -0.37141705059E+02 -0.51110437054E+02  0.20430828425E+03  0.22857570818E+03  0.80704376112E+02 0.  0.
         -6    2    1    2    0  502  0.97934344001E+02  0.23997974340E+03  0.99407740783E+03  0.10416052703E+04  0.17195997615E+03 0.  0.
        -24    2    5    5    0    0  0.23892385310E+02  0.13320348064E+03  0.33592377021E+03  0.37073145010E+03  0.79265473991E+02 0.  0.
          5    1    3    3  501    0 -0.60792638942E+02 -0.18886930635E+03  0.20387184380E+03  0.28452272058E+03  0.47000000000E+01 0. -1.
        -11    1    4    4    0    0 -0.16548351000E+02 -0.71554052163E+02  0.14904618511E+03  0.16615834495E+03  0.00000000000E+00 0.  1.
         12    1    4    4    0    0 -0.20593354059E+02  0.20443615109E+02  0.55262099147E+02  0.62417363228E+02  0.00000000000E+00 0. -1.
         -5    1    5    5    0  502  0.74041958691E+02  0.10677626276E+03  0.65815363762E+03  0.67087382022E+03  0.47000000000E+01 0.  1.
         13    1    6    6    0    0  0.43797527420E+02  0.86533830473E+02  0.15512424640E+03  0.18294769483E+03  0.00000000000E+00 0. -1.
        -14    1    6    6    0    0 -0.19905142110E+02  0.46669650164E+02  0.18079952382E+03  0.18778375526E+03  0.00000000000E+00 0.  1.
</event>
<event>
12    1  0.8331241E-002  0.2365236E+03  0.7818608E-02  0.1122403E+00
         21   -1    0    0  503  502  0.00000000000E+00  0.00000000000E+00  0.10778452099E+04  0.10778452099E+04  0.00000000000E+00 0.  1.
         21   -1    0    0  501  503 -0.00000000000E+00 -0.00000000000E+00 -0.10308842946E+03  0.10308842946E+03  0.00000000000E+00 0.  1.
          6    2    1    2  501    0  0.36606404455E+02 -0.15710099795E+03  0.70718452005E+02  0.24686944264E+03  0.17298170380E+03 0.  0.
         24    2    3    3    0    0 -0.93061909637E+01 -0.16907598860E+03  0.41934286248E+02  0.19117397588E+03  0.78203002368E+02 0.  0.
         -6    2    1    2    0  502 -0.36606404455E+02  0.15710099795E+03  0.90403832839E+03  0.93406419668E+03  0.17079189652E+03 0.  0.
        -24    2    5    5    0    0  0.30793225808E+02  0.75686234495E+02  0.47410225669E+03  0.49130219558E+03  0.99640698198E+02 0.  0.
          5    1    3    3  501    0  0.45912595419E+02  0.11974990646E+02  0.28784165757E+02  0.55695466758E+02  0.47000000000E+01 0. -1.
        -11    1    4    4    0    0 -0.23810637088E+02 -0.79461839079E+02  0.54897187739E+02  0.99472767781E+02  0.00000000000E+00 0.  1.
         12    1    4    4    0    0  0.14504446124E+02 -0.89614149520E+02 -0.12962901491E+02  0.91701208098E+02  0.00000000000E+00 0. -1.
         -5    1    5    5    0  502 -0.67399630264E+02  0.81414763459E+02  0.42993607170E+03  0.44276200110E+03  0.47000000000E+01 0.  1.
         11    1    6    6    0    0 -0.14393020121E+02  0.79936766265E+02  0.25790202526E+03  0.27038953431E+03  0.00000000000E+00 0. -1.
        -12    1    6    6    0    0  0.45186245930E+02 -0.42505317702E+01  0.21620023143E+03  0.22091266127E+03  0.00000000000E+00 0.  1.
</event>
<event>
12    1  0.8331241E-002  0.1959821E+03  0.7818608E-02  0.1153253E+00
         21   -1    0    0  501  502  0.00000000000E+00  0.00000000000E+00  0.21766991041E+03  0.21766991041E+03  0.00000000000E+00 0. -1.
         21   -1    0    0  502  503 -0.00000000000E+00 -0.00000000000E+00 -0.65895688256E+03  0.65895688256E+03  0.00000000000E+00 0. -1.
         -6    2    1    2    0  503  0.80797233588E+02 -0.41855295406E+02 -0.59578082427E+03  0.62707251829E+03  0.17316204525E+03 0.  0.
        -24    2    3    3    0    0  0.54132517929E+02  0.27699554209E+02 -0.47209682199E+03  0.48261246642E+03  0.79635347731E+02 0.  0.
          6    2    1    2  501    0 -0.80797233588E+02  0.41855295406E+02  0.15449385212E+03  0.24955427468E+03  0.17357686182E+03 0.  0.
         24    2    5    5    0    0 -0.21313165872E+02  0.31338584405E+02  0.79932249099E+01  0.91018854990E+02  0.82366148430E+02 0.  0.
          5    1    5    5  501    0 -0.59484067716E+02  0.10516711001E+02  0.14650062721E+03  0.15853541969E+03  0.47000000000E+01 0. -1.
        -13    1    6    6    0    0  0.31659472791E+02  0.11519633489E+02 -0.12322830065E+01  0.33712648880E+02  0.00000000000E+00 0.  1.
         14    1    6    6    0    0 -0.52972638663E+02  0.19818950916E+02  0.92255079163E+01  0.57306206110E+02  0.00000000000E+00 0. -1.
         -5    1    3    3    0  503  0.26664715659E+02 -0.69554849615E+02 -0.12368400228E+03  0.14446005187E+03  0.47000000000E+01 0.  1.
         13    1    4    4    0    0  0.74233494539E+02  0.27208641442E+02 -0.40137959310E+03  0.40909228743E+03  0.00000000000E+00 0. -1.
        -14    1    4    4    0    0 -0.20100976610E+02  0.49091276677E+00 -0.70717228890E+02  0.73520178984E+02  0.00000000000E+00 0.  1.
</event>
<event>
12    1  0.8331241E-002  0.2990756E+03  0.7818608E-02  0.1086767E+00
         21   -1    0    0  503  502  0.00000000000E+00  0.00000000000E+00  0.43866368890E+03  0.43866368890E+03  0.00000000000E+00 0. -1.
         21   -1    0    0  501  503 -0.00000000000E+00 -0.00000000000E+00 -0.20709745600E+03  0.20709745600E+03  0.00000000000E+00 0.  1.
          6    2    1    2  501    0 -0.33722479326E+02 -0.23419099148E+03  0.50641640387E+02  0.30333279532E+03  0.18293054112E+03 0.  0.
         24    2    3    3    0    0  0.44872426864E+02 -0.65853543588E+02  0.28155099296E+02  0.11613666777E+03  0.79654203202E+02 0.  0.
         -6    2    1    2    0  502  0.33722479326E+02  0.23419099148E+03  0.18092459251E+03  0.34242834958E+03  0.16894034545E+03 0.  0.
        -24    2    5    5    0    0  0.12347587767E+02  0.18940739295E+03  0.20223050103E+03  0.28822052335E+03  0.78398157544E+02 0.  0.
          5    1    3    3  501    0 -0.78594906190E+02 -0.16833744789E+03  0.22486541091E+02  0.18719612755E+03  0.47000000000E+01 0. -1.
        -13    1    4    4    0    0  0.53644552654E+02 -0.62179552383E+02 -0.43812344899E+01  0.82238859305E+02  0.00000000000E+00 0.  1.
         14    1    4    4    0    0 -0.87721257908E+01 -0.36739912047E+01  0.32536333786E+02  0.33897808462E+02  0.00000000000E+00 0. -1.
         -5    1    5    5    0  502  0.21374891559E+02  0.44783598524E+02 -0.21305908524E+02  0.54207826224E+02  0.47000000000E+01 0.  1.
         11    1    6    6    0    0 -0.21561293144E+02  0.53469792771E+02  0.97611808294E+02  0.11336654365E+03  0.00000000000E+00 0. -1.
        -12    1    6    6    0    0  0.33908880911E+02  0.13593760018E+03  0.10461869274E+03  0.17485397970E+03  0.00000000000E+00 0.  1.
</event>
<event>
12    1  0.8331241E-002  0.2226731E+03  0.7818608E-02  0.1132184E+00
         21   -1    0    0  501  502  0.00000000000E+00  0.00000000000E+00  0.13589984531E+03  0.13589984531E+03  0.00000000000E+00 0. -1.
         21   -1    0    0  502  503 -0.00000000000E+00 -0.00000000000E+00 -0.42463789823E+03  0.42463789823E+03  0.00000000000E+00 0.  1.
         -6    2    1    2    0  503 -0.52650936894E+02 -0.12932805341E+03 -0.25210733629E+03  0.33636497526E+03  0.17345149471E+03 0.  0.
        -24    2    3    3    0    0  0.79364446909E+01 -0.13843761144E+03 -0.16229995077E+03  0.22754736938E+03  0.78794491422E+02 0.  0.
          6    2    1    2  501    0  0.52650936894E+02  0.12932805341E+03 -0.36630716628E+02  0.22417276828E+03  0.17150438502E+03 0.  0.
         24    2    5    5    0    0  0.68093276242E+02  0.37775809835E+02 -0.61772052620E+02  0.12786879160E+03  0.80442123932E+02 0.  0.
          5    1    5    5  501    0 -0.15442339349E+02  0.91552243579E+02  0.25141335992E+02  0.96303976680E+02  0.47000000000E+01 0. -1.
        -11    1    6    6    0    0  0.71741944459E+02  0.19824779335E+01 -0.23931878657E+02  0.75654290226E+02  0.00000000000E+00 0.  1.
         12    1    6    6    0    0 -0.36486682167E+01  0.35793331902E+02 -0.37840173963E+02  0.52214501376E+02  0.00000000000E+00 0. -1.
         -5    1    3    3    0  503 -0.60587381585E+02  0.91095580282E+01 -0.89807385522E+02  0.10881760588E+03  0.47000000000E+01 0.  1.
         13    1    4    4    0    0  0.36730948141E+02 -0.44961357185E+02 -0.38039934006E+02  0.69409817537E+02  0.00000000000E+00 0. -1.
        -14    1    4    4    0    0 -0.28794503450E+02 -0.93476254257E+02 -0.12426001676E+03  0.15813755185E+03  0.00000000000E+00 0.  1.
</event>
<event>
12    1  0.8331241E-002  0.1761485E+03  0.7818608E-02  0.1172037E+00
         21   -1    0    0  503  502  0.00000000000E+00  0.00000000000E+00  0.80157035774E+02  0.80157035774E+02  0.00000000000E+00 0.  1.
         21   -1    0    0  501  503 -0.00000000000E+00 -0.00000000000E+00 -0.43493471149E+03  0.43493471149E+03  0.00000000000E+00 0.  1.
          6    2    1    2  501    0  0.19551912166E+02 -0.19354974467E+02 -0.26547248552E+03  0.31759816345E+03  0.17215127230E+03 0.  0.
         24    2    3    3    0    0 -0.36248695905E+02 -0.25851583669E+02 -0.23609110253E+03  0.25402718376E+03  0.82513811361E+02 0.  0.
         -6    2    1    2    0  502 -0.19551912166E+02  0.19354974467E+02 -0.89305190193E+02  0.19749358381E+03  0.17398679934E+03 0.  0.
        -24    2    5    5    0    0  0.43179586668E+02 -0.34532308428E+02 -0.41641816914E+02  0.10192702399E+03  0.74820587226E+02 0.  0.
          5    1    3    3  501    0  0.55800608070E+02  0.64966092029E+01 -0.29381382997E+02  0.63570979692E+02  0.47000000000E+01 0. -1.
        -11    1    4    4    0    0  0.19149446453E+02 -0.32700501037E+02 -0.99327071169E+02  0.10631035290E+03  0.00000000000E+00 0.  1.
         12    1    4    4    0    0 -0.55398142358E+02  0.68489173680E+01 -0.13676403136E+03  0.14771683086E+03  0.00000000000E+00 0. -1.
         -5    1    5    5    0  502 -0.62731498834E+02  0.53887282894E+02 -0.47663373279E+02  0.95566559821E+02  0.47000000000E+01 0.  1.
         11    1    6    6    0    0  0.12140309925E+02 -0.45456996196E+02 -0.49293091889E+02  0.68143484914E+02  0.00000000000E+00 0. -1.
        -12    1    6    6    0    0  0.31039276743E+02  0.10924687768E+02  0.76512749754E+01  0.33783539073E+02  0.00000000000E+00 0.  1.
</event>
<event>
12    1  0.8331241E-002  0.1995866E+03  0.7818608E-02  0.1150351E+00
         21   -1    0    0  503  502  0.00000000000E+00  0.00000000000E+00  0.10323462821E+03  0.10323462821E+03  0.00000000000E+00 0.  1.
         21   -1    0    0  501  503 -0.00000000000E+00 -0.00000000000E+00 -0.38920434342E+03  0.38920434342E+03  0.00000000000E+00 0.  1.
          6    2    1    2  501    0  0.10154491888E+03  0.50581944142E+01 -0.11356109404E+03  0.22963217202E+03  0.17174940020E+03 0.  0.
         24    2    3    3    0    0  0.32485380825E+02  0.48230318375E+02 -0.11820609801E+02  0.99224088622E+02  0.79525023539E+02 0.  0.
         -6    2    1    2    0  502 -0.10154491888E+03 -0.50581944142E+01 -0.17240862117E+03  0.26280679960E+03  0.17031067314E+03 0.  0.
        -24    2    5    5    0    0 -0.12674783766E+03 -0.36767165488E+02 -0.15403470580E+03  0.21808167549E+03  0.80100485526E+02 0.  0.
          5    1    3    3  501    0  0.69059538055E+02 -0.43172123960E+02 -0.10174048424E+03  0.13040808340E+03  0.47000000000E+01 0. -1.
        -13    1    4    4    0    0  0.42791824447E+02  0.28163627704E+02  0.24251733540E+02  0.56678715093E+02  0.00000000000E+00 0.  1.
         14    1    4    4    0    0 -0.10306443622E+02  0.20066690671E+02 -0.36072343341E+02  0.42545373529E+02  0.00000000000E+00 0. -1.
         -5    1    5    5    0  502  0.25202918781E+02  0.31708971074E+02 -0.18373915362E+02  0.44725124118E+02  0.47000000000E+01 0.  1.
         11    1    6    6    0    0 -0.52523073761E+02  0.84000242705E+00 -0.12653810454E+02  0.54032377334E+02  0.00000000000E+00 0. -1.
        -12    1    6    6    0    0 -0.74224763900E+02 -0.37607167915E+02 -0.14138089535E+03  0.16404929815E+03  0.00000000000E+00 0.  1.
</event>
<event>
12    1  0.8331241E-002  0.1977228E+03  0.7818608E-02  0.1151832E+00
         21   -1    0    0  503  502  0.00000000000E+00  0.00000000000E+00  0.41837466115E+03  0.41837466115E+03  0.00000000000E+00 0.  1.
         21   -1    0    0  501  503 -0.00000000000E+00 -0.00000000000E+00 -0.37055107041E+03  0.37055107041E+03  0.00000000000E+00 0.  1.
          6    2    1    2  501    0 -0.28173817350E+01  0.98016961050E+02 -0.31743150520E+03  0.37358779346E+03  0.17085027547E+03 0.  0.
         24    2    3    3    0    0  0.11856675759E+02  0.12192996974E+03 -0.31215408649E+03  0.34465509403E+03  0.79620737526E+02 0.  0.
         -6    2    1    2    0  502  0.28173817350E+01 -0.98016961050E+02  0.36525509594E+03  0.41533793811E+03  0.17169465755E+03 0.  0.
        -24    2    5    5    0    0  0.42351105920E+02 -0.94750907142E+01  0.11212780631E+03  0.14423262111E+03  0.79668127426E+02 0.  0.
          5    1    3    3  501    0 -0.14674057494E+02 -0.23913008691E+02 -0.52774187126E+01  0.28932699429E+02  0.47000000000E+01 0. -1.
        -11    1    4    4    0    0 -0.30830745633E+02  0.39538036212E+02 -0.77328322619E+02  0.92159973214E+02  0.00000000000E+00 0.  1.
         12    1    4    4    0    0  0.42687421392E+02  0.82391933529E+02 -0.23482576387E+03  0.25249512081E+03  0.00000000000E+00 0. -1.
         -5    1    5    5    0  502 -0.39533724185E+02 -0.88541870336E+02  0.25312728963E+03  0.27110531700E+03  0.47000000000E+01 0.  1.
         11    1    6    6    0    0 -0.73059651578E+01 -0.98292554715E+01 -0.77385564385E+01  0.14487119995E+02  0.00000000000E+00 0. -1.
        -12    1    6    6    0    0  0.49657071078E+02  0.35416475724E+00  0.11986636275E+03  0.12974550112E+03  0.00000000000E+00 0.  1.
</event>
<event>
12    1  0.8331241E-002  0.1958066E+03  0.7818608E-02  0.1156121E+00
         21   -1    0    0  503  502  0.00000000000E+00  0.00000000000E+00  0.40484735035E+03  0.40484735035E+03  0.00000000000E+00 0.  1.
         21   -1    0    0  501  503 -0.00000000000E+00 -0.00000000000E+00 -0.22005559858E+03  0.22005559858E+03  0.00000000000E+00 0.  1.
          6    2    1    2  501    0  0.75444138168E+02 -0.54985501609E+02 -0.14765707625E+03  0.24524039686E+03  0.17211919333E+03 0.  0.
         24    2    3    3    0    0  0.37309904990E+02  0.33071932462E+02 -0.11482236301E+03  0.14370941721E+03  0.70586399677E+02 0.  0.
         -6    2    1    2    0  502 -0.75444138168E+02  0.54985501609E+02  0.33244882802E+03  0.37966255207E+03  0.15781700422E+03 0.  0.
        -24    2    5    5    0    0 -0.31664228870E+02  0.83265321241E+02  0.28520198014E+03  0.30915876997E+03  0.79392937082E+02 0.  0.
          5    1    3    3  501    0  0.38134233177E+02 -0.88057434071E+02 -0.32834713233E+02  0.10153097965E+03  0.47000000000E+01 0. -1.
        -11    1    4    4    0    0  0.31927205471E+02 -0.53406289973E+00 -0.99397715953E+01  0.33442947414E+02  0.00000000000E+00 0.  1.
         12    1    4    4    0    0  0.53826995191E+01  0.33605995361E+02 -0.10488259142E+03  0.11026646979E+03  0.00000000000E+00 0. -1.
         -5    1    5    5    0  502 -0.43779909298E+02 -0.28279819632E+02  0.47246847878E+02  0.70503782104E+02  0.47000000000E+01 0.  1.
         11    1    6    6    0    0  0.25174606951E+02  0.39015428662E+02  0.13034480721E+03  0.13836810787E+03  0.00000000000E+00 0. -1.
        -12    1    6    6    0    0 -0.56838835821E+02  0.44249892579E+02  0.15485717293E+03  0.17079066210E+03  0.00000000000E+00 0.  1.
</event>
<event>
12    1  0.8331241E-002  0.1736983E+03  0.7818608E-02  0.1174346E+00
         21   -1    0    0  501  502  0.00000000000E+00  0.00000000000E+00  0.50449531392E+03  0.50449531392E+03  0.00000000000E+00 0. -1.
         21   -1    0    0  502  503 -0.00000000000E+00 -0.00000000000E+00 -0.59702208157E+02  0.59702208157E+02  0.00000000000E+00 0. -1.
         -6    2    1    2    0  503  0.23276448730E+01  0.34780059373E+01  0.24178471608E+03  0.29702058970E+03  0.17246410445E+03 0.  0.
        -24    2    3    3    0    0  0.18256174354E+02  0.54264738226E+02  0.21646182099E+03  0.23789065445E+03  0.80363510433E+02 0.  0.
          6    2    1    2  501    0 -0.23276448730E+01 -0.34780059373E+01  0.20300838969E+03  0.26717693238E+03  0.17364789793E+03 0.  0.
         24    2    5    5    0    0  0.39818214860E+02 -0.43055732502E+02  0.18027228564E+03  0.20487371930E+03  0.77690781654E+02 0.  0.
          5    1    5    5  501    0 -0.42145859733E+02  0.39577726565E+02  0.22736104054E+02  0.62303213081E+02  0.47000000000E+01 0. -1.
        -13    1    6    6    0    0 -0.38180129410E+01  0.51511057631E+01 -0.52497065570E+01  0.82867685098E+01  0.00000000000E+00 0.  1.
         14    1    6    6    0    0  0.43636227801E+02 -0.48206838265E+02  0.18552199219E+03  0.19658695079E+03  0.00000000000E+00 0. -1.
         -5    1    3    3    0  503 -0.15928529481E+02 -0.50786732288E+02  0.25322895084E+02  0.59129935256E+02  0.47000000000E+01 0.  1.
         13    1    4    4    0    0 -0.12098392511E+02  0.12989255204E+02  0.25554367363E+01  0.17933825833E+02  0.00000000000E+00 0. -1.
        -14    1    4    4    0    0  0.30354566864E+02  0.41275483021E+02  0.21390638426E+03  0.21995682861E+03  0.00000000000E+00 0.  1.
</event>
<event>
12    1  0.8331241E-002  0.2176270E+03  0.7818608E-02  0.1135734E+00
         21   -1    0    0  501  502  0.00000000000E+00  0.00000000000E+00  0.64605417867E+03  0.64605417867E+03  0.00000000000E+00 0.  1.
         21   -1    0    0  502  503 -0.00000000000E+00 -0.00000000000E+00 -0.11203640347E+03  0.11203640347E+03  0.00000000000E+00 0.  1.
         -6    2    1    2    0  503 -0.24126049135E+02 -0.13235795749E+03  0.43651735391E+02  0.22160167330E+03  0.17059054033E+03 0.  0.
        -24    2    3    3    0    0  0.18295106812E+02 -0.92321952734E+01  0.37280967978E+02  0.91132579370E+02  0.80593623113E+02 0.  0.
          6    2    1    2  501    0  0.24126049135E+02  0.13235795749E+03  0.49036603982E+03  0.53648890884E+03  0.17105788827E+03 0.  0.
         24    2    5    5    0    0  0.75965191873E+02  0.11987149027E+03  0.33492811617E+03  0.37209229484E+03  0.78332294283E+02 0.  0.
          5    1    5    5  501    0 -0.51839142738E+02  0.12486467225E+02  0.15543792365E+03  0.16439661400E+03  0.47000000000E+01 0. -1.
        -13    1    6    6    0    0  0.35347927323E+01  0.70390095953E+02  0.19042060657E+03  0.20304498953E+03  0.00000000000E+00 0.  1.
         14    1    6    6    0    0  0.72430399141E+02  0.49481394315E+02  0.14450750960E+03  0.16904730531E+03  0.00000000000E+00 0. -1.
         -5    1    3    3    0  503 -0.42421155946E+02 -0.12312576222E+03  0.63707674128E+01  0.13046909393E+03  0.47000000000E+01 0.  1.
         11    1    4    4    0    0  0.27262446358E+02 -0.61311859224E-02  0.59505036822E+02  0.65452963464E+02  0.00000000000E+00 0. -1.
        -12    1    4    4    0    0 -0.89673395467E+01 -0.92260640875E+01 -0.22224068844E+02  0.25679615906E+02  0.00000000000E+00 0.  1.
</event>
<event>
12    1  0.8331241E-002  0.2738576E+03  0.7818608E-02  0.1099169E+00
         21   -1    0    0  503  502  0.00000000000E+00  0.00000000000E+00  0.31003854155E+03  0.31003854155E+03  0.00000000000E+00 0. -1.
         21   -1    0    0  501  503 -0.00000000000E+00 -0.00000000000E+00 -0.26714936824E+03  0.26714936824E+03  0.00000000000E+00 0.  1.
          6    2    1    2  501    0  0.99980135327E+02  0.18709735756E+03 -0.68110037470E+02  0.28220025208E+03  0.17319513966E+03 0.  0.
         24    2    3    3    0    0 -0.12529023363E+02  0.84327274394E+02 -0.43471012658E+01  0.11694952495E+03  0.79938904566E+02 0.  0.
         -6    2    1    2    0  502 -0.99980135327E+02 -0.18709735756E+03  0.11099921078E+03  0.29498765771E+03  0.17232366274E+03 0.  0.
        -24    2    5    5    0    0  0.48237090759E+00 -0.40977179733E+02  0.66552199842E+02  0.11211762652E+03  0.80385352716E+02 0.  0.
          5    1    3    3  501    0  0.11250915869E+03  0.10277008316E+03 -0.63762936204E+02  0.16525072713E+03  0.47000000000E+01 0. -1.
        -11    1    4    4    0    0 -0.26563749389E+02  0.72737785093E+02 -0.32046082158E+02  0.83805546019E+02  0.00000000000E+00 0.  1.
         12    1    4    4    0    0  0.14034726026E+02  0.11589489301E+02  0.27698980892E+02  0.33143978930E+02  0.00000000000E+00 0. -1.
         -5    1    5    5    0  502 -0.10046250623E+03 -0.14612017783E+03  0.44447010937E+02  0.18287003119E+03  0.47000000000E+01 0.  1.
         13    1    6    6    0    0 -0.36918906676E+02 -0.38702724554E+01  0.22231371031E+02  0.43269140701E+02  0.00000000000E+00 0. -1.
        -14    1    6    6    0    0  0.37401277584E+02 -0.37106907278E+02  0.44320828811E+02  0.68848485816E+02  0.00000000000E+00 0.  1.
</event>
<event>
12    1  0.8331241E-002  0.2310353E+03  0.7818608E-02  0.1126208E+00
         21   -1    0    0  503  502  0.00000000000E+00  0.00000000000E+00  0.55264253443E+03  0.55264253443E+03  0.00000000000E+00 0. -1.
         21   -1    0    0  501  503 -0.00000000000E+00 -0.00000000000E+00 -0.97839813568E+02  0.97839813568E+02  0.00000000000E+00 0.  1.
          6    2    1    2  501    0  0.55215113718E+02 -0.14303621768E+03  0.27418916423E+03  0.35854848993E+03  0.17282723599E+03 0.  0.
         24    2    3    3    0    0  0.37240267497E+01 -0.21868422230E+02  0.47109839534E+02  0.96022155259E+02  0.80677264788E+02 0.  0.
         -6    2    1    2    0  502 -0.55215113718E+02  0.14303621768E+03  0.18061355663E+03  0.29193385807E+03  0.17057564977E+03 0.  0.
        -24    2    5    5    0    0 -0.50027120193E+02  0.37782888269E+02  0.15290679429E+03  0.18286996254E+03  0.78298633805E+02 0.  0.
          5    1    3    3  501    0  0.51491086969E+02 -0.12116779545E+03  0.22707932470E+03  0.26252633467E+03  0.47000000000E+01 0. -1.
        -11    1    4    4    0    0  0.30289170223E+02 -0.40771208790E+02  0.32464396121E+02  0.60279866577E+02  0.00000000000E+00 0.  1.
         12    1    4    4    0    0 -0.26565143473E+02  0.18902786560E+02  0.14645443413E+02  0.35742288683E+02  0.00000000000E+00 0. -1.
         -5    1    5    5    0  502 -0.51879935251E+01  0.10525332941E+03  0.27706762341E+02  0.10906389553E+03  0.47000000000E+01 0.  1.
         13    1    6    6    0    0 -0.24225414064E+02  0.60799283355E+02  0.10642145875E+03  0.12493578520E+03  0.00000000000E+00 0. -1.
        -14    1    6    6    0    0 -0.25801706130E+02 -0.23016395087E+02  0.46485335548E+02  0.57934177331E+02  0.00000000000E+00 0.  1.
</event>
<event>
12    1  0.8331241E-002  0.2399997E+03  0.7818608E-02  0.1119806E+00
         21   -1    0    0  501  502  0.00000000000E+00  0.00000000000E+00  0.11262841583E+04  0.11262841583E+04  0.00000000000E+00 0.  1.
         21   -1    0    0  502  503 -0.00000000000E+00 -0.00000000000E+00 -0.80814155456E+02  0.80814155456E+02  0.00000000000E+00 0. -1.
         -6    2    1    2    0  503 -0.69544418863E+02  0.15133592281E+03  0.15696617474E+03  0.28677210574E+03  0.17280298865E+03 0.  0.
        -24    2    3    3    0    0 -0.64601785987E+02  0.64453114869E+02  0.19082045459E+02  0.12365504640E+03  0.81233313816E+02 0.  0.
          6    2    1    2  501    0  0.69544418863E+02 -0.15133592281E+03  0.88850382815E+03  0.92032620807E+03  0.17269131100E+03 0.  0.
         24    2    5    5    0    0 -0.16513739281E+02 -0.81721453347E+02  0.29805741014E+03  0.31957564130E+03  0.79619540608E+02 0.  0.
          5    1    5    5  501    0  0.86058158144E+02 -0.69614469468E+02  0.59044641800E+03  0.60075056677E+03  0.47000000000E+01 0. -1.
        -13    1    6    6    0    0 -0.17896184829E+02 -0.70245890902E+02  0.29929739134E+03  0.30795078678E+03  0.00000000000E+00 0.  1.
         14    1    6    6    0    0  0.13824455480E+01 -0.11475562445E+02 -0.12399811915E+01  0.11624854514E+02  0.00000000000E+00 0. -1.
         -5    1    3    3    0  503 -0.49426328762E+01  0.86882807945E+02  0.13788412928E+03  0.16311705933E+03  0.47000000000E+01 0.  1.
         11    1    4    4    0    0  0.13279124889E+02  0.37423898518E+02  0.73975608656E+01  0.40393158392E+02  0.00000000000E+00 0. -1.
        -12    1    4    4    0    0 -0.77880910875E+02  0.27029216351E+02  0.11684484594E+02  0.83261888013E+02  0.00000000000E+00 0.  1.
</event>
<event>
12    1  0.8331241E-002  0.1854280E+03  0.7818608E-02  0.1162764E+00
         21   -1    0    0  503  502  0.00000000000E+00  0.00000000000E+00  0.75567575296E+03  0.75567575296E+03  0.00000000000E+00 0. -1.
         21   -1    0    0  501  503 -0.00000000000E+00 -0.00000000000E+00 -0.47380065210E+02  0.47380065210E+02  0.00000000000E+00 0.  1.
          6    2    1    2  501    0 -0.66525114527E+02  0.32414803797E+01  0.43616572078E+03  0.47375614436E+03  0.17253477990E+03 0.  0.
         24    2    3    3    0    0 -0.66821249855E+02 -0.59348798605E+02  0.32571448023E+03  0.34671600402E+03  0.78324360707E+02 0.  0.
         -6    2    1    2    0  502  0.66525114527E+02 -0.32414803797E+01  0.27212996697E+03  0.32929967381E+03  0.17305333915E+03 0.  0.
        -24    2    5    5    0    0  0.49976471590E+02 -0.26656932924E+02  0.60895235594E+02  0.11607598202E+03  0.80976318138E+02 0.  0.
          5    1    3    3  501    0  0.29613532755E+00  0.62590278985E+02  0.11045124055E+03  0.12704014034E+03  0.47000000000E+01 0. -1.
        -11    1    4    4    0    0 -0.28534471676E+02 -0.28893518947E+02  0.26798829729E+03  0.27104755855E+03  0.00000000000E+00 0.  1.
         12    1    4    4    0    0 -0.38286778178E+02 -0.30455279658E+02  0.57726182941E+02  0.75668445466E+02  0.00000000000E+00 0. -1.
         -5    1    5    5    0  502  0.16548642937E+02  0.23415452544E+02  0.21123473138E+03  0.21322369179E+03  0.47000000000E+01 0.  1.
         13    1    6    6    0    0  0.87946752737E+01 -0.49277148368E+02  0.20418970217E+02  0.54060318248E+02  0.00000000000E+00 0. -1.
        -14    1    6    6    0    0  0.41181796316E+02  0.22620215444E+02  0.40476265378E+02  0.62015663775E+02  0.00000000000E+00 0.  1.
</event>
<event>
12    1  0.8331241E-002  0.4225264E+03  0.7818608E-02  0.1036401E+00
         21   -1    0    0  503  502  0.00000000000E+00  0.00000000000E+00  0.43211164571E+03  0.43211164571E+03  0.00000000000E+00 0.  1.
         21   -1    0    0  501  503 -0.00000000000E+00 -0.00000000000E+00 -0.41281061531E+03  0.41281061531E+03  0.00000000000E+00 0. -1.
          6    2    1    2  501    0  0.70515288375E+02  0.37875469198E+03 -0.15916284922E+02  0.42282605088E+03  0.17349645122E+03 0.  0.
         24    2    3    3    0    0  0.31361279338E+02  0.18011403296E+03 -0.73715417293E+02  0.21222221060E+03  0.78611126521E+02 0.  0.
         -6    2    1    2    0  502 -0.70515288375E+02 -0.37875469198E+03  0.35217315316E+02  0.42209621014E+03  0.16881181454E+03 0.  0.
        -24    2    5    5    0    0  0.51296313295E+01 -0.96650023222E+02  0.35049072983E+02  0.12998781191E+03  0.79377916468E+02 0.  0.
          5    1    3    3  501    0  0.39154009037E+02  0.19864065901E+03  0.57799132371E+02  0.21060384028E+03  0.47000000000E+01 0. -1.
        -11    1    4    4    0    0  0.33304218397E+02  0.21795270724E+02 -0.22988736580E+02  0.45963972832E+02  0.00000000000E+00 0.  1.
         12    1    4    4    0    0 -0.19429390590E+01  0.15831876224E+03 -0.50726680713E+02  0.16625823777E+03  0.00000000000E+00 0. -1.
         -5    1    5    5    0  502 -0.75644919704E+02 -0.28210466875E+03  0.16824233274E+00  0.29210839823E+03  0.47000000000E+01 0.  1.
         13    1    6    6    0    0  0.88287715389E+01  0.43139300579E+01 -0.14455870621E+02  0.17479399155E+02  0.00000000000E+00 0. -1.
        -14    1    6    6    0    0 -0.36991402094E+01 -0.10096395328E+03  0.49504943604E+02  0.11250841276E+03  0.00000000000E+00 0.  1.
</event>
<event>
12    1  0.8331241E-002  0.2075772E+03  0.7818608E-02  0.1144182E+00
         21   -1    0    0  503  502  0.00000000000E+00  0.00000000000E+00  0.53374550278E+02  0.53374550278E+02  0.00000000000E+00 0.  1.
         21   -1    0    0  501  503 -0.00000000000E+00 -0.00000000000E+00 -0.80428060032E+03  0.80428060032E+03  0.00000000000E+00 0.  1.
          6    2    1    2  501    0  0.10933801799E+03 -0.19096973900E+02 -0.33054272845E+03  0.39031628215E+03  0.17541039930E+03 0.  0.
         24    2    3    3    0    0  0.14641950631E+03 -0.64772673417E+01 -0.23853069047E+03  0.29020335140E+03  0.76422954950E+02 0.  0.
         -6    2    1    2    0  502 -0.10933801799E+03  0.19096973900E+02 -0.42036332159E+03  0.46733886845E+03  0.17140828230E+03 0.  0.
        -24    2    5    5    0    0 -0.31597489486E+02  0.34192237111E+01 -0.76941243276E+02  0.11484745651E+03  0.79119472425E+02 0.  0.
          5    1    3    3  501    0 -0.37081488319E+02 -0.12619706559E+02 -0.92012037981E+02  0.10011293075E+03  0.47000000000E+01 0. -1.
        -13    1    4    4    0    0  0.70458848668E+02 -0.27653098325E+02 -0.16857730931E+03  0.18479029308E+03  0.00000000000E+00 0.  1.
         14    1    4    4    0    0  0.75960657644E+02  0.21175830984E+02 -0.69953381168E+02  0.10541305832E+03  0.00000000000E+00 0. -1.
         -5    1    5    5    0  502 -0.77740528508E+02  0.15677750189E+02 -0.34342207831E+03  0.35249141195E+03  0.47000000000E+01 0.  1.
         13    1    6    6    0    0  0.94900572440E+01  0.24592443111E+02 -0.60145446712E+02  0.65668289188E+02  0.00000000000E+00 0. -1.
        -14    1    6    6    0    0 -0.41087546730E+02 -0.21173219400E+02 -0.16795796565E+02  0.49179167320E+02  0.00000000000E+00 0.  1.
</event>
<event>
12    1  0.8331241E-002  0.3322005E+03  0.7818608E-02  0.1070255E+00
         21   -1    0    0  501  502  0.00000000000E+00  0.00000000000E+00  0.14922057831E+03  0.14922057831E+03  0.00000000000E+00 0. -1.
         21   -1    0    0  502  503 -0.00000000000E+00 -0.00000000000E+00 -0.15626854437E+04  0.15626854437E+04  0.00000000000E+00 0.  1.
         -6    2    1    2    0  503  0.30036277844E+02 -0.28216993222E+03 -0.13282244945E+04  0.13689437444E+04  0.17118591868E+03 0.  0.
        -24    2    3    3    0    0  0.43928811042E+02 -0.20414719177E+03 -0.11776200465E+04  0.11986958655E+04  0.80479734175E+02 0.  0.
          6    2    1    2  501    0 -0.30036277844E+02  0.28216993222E+03 -0.85240370798E+02  0.34296227757E+03  0.17272855694E+03 0.  0.
         24    2    5    5    0    0 -0.29705997733E+02  0.30061830189E+03 -0.73102399623E+02  0.32038193717E+03  0.77761269931E+02 0.  0.
          5    1    5    5  501    0 -0.33028011182E+00 -0.18448369666E+02 -0.12137971175E+02  0.22580340399E+02  0.47000000000E+01 0. -1.
        -11    1    6    6    0    0 -0.54322612690E+01  0.26598611658E+03 -0.79368647983E+02  0.27762835943E+03  0.00000000000E+00 0.  1.
         12    1    6    6    0    0 -0.24273736464E+02  0.34632185310E+02  0.62662483594E+01  0.42753577742E+02  0.00000000000E+00 0. -1.
         -5    1    3    3    0  503 -0.13892533198E+02 -0.78022740452E+02 -0.15060444801E+03  0.17024787889E+03  0.47000000000E+01 0.  1.
         13    1    4    4    0    0  0.21511246974E+02 -0.15617948096E+02 -0.69140385423E+02  0.74074603918E+02  0.00000000000E+00 0. -1.
        -14    1    4    4    0    0  0.22417564068E+02 -0.18852924368E+03 -0.11084796611E+04  0.11246212616E+04  0.00000000000E+00 0.  1.
</event>
<event>
12    1  0.8331241E-002  0.1821027E+03  0.7818608E-02  0.1165896E+00
         21   -1    0    0  501  502  0.00000000000E+00  0.00000000000E+00  0.10283785459E+04  0.10283785459E+04  0.00000000000E+00 0. -1.
         21   -1    0    0  502  503 -0.00000000000E+00 -0.00000000000E+00 -0.14610529805E+03  0.14610529805E+03  0.00000000000E+00 0. -1.
         -6    2    1    2    0  503 -0.57779424035E+02 -0.16815159343E+02 -0.77330444038E+02  0.19784184723E+03  0.17187259094E+03 0.  0.
        -24    2    3    3    0    0 -0.80736029020E+02 -0.90758694918E+01  0.25680136127E+01  0.11421914783E+03  0.80241767483E+02 0.  0.
          6    2    1    2  501    0  0.57779424035E+02  0.16815159343E+02  0.95960369185E+03  0.97664199668E+03  0.17137424791E+03 0.  0.
         24    2    5    5    0    0  0.26445032883E+02 -0.26348070284E+02  0.84987832572E+03  0.85454918595E+03  0.81040620076E+02 0.  0.
          5    1    5    5  501    0  0.31334391152E+02  0.43163229627E+02  0.10972536613E+03  0.12209281073E+03  0.47000000000E+01 0. -1.
        -13    1    6    6    0    0 -0.28082574925E+02 -0.19193503871E+02  0.35409072769E+03  0.35572076836E+03  0.00000000000E+00 0.  1.
         14    1    6    6    0    0  0.54527607809E+02 -0.71545664132E+01  0.49578759803E+03  0.49882841759E+03  0.00000000000E+00 0. -1.
         -5    1    3    3    0  503  0.22956604984E+02 -0.77392898513E+01 -0.79898457651E+02  0.83622699399E+02  0.47000000000E+01 0.  1.
         11    1    4    4    0    0 -0.95828835361E+02  0.12489684045E+01  0.35894535040E+01  0.95904169801E+02  0.00000000000E+00 0. -1.
        -12    1    4    4    0    0  0.15092806341E+02 -0.10324837896E+02 -0.10214398913E+01  0.18314978032E+02  0.00000000000E+00 0.  1.
</event>
<event>
12    1  0.8331241E-002  0.2068221E+03  0.7818608E-02  0.1144156E+00
         21   -1    0    0  501  502  0.00000000000E+00  0.00000000000E+00  0.12512949127E+03  0.12512949127E+03  0.00000000000E+00 0.  1.
         21   -1    0    0  502  503 -0.00000000000E+00 -0.00000000000E+00 -0.12903605693E+04  0.12903605693E+04  0.00000000000E+00 0.  1.
         -6    2    1    2    0  503 -0.77145812858E+00 -0.11409999785E+03 -0.11896287243E+04  0.12074733469E+04  0.17249920895E+03 0.  0.
        -24    2    3    3    0    0  0.37965420971E+02 -0.81532080269E+02 -0.45634355337E+03  0.47242882648E+03  0.82768980230E+02 0.  0.
          6    2    1    2  501    0  0.77145812858E+00  0.11409999785E+03  0.24397646338E+02  0.20801671362E+03  0.17221005586E+03 0.  0.
         24    2    5    5    0    0 -0.35254216107E+02  0.12346746844E+03 -0.18962746414E+02  0.15067726499E+03  0.76530888651E+02 0.  0.
          5    1    5    5  501    0  0.36025674235E+02 -0.93674705859E+01  0.43360392752E+02  0.57339448627E+02  0.47000000000E+01 0. -1.
        -11    1    6    6    0    0  0.16234654229E+02  0.69014100309E+02  0.72865842426E+01  0.71271343114E+02  0.00000000000E+00 0.  1.
         12    1    6    6    0    0 -0.51488870336E+02  0.54453368129E+02 -0.26249330657E+02  0.79405921876E+02  0.00000000000E+00 0. -1.
         -5    1    3    3    0  503 -0.38736879099E+02 -0.32567917583E+02 -0.73328517097E+03  0.73504452044E+03  0.47000000000E+01 0.  1.
         11    1    4    4    0    0  0.25625854726E+02 -0.36241852890E+02 -0.67653014079E+02  0.80914069514E+02  0.00000000000E+00 0. -1.
        -12    1    4    4    0    0  0.12339566245E+02 -0.45290227379E+02 -0.38869053929E+03  0.39151475697E+03  0.00000000000E+00 0.  1.
</event>
<event>
12    1  0.8331241E-002  0.1898179E+03  0.7818608E-02  0.1158938E+00
         21   -1    0    0  501  502  0.00000000000E+00  0.00000000000E+00  0.98326784821E+02  0.98326784821E+02  0.00000000000E+00 0. -1.
         21   -1    0    0  502  503 -0.00000000000E+00 -0.00000000000E+00 -0.38668711705E+03  0.38668711705E+03  0.00000000000E+00 0. -1.
         -6    2    1    2    0  503 -0.73206072002E+02 -0.28303071938E+02 -0.85656388407E+02  0.20824951167E+03  0.17283127430E+03 0.  0.
        -24    2    3    3    0    0 -0.89528267859E+02 -0.54192079727E+02 -0.16947957135E+02  0.13288643497E+03  0.80121651862E+02 0.  0.
          6    2    1    2  501    0  0.73206072002E+02  0.28303071938E+02 -0.20270394382E+03  0.27676439020E+03  0.17131680006E+03 0.  0.
         24    2    5    5    0    0 -0.15003480498E+02  0.11996792241E+02 -0.16549554757E+03  0.17953592389E+03  0.66898013792E+02 0.  0.
          5    1    5    5  501    0  0.88209552500E+02  0.16306279697E+02 -0.37208396250E+02  0.97228466312E+02  0.47000000000E+01 0. -1.
        -11    1    6    6    0    0  0.64592295043E+01 -0.82806950572E+01 -0.14038017105E+03  0.14077245462E+03  0.00000000000E+00 0.  1.
         12    1    6    6    0    0 -0.21462710002E+02  0.20277487298E+02 -0.25115376524E+02  0.38763469268E+02  0.00000000000E+00 0. -1.
         -5    1    3    3    0  503  0.16322195857E+02  0.25889007790E+02 -0.68708431273E+02  0.75363076701E+02  0.47000000000E+01 0.  1.
         11    1    4    4    0    0 -0.65995605389E+02  0.18049941040E+01 -0.26984159979E+02  0.71321965930E+02  0.00000000000E+00 0. -1.
        -12    1    4    4    0    0 -0.23532662470E+02 -0.55997073831E+02  0.10036202845E+02  0.61564469039E+02  0.00000000000E+00 0.  1.
</event>
<event>
12    1  0.8331241E-002  0.1989172E+03  0.7818608E-02  0.1151519E+00
         21   -1    0    0  501  502  0.00000000000E+00  0.00000000000E+00  0.44269738187E+03  0.44269738187E+03  0.00000000000E+00 0.  1.
         21   -1    0    0  502  503 -0.00000000000E+00 -0.00000000000E+00 -0.10676262021E+03  0.10676262021E+03  0.00000000000E+00 0.  1.
         -6    2    1    2    0  503  0.69938010276E+02  0.60431562476E+02  0.50119925260E+02  0.20123857830E+03  0.17158572046E+03 0.  0.
        -24    2    3    3    0    0  0.25584364600E+02 -0.27799210808E+02  0.54779284655E+02  0.10226527448E+03  0.77653464215E+02 0.  0.
          6    2    1    2  501    0 -0.69938010276E+02 -0.60431562476E+02  0.28581483640E+03  0.34822142377E+03  0.17613841217E+03 0.  0.
         24    2    5    5    0    0 -0.43892666080E+02 -0.67644255403E+02  0.29240593334E+03  0.32000945021E+03  0.10199268084E+03 0.  0.
          5    1    5    5  501    0 -0.26045344196E+02  0.72126929273E+01 -0.65910969387E+01  0.28211973564E+02  0.47000000000E+01 0. -1.
        -11    1    6    6    0    0 -0.74868358975E+02 -0.47285540053E+02  0.24003867085E+03  0.25585104451E+03  0.00000000000E+00 0.  1.
         12    1    6    6    0    0  0.30975692895E+02 -0.20358715350E+02  0.52367262494E+02  0.64158405701E+02  0.00000000000E+00 0. -1.
         -5    1    3    3    0  503  0.44353645676E+02  0.88230773284E+02 -0.46593593944E+01  0.98973303820E+02  0.47000000000E+01 0.  1.
         13    1    4    4    0    0 -0.99441905683E+01  0.76068256154E+01  0.50382189278E+02  0.51914503931E+02  0.00000000000E+00 0. -1.
        -14    1    4    4    0    0  0.35528555168E+02 -0.35406036423E+02  0.43970953770E+01  0.50350770553E+02  0.00000000000E+00 0.  1.
</event>
<event>
12    1  0.8331241E-002  0.1932074E+03  0.7818608E-02  0.1156683E+00
         21   -1    0    0  501  502  0.00000000000E+00  0.00000000000E+00  0.88051953284E+02  0.88051953284E+02  0.00000000000E+00 0. -1.
         21   -1    0    0  502  503 -0.00000000000E+00 -0.00000000000E+00 -0.14017579544E+04  0.14017579544E+04  0.00000000000E+00 0. -1.
         -6    2    1    2    0  503  0.48777908883E+02 -0.76446544992E+02 -0.12847950256E+04  0.12992410718E+04  0.17060406295E+03 0.  0.
        -24    2    3    3    0    0  0.45877072753E+02 -0.15745678416E+02 -0.34150657444E+03  0.35398544390E+03  0.79538178956E+02 0.  0.
          6    2    1    2  501    0 -0.48777908883E+02  0.76446544992E+02 -0.28910975513E+02  0.19056883585E+03  0.16509778332E+03 0.  0.
         24    2    5    5    0    0  0.65191446174E+01  0.24685883631E+02 -0.66065496145E+02  0.10607340051E+03  0.78962170797E+02 0.  0.
          5    1    5    5  501    0 -0.55297053500E+02  0.51760661361E+02  0.37154520632E+02  0.84495435343E+02  0.47000000000E+01 0. -1.
        -13    1    6    6    0    0 -0.15355538831E+02  0.18280867918E+02 -0.77127296731E+02  0.80737863519E+02  0.00000000000E+00 0.  1.
         14    1    6    6    0    0  0.21874683449E+02  0.64050157126E+01  0.11061800585E+02  0.25335536988E+02  0.00000000000E+00 0. -1.
         -5    1    3    3    0  503  0.29008361299E+01 -0.60700866576E+02 -0.94328845114E+03  0.94525562791E+03  0.47000000000E+01 0.  1.
         11    1    4    4    0    0  0.86887295655E+01 -0.22637358512E+02 -0.28475600588E+03  0.28578650581E+03  0.00000000000E+00 0. -1.
        -12    1    4    4    0    0  0.37188343188E+02  0.68916800965E+01 -0.56750568569E+02  0.68198938089E+02  0.00000000000E+00 0.  1.
</event>
<event>
12    1  0.8331241E-002  0.3255457E+03  0.7818608E-02  0.1073297E+00
         21   -1    0    0  503  502  0.00000000000E+00  0.00000000000E+00  0.73672215841E+03  0.73672215841E+03  0.00000000000E+00 0.  1.
         21   -1    0    0  501  503 -0.00000000000E+00 -0.00000000000E+00 -0.18266756378E+03  0.18266756378E+03  0.00000000000E+00 0. -1.
          6    2    1    2  501    0 -0.24507014190E+02 -0.27372441137E+03  0.49024953193E+03  0.58765024652E+03  0.17164661826E+03 0.  0.
         24    2    3    3    0    0 -0.19956715585E+02 -0.28419110182E+03  0.49292137143E+03  0.57502148757E+03  0.80717903253E+02 0.  0.
         -6    2    1    2    0  502  0.24507014190E+02  0.27372441137E+03  0.63805062703E+02  0.33173947566E+03  0.17451173760E+03 0.  0.
        -24    2    5    5    0    0  0.50955691041E+02  0.28087445400E+03  0.67985247896E+02  0.30362863140E+03  0.77983398969E+02 0.  0.
          5    1    3    3  501    0 -0.45502986057E+01  0.10466690449E+02 -0.26718395044E+01  0.12628758953E+02  0.47000000000E+01 0. -1.
        -13    1    4    4    0    0 -0.11475574693E+02 -0.77421736701E+02  0.21289217115E+03  0.22682347909E+03  0.00000000000E+00 0.  1.
         14    1    4    4    0    0 -0.84811408915E+01 -0.20676936512E+03  0.28002920028E+03  0.34819800848E+03  0.00000000000E+00 0. -1.
         -5    1    5    5    0  502 -0.26448676850E+02 -0.71500426300E+01 -0.41801851934E+01  0.28110844260E+02  0.47000000000E+01 0.  1.
         11    1    6    6    0    0  0.58846615559E+02  0.13831743032E+03  0.55786087168E+02  0.16033316318E+03  0.00000000000E+00 0. -1.
        -12    1    6    6    0    0 -0.78909245183E+01  0.14255702368E+03  0.12199160728E+02  0.14329546822E+03  0.00000000000E+00 0.  1.
</event>
<event>
12    1  0.8331241E-002  0.2453653E+03  0.7818608E-02  0.1116427E+00
         21   -1    0    0  503  502  0.00000000000E+00  0.00000000000E+00  0.70806120915E+03  0.70806120915E+03  0.00000000000E+00 0.  1.
         21   -1    0    0  501  503 -0.00000000000E+00 -0.00000000000E+00 -0.88921251398E+02  0.88921251398E+02  0.00000000000E+00 0.  1.
          6    2    1    2  501    0 -0.15412314894E+02  0.17623917232E+03  0.22206863524E+03  0.33021722562E+03  0.16861539676E+03 0.  0.
         24    2    3    3    0    0 -0.74348836858E+02  0.12307370612E+03  0.13101296626E+03  0.20933172081E+03  0.77333597688E+02 0.  0.
         -6    2    1    2    0  502  0.15412314894E+02 -0.17623917232E+03  0.39707132251E+03  0.46676523493E+03  0.17001871682E+03 0.  0.
        -24    2    5    5    0    0  0.24463917339E+02 -0.18321960203E+03  0.26630172496E+03  0.33541290130E+03  0.86123747148E+02 0.  0.
          5    1    3    3  501    0  0.58936521964E+02  0.53165466203E+02  0.91055668980E+02  0.12088550480E+03  0.47000000000E+01 0. -1.
        -11    1    4    4    0    0 -0.29263223083E+02  0.95144355669E+02  0.11864676777E+03  0.15487362637E+03  0.00000000000E+00 0.  1.
         12    1    4    4    0    0 -0.45085613775E+02  0.27929350449E+02  0.12366198486E+02  0.54458094448E+02  0.00000000000E+00 0. -1.
         -5    1    5    5    0  502 -0.90516024447E+01  0.69804297115E+01  0.13076959755E+03  0.13135233363E+03  0.47000000000E+01 0.  1.
         11    1    6    6    0    0  0.38856900037E+02 -0.28226551143E+02  0.56081007047E+02  0.73835467232E+02  0.00000000000E+00 0. -1.
        -12    1    6    6    0    0 -0.14392982699E+02 -0.15499305089E+03  0.21022071791E+03  0.26157743407E+03  0.00000000000E+00 0.  1.
</event>
<event>
12    1  0.8331241E-002  0.2910029E+03  0.7818608E-02  0.1089964E+00
         21   -1    0    0  503  502  0.00000000000E+00  0.00000000000E+00  0.27766605845E+03  0.27766605845E+03  0.00000000000E+00 0. -1.
         21   -1    0    0  501  503 -0.00000000000E+00 -0.00000000000E+00 -0.46621907924E+03  0.46621907924E+03  0.00000000000E+00 0. -1.
          6    2    1    2  501    0  0.42625652990E+02 -0.22919737784E+03 -0.31387233600E+03  0.42801700581E+03  0.17416753327E+03 0.  0.
         24    2    3    3    0    0  0.38868727015E+02 -0.14448799788E+03 -0.98467751044E+02  0.19647647206E+03  0.80743709381E+02 0.  0.
         -6    2    1    2    0  502 -0.42625652990E+02  0.22919737784E+03  0.12531931522E+03  0.31586813189E+03  0.17239304415E+03 0.  0.
        -24    2    5    5    0    0 -0.41783504022E+02  0.89650446751E+02 -0.58330854319E+00  0.12785851548E+03  0.81020959756E+02 0.  0.
          5    1    3    3  501    0  0.37569259752E+01 -0.84709379960E+02 -0.21540458496E+03  0.23154053375E+03  0.47000000000E+01 0. -1.
        -13    1    4    4    0    0 -0.25247535848E+02 -0.38406682591E+02 -0.23572410462E+02  0.51654330593E+02  0.00000000000E+00 0.  1.
         14    1    4    4    0    0  0.64116262863E+02 -0.10608131529E+03 -0.74895340582E+02  0.14482214147E+03  0.00000000000E+00 0. -1.
         -5    1    5    5    0  502 -0.84214896762E+00  0.13954693109E+03  0.12590262376E+03  0.18800961641E+03  0.47000000000E+01 0.  1.
         13    1    6    6    0    0 -0.61954376155E+02  0.59525698040E+02  0.16973187994E+02  0.87577066419E+02  0.00000000000E+00 0. -1.
        -14    1    6    6    0    0  0.20170872132E+02  0.30124748711E+02 -0.17556496538E+02  0.40281449057E+02  0.00000000000E+00 0.  1.
</event>
<event>
12    1  0.8331241E-002  0.3137433E+03  0.7818608E-02  0.1078684E+00
         21   -1    0    0  501  502  0.00000000000E+00  0.00000000000E+00  0.19279342604E+03  0.19279342604E+03  0.00000000000E+00 0.  1.
         21   -1    0    0  502  503 -0.00000000000E+00 -0.00000000000E+00 -0.70658359461E+03  0.70658359461E+03  0.00000000000E+00 0. -1.
         -6    2    1    2    0  503  0.55639914369E+02 -0.25487667734E+03 -0.19359338437E+02  0.31433998250E+03  0.17428975842E+03 0.  0.
        -24    2    3    3    0    0 -0.49205706926E+00 -0.46727496193E+02  0.23492061368E+02  0.94487276591E+02  0.78690961804E+02 0.  0.
          6    2    1    2  501    0 -0.55639914369E+02  0.25487667734E+03 -0.49443083013E+03  0.58503703815E+03  0.17247773624E+03 0.  0.
         24    2    5    5    0    0 -0.66352536575E+02  0.14248444041E+03 -0.18807953316E+03  0.25850988407E+03  0.82152142387E+02 0.  0.
          5    1    5    5  501    0  0.10712622206E+02  0.11239223694E+03 -0.30635129697E+03  0.32652715408E+03  0.47000000000E+01 0. -1.
        -13    1    6    6    0    0 -0.30641669696E+02  0.12482879605E+03 -0.17385417503E+03  0.21620919135E+03  0.00000000000E+00 0.  1.
         14    1    6    6    0    0 -0.35710866879E+02  0.17655644352E+02 -0.14225358124E+02  0.42300692719E+02  0.00000000000E+00 0. -1.
         -5    1    3    3    0  503  0.56131971438E+02 -0.20814918115E+03 -0.42851399806E+02  0.21985270591E+03  0.47000000000E+01 0.  1.
         13    1    4    4    0    0  0.26218661441E+02  0.10538413902E+02  0.55105809786E+01  0.28789631433E+02  0.00000000000E+00 0. -1.
        -14    1    4    4    0    0 -0.26710718511E+02 -0.57265910094E+02  0.17981480390E+02  0.65697645158E+02  0.00000000000E+00 0.  1.
</event>
<event>
12    1  0.8331241E-002  0.1738452E+03  0.7818608E-02  0.1174037E+00
         21   -1    0    0  501  502  0.00000000000E+00  0.00000000000E+00  0.34696484214E+02  0.34696484214E+02  0.00000000000E+00 0.  1.
         21   -1    0    0  502  503 -0.00000000000E+00 -0.00000000000E+00 -0.12845851048E+04  0.12845851048E+04  0.00000000000E+00 0.  1.
         -6    2    1    2    0  503 -0.16691013073E+02 -0.14448179012E+02 -0.10011476547E+04  0.10161293093E+04  0.17243783477E+03 0.  0.
        -24    2    3    3    0    0 -0.44665048227E+02 -0.51953833019E+02 -0.86746417233E+03  0.87441627465E+03  0.86113667844E+02 0.  0.
          6    2    1    2  501    0  0.16691013073E+02  0.14448179012E+02 -0.24874096583E+03  0.30315227969E+03  0.17187756341E+03 0.  0.
         24    2    5    5    0    0 -0.64974797971E+01  0.72499200349E+02 -0.19132552785E+03  0.21814492825E+03  0.75388333440E+02 0.  0.
          5    1    5    5  501    0  0.23188492870E+02 -0.58051021337E+02 -0.57415437978E+02  0.85007351436E+02  0.47000000000E+01 0. -1.
        -13    1    6    6    0    0  0.12480758361E+02  0.27735856255E+02 -0.12595014009E+02  0.32919316963E+02  0.00000000000E+00 0.  1.
         14    1    6    6    0    0 -0.18978238158E+02  0.44763344094E+02 -0.17873051385E+03  0.18522561129E+03  0.00000000000E+00 0. -1.
         -5    1    3    3    0  503  0.27974035154E+02  0.37505654007E+02 -0.13368348240E+03  0.14171303466E+03  0.47000000000E+01 0.  1.
         11    1    4    4    0    0  0.14831673981E+02  0.14515828922E+02 -0.15081973621E+03  0.15224086400E+03  0.00000000000E+00 0. -1.
        -12    1    4    4    0    0 -0.59496722208E+02 -0.66469661942E+02 -0.71664443613E+03  0.72217541065E+03  0.00000000000E+00 0.  1.
</event>
<event>
12    1  0.8331241E-002  0.2185212E+03  0.7818608E-02  0.1135013E+00
         21   -1    0    0  503  502  0.00000000000E+00  0.00000000000E+00  0.12699236945E+04  0.12699236945E+04  0.00000000000E+00 0. -1.
         21   -1    0    0  501  503 -0.00000000000E+00 -0.00000000000E+00 -0.42085830356E+02  0.42085830356E+02  0.00000000000E+00 0.  1.
          6    2    1    2  501    0  0.69646230158E+02  0.11504093581E+03  0.39944758604E+03  0.45531293863E+03  0.17223961160E+03 0.  0.
         24    2    3    3    0    0  0.60622647284E+02  0.97049504988E+02  0.14957215254E+03  0.20458412318E+03  0.79931988967E+02 0.  0.
         -6    2    1    2    0  502 -0.69646230158E+02 -0.11504093581E+03  0.82839027808E+03  0.85669658620E+03  0.17208594859E+03 0.  0.
        -24    2    5    5    0    0 -0.41600440565E+02 -0.34707323794E+02  0.67145202595E+03  0.67811394282E+03  0.77817101715E+02 0.  0.
          5    1    3    3  501    0  0.90235828735E+01  0.17991430822E+02  0.24987543349E+03  0.25072881545E+03  0.47000000000E+01 0. -1.
        -13    1    4    4    0    0  0.78128614049E+02  0.59686730109E+02  0.10579585114E+03  0.14442765733E+03  0.00000000000E+00 0.  1.
         14    1    4    4    0    0 -0.17505966765E+02  0.37362774879E+02  0.43776301402E+02  0.60156465849E+02  0.00000000000E+00 0. -1.
         -5    1    5    5    0  502 -0.28045789593E+02 -0.80333612016E+02  0.15693825213E+03  0.17858264338E+03  0.47000000000E+01 0.  1.
         11    1    6    6    0    0 -0.41744715223E+02 -0.35466215839E+02  0.67360400598E+03  0.67582751541E+03  0.00000000000E+00 0. -1.
        -12    1    6    6    0    0  0.14427465794E+00  0.75889204537E+00 -0.21519800241E+01  0.22864274180E+01  0.00000000000E+00 0.  1.
</event>
<event>
12    1  0.8331241E-002  0.1849801E+03  0.7818608E-02  0.1163531E+00
         21   -1    0    0  503  502  0.00000000000E+00  0.00000000000E+00  0.13289399692E+04  0.13289399692E+04  0.00000000000E+00 0.  1.
         21   -1    0    0  501  503 -0.00000000000E+00 -0.00000000000E+00 -0.14355526551E+03  0.14355526551E+03  0.00000000000E+00 0.  1.
          6    2    1    2  501    0 -0.64141821666E+02  0.28262672490E+02 -0.74477477173E+02  0.19941045387E+03  0.17118610505E+03 0.  0.
         24    2    3    3    0    0 -0.61314945848E+02  0.48110806750E+02 -0.11159799667E+03  0.15696092351E+03  0.78156550187E+02 0.  0.
         -6    2    1    2    0  502  0.64141821666E+02 -0.28262672490E+02  0.12598621808E+04  0.12730847808E+04  0.16905381531E+03 0.  0.
        -24    2    5    5    0    0  0.79324800342E+02 -0.91121237623E+01  0.51286911054E+03  0.52567725915E+03  0.83225005201E+02 0.  0.
          5    1    3    3  501    0 -0.28268758188E+01 -0.19848134260E+02  0.37120519495E+02  0.42449530363E+02  0.47000000000E+01 0. -1.
        -11    1    4    4    0    0 -0.59761415476E+02  0.11330241979E+01 -0.42298738624E+02  0.73224953484E+02  0.00000000000E+00 0.  1.
         12    1    4    4    0    0 -0.15535303715E+01  0.46977782552E+02 -0.69299258044E+02  0.83735970023E+02  0.00000000000E+00 0. -1.
         -5    1    5    5    0  502 -0.15182978675E+02 -0.19150548728E+02  0.74699307028E+03  0.74740752164E+03  0.47000000000E+01 0.  1.
         11    1    6    6    0    0  0.64391294761E+01 -0.19967417613E+01 -0.82276334729E+00  0.67916349723E+01  0.00000000000E+00 0. -1.
        -12    1    6    6    0    0  0.72885670866E+02 -0.71153820010E+01  0.51369187389E+03  0.51888562418E+03  0.00000000000E+00 0.  1.
</event>
<event>
12    1  0.8331241E-002  0.2024043E+03  0.7818608E-02  0.1147743E+00
         21   -1    0    0  503  502  0.00000000000E+00  0.00000000000E+00  0.81107436078E+03  0.81107436078E+03  0.00000000000E+00 0. -1.
         21   -1    0    0  501  503 -0.00000000000E+00 -0.00000000000E+00 -0.81269440576E+02  0.81269440576E+02  0.00000000000E+00 0. -1.
          6    2    1    2  501    0 -0.10584837641E+03  0.26601330153E+02  0.90275432156E+02  0.22154914319E+03  0.17036096866E+03 0.  0.
         24    2    3    3    0    0 -0.19065687118E+02 -0.16766104564E+02  0.92004210689E+02  0.12440467227E+03  0.79794392095E+02 0.  0.
         -6    2    1    2    0  502  0.10584837641E+03 -0.26601330153E+02  0.63952948805E+03  0.67079465817E+03  0.17045819953E+03 0.  0.
        -24    2    5    5    0    0  0.11843287820E+03 -0.54789950152E+02  0.60542318492E+03  0.62455292490E+03  0.80627773646E+02 0.  0.
          5    1    3    3  501    0 -0.86782689297E+02  0.43367434717E+02 -0.17287785327E+01  0.97144470922E+02  0.47000000000E+01 0. -1.
        -13    1    4    4    0    0  0.31400268509E+02 -0.40869208989E+01  0.36602921641E+02  0.48398901408E+02  0.00000000000E+00 0.  1.
         14    1    4    4    0    0 -0.50465955626E+02 -0.12679183666E+02  0.55401289048E+02  0.76005770859E+02  0.00000000000E+00 0. -1.
         -5    1    5    5    0  502 -0.12584501785E+02  0.28188619999E+02  0.34106303130E+02  0.46241733270E+02  0.47000000000E+01 0.  1.
         13    1    6    6    0    0  0.62444414551E+02 -0.48747852320E+02  0.19805224237E+03  0.21330810749E+03  0.00000000000E+00 0. -1.
        -14    1    6    6    0    0  0.55988463649E+02 -0.60420978323E+01  0.40737094255E+03  0.41124481741E+03  0.00000000000E+00 0.  1.
</event>
<event>
12    1  0.8331241E-002  0.2405428E+03  0.7818608E-02  0.1119463E+00
         21   -1    0    0  503  502  0.00000000000E+00  0.00000000000E+00  0.25386570694E+03  0.25386570694E+03  0.00000000000E+00 0. -1.
         21   -1    0    0  501  503 -0.00000000000E+00 -0.00000000000E+00 -0.34425677343E+03  0.34425677343E+03  0.00000000000E+00 0. -1.
          6    2    1    2  501    0  0.14037248193E+03  0.92486403732E+02 -0.21916786941E+03  0.32527762809E+03  0.17179293291E+03 0.  0.
         24    2    3    3    0    0  0.92776229020E+02  0.77121339744E+00 -0.62070517507E+02  0.13718523749E+03  0.79743443614E+02 0.  0.
         -6    2    1    2    0  502 -0.14037248193E+03 -0.92486403732E+02  0.12877680291E+03  0.27284485228E+03  0.17205429343E+03 0.  0.
        -24    2    5    5    0    0 -0.10139316302E+03 -0.13053473365E+03  0.93754885060E+02  0.20791652686E+03  0.84376616843E+02 0.  0.
          5    1    3    3  501    0  0.47596252908E+02  0.91715190335E+02 -0.15709735190E+03  0.18809239061E+03  0.47000000000E+01 0. -1.
        -11    1    4    4    0    0 -0.11809264906E+01 -0.66016363027E+01  0.14356219544E+02  0.15845416651E+02  0.00000000000E+00 0.  1.
         12    1    4    4    0    0  0.93957155511E+02  0.73728497001E+01 -0.76426737050E+02  0.12133982084E+03  0.00000000000E+00 0. -1.
         -5    1    5    5    0  502 -0.38979318904E+02  0.38048329918E+02  0.35021917855E+02  0.64928325421E+02  0.47000000000E+01 0.  1.
         13    1    6    6    0    0 -0.10216614152E+03 -0.10294506617E+03  0.10400615524E+03  0.17847377244E+03  0.00000000000E+00 0. -1.
        -14    1    6    6    0    0  0.77297849275E+00 -0.27589667478E+02 -0.10251270178E+02  0.29442754415E+02  0.00000000000E+00 0.  1.
</event>
<event>
12    1  0.8331241E-002  0.1956747E+03  0.7818608E-02  0.1153754E+00
         21   -1    0    0  501  502  0.00000000000E+00  0.00000000000E+00  0.58349204960E+02  0.58349204960E+02  0.00000000000E+00 0.  1.
         21   -1    0    0  502  503 -0.00000000000E+00 -0.00000000000E+00 -0.71369365450E+03  0.71369365450E+03  0.00000000000E+00 0. -1.
         -6    2    1    2    0  503 -0.13661051956E+02 -0.88374423644E+02 -0.44283089826E+03  0.48413611202E+03  0.17404570497E+03 0.  0.
        -24    2    3    3    0    0  0.21223740620E+02 -0.11577436121E+03 -0.38725687376E+03  0.41287414790E+03  0.81504759678E+02 0.  0.
          6    2    1    2  501    0  0.13661051956E+02  0.88374423644E+02 -0.21251355129E+03  0.28790674744E+03  0.17242860159E+03 0.  0.
         24    2    5    5    0    0  0.29699350486E+02  0.12574639949E+03 -0.17897446447E+03  0.23498367173E+03  0.80568347649E+02 0.  0.
          5    1    5    5  501    0 -0.16038298531E+02 -0.37371975844E+02 -0.33539086810E+02  0.52923075707E+02  0.47000000000E+01 0. -1.
        -13    1    6    6    0    0 -0.11045696890E+02  0.68300465766E+02 -0.41931111256E+02  0.80902281395E+02  0.00000000000E+00 0.  1.
         14    1    6    6    0    0  0.40745047376E+02  0.57445933722E+02 -0.13704335322E+03  0.15408139034E+03  0.00000000000E+00 0. -1.
         -5    1    3    3    0  503 -0.34884792576E+02  0.27399937571E+02 -0.55574024502E+02  0.71261964127E+02  0.47000000000E+01 0.  1.
         11    1    4    4    0    0  0.85755762425E+01 -0.14945509051E+02 -0.19186290922E+03  0.19263510761E+03  0.00000000000E+00 0. -1.
        -12    1    4    4    0    0  0.12648164378E+02 -0.10082885216E+03 -0.19539396454E+03  0.22023904029E+03  0.00000000000E+00 0.  1.
</event>
<event>
12    1  0.8331241E-002  0.2903696E+03  0.7818608E-02  0.1090220E+00
         21   -1    0    0  503  502  0.00000000000E+00  0.00000000000E+00  0.10186970161E+04  0.10186970161E+04  0.00000000000E+00 0.  1.
         21   -1    0    0  501  503 -0.00000000000E+00 -0.00000000000E+00 -0.83194351132E+02  0.83194351132E+02  0.00000000000E+00 0. -1.
          6    2    1    2  501    0  0.35158888887E+02  0.23062762234E+03  0.42271012307E+03  0.51283362908E+03  0.17288503498E+03 0.  0.
         24    2    3    3    0    0 -0.28274689097E+02  0.13293933269E+03  0.15738035568E+03  0.22302542317E+03  0.80619097046E+02 0.  0.
         -6    2    1    2    0  502 -0.35158888887E+02 -0.23062762234E+03  0.51279254193E+03  0.58905773818E+03  0.17206853343E+03 0.  0.
        -24    2    5    5    0    0  0.36630141424E+02 -0.65059052860E+02  0.20434887998E+03  0.23166971562E+03  0.79611210057E+02 0.  0.
          5    1    3    3  501    0  0.63433577984E+02  0.97688289650E+02  0.26532976739E+03  0.28980820591E+03  0.47000000000E+01 0. -1.
        -11    1    4    4    0    0 -0.32376419517E+02  0.17581466897E+02  0.66844093794E+02  0.76324788857E+02  0.00000000000E+00 0.  1.
         12    1    4    4    0    0  0.41017304193E+01  0.11535786579E+03  0.90536261885E+02  0.14670063432E+03  0.00000000000E+00 0. -1.
         -5    1    5    5    0  502 -0.71789030310E+02 -0.16556856948E+03  0.30844366195E+03  0.35738802256E+03  0.47000000000E+01 0.  1.
         13    1    6    6    0    0 -0.22997857523E+02 -0.32364347913E+01  0.41418484638E+02  0.47485438089E+02  0.00000000000E+00 0. -1.
        -14    1    6    6    0    0  0.59627998947E+02 -0.61822618068E+02  0.16293039535E+03  0.18418427753E+03  0.00000000000E+00 0.  1.
</event>
<event>
12    1  0.8331241E-002  0.1984668E+03  0.7818608E-02  0.1151113E+00
         21   -1    0    0  503  502  0.00000000000E+00  0.00000000000E+00  0.12660062950E+03  0.12660062950E+03  0.00000000000E+00 0. -1.
         21   -1    0    0  501  503 -0.00000000000E+00 -0.00000000000E+00 -0.67831021494E+03  0.67831021494E+03  0.00000000000E+00 0. -1.
          6    2    1    2  501    0  0.91843901442E+02 -0.36880006821E+02 -0.57206678471E+03  0.60540270020E+03  0.17162921109E+03 0.  0.
         24    2    3    3    0    0  0.20989864419E+02  0.14485455958E+02 -0.13196902239E+03  0.15666353796E+03  0.80481292306E+02 0.  0.
         -6    2    1    2    0  502 -0.91843901442E+02  0.36880006821E+02  0.20357199278E+02  0.19950814424E+03  0.17202804109E+03 0.  0.
        -24    2    5    5    0    0 -0.25276662539E+02 -0.43831502783E+02  0.11310298020E+02  0.94391630314E+02  0.78878049714E+02 0.  0.
          5    1    3    3  501    0  0.70854037024E+02 -0.51365462779E+02 -0.44009776232E+03  0.44873916224E+03  0.47000000000E+01 0. -1.
        -11    1    4    4    0    0 -0.16438884083E+02  0.26003133553E+02 -0.10422622395E+03  0.10867154928E+03  0.00000000000E+00 0.  1.
         12    1    4    4    0    0  0.37428748501E+02 -0.11517677595E+02 -0.27742798443E+02  0.47991988675E+02  0.00000000000E+00 0. -1.
         -5    1    5    5    0  502 -0.66567238903E+02  0.80711509604E+02  0.90469012588E+01  0.10511651393E+03  0.47000000000E+01 0.  1.
         13    1    6    6    0    0 -0.15184275132E+02  0.17312225138E+02 -0.14552208584E+02  0.27240450165E+02  0.00000000000E+00 0. -1.
        -14    1    6    6    0    0 -0.10092387407E+02 -0.61143727921E+02  0.25862506604E+02  0.67151180149E+02  0.00000000000E+00 0.  1.
</event>
<event>
12    1  0.8331241E-002  0.2170918E+03  0.7818608E-02  0.1136171E+00
         21   -1    0    0  501  502  0.00000000000E+00  0.00000000000E+00  0.85361409745E+02  0.85361409745E+02  0.00000000000E+00 0.  1.
         21   -1    0    0  502  503 -0.00000000000E+00 -0.00000000000E+00 -0.61994029119E+03  0.61994029119E+03  0.00000000000E+00 0.  1.
         -6    2    1    2    0  503  0.13021960284E+03 -0.27871418766E-01 -0.38480421033E+03  0.44155696865E+03  0.17303505579E+03 0.  0.
        -24    2    3    3    0    0  0.11425070011E+03  0.28171472816E+02 -0.15800293777E+03  0.21240392786E+03  0.79395502822E+02 0.  0.
          6    2    1    2  501    0 -0.13021960284E+03  0.27871418766E-01 -0.14977467111E+03  0.26374473228E+03  0.17369998837E+03 0.  0.
         24    2    5    5    0    0 -0.36086781868E+02  0.54186830321E+02 -0.49846910368E+02  0.11609031081E+03  0.82181368841E+02 0.  0.
          5    1    5    5  501    0 -0.94132820976E+02 -0.54158958902E+02 -0.99927760741E+02  0.14765442147E+03  0.47000000000E+01 0. -1.
        -11    1    6    6    0    0 -0.32062185384E+02 -0.62610711535E+01  0.65534567580E+01  0.33318651520E+02  0.00000000000E+00 0.  1.
         12    1    6    6    0    0 -0.40245964834E+01  0.60447901474E+02 -0.56400367126E+02  0.82771659289E+02  0.00000000000E+00 0. -1.
         -5    1    3    3    0  503  0.15968902737E+02 -0.28199344235E+02 -0.22680127256E+03  0.22915304079E+03  0.47000000000E+01 0.  1.
         13    1    4    4    0    0  0.46174013032E+02  0.39437023466E+02 -0.31744859405E+02  0.68520467001E+02  0.00000000000E+00 0. -1.
        -14    1    4    4    0    0  0.68076687075E+02 -0.11265550650E+02 -0.12625807837E+03  0.14388346086E+03  0.00000000000E+00 0.  1.
</event>
<event>
12    1  0.8331241E-002  0.1881947E+03  0.7818608E-02  0.1162672E+00
         21   -1    0    0  503  502  0.00000000000E+00  0.00000000000E+00  0.63878678527E+02  0.63878678527E+02  0.00000000000E+00 0. -1.
         21   -1    0    0  501  503 -0.00000000000E+00 -0.00000000000E+00 -0.83061556877E+03  0.83061556877E+03  0.00000000000E+00 0. -1.
          6    2    1    2  501    0  0.71541415703E+02 -0.21409596863E+02 -0.11836671013E+03  0.22232394337E+03  0.17274464602E+03 0.  0.
         24    2    3    3    0    0  0.90360833446E+02  0.19736468982E+02 -0.12683798591E+03  0.17605276733E+03  0.79700023756E+02 0.  0.
         -6    2    1    2    0  502 -0.71541415703E+02  0.21409596863E+02 -0.64837018012E+03  0.67217030393E+03  0.16078707044E+03 0.  0.
        -24    2    5    5    0    0 -0.44955082772E+02  0.58945994122E+02 -0.31121602332E+03  0.33186040155E+03  0.88206140663E+02 0.  0.
          5    1    3    3  501    0 -0.18819417742E+02 -0.41146065845E+02  0.84712757785E+01  0.46271176039E+02  0.47000000000E+01 0. -1.
        -13    1    4    4    0    0  0.67048082351E+02 -0.23461727014E+02 -0.90132119592E+02  0.11475930012E+03  0.00000000000E+00 0.  1.
         14    1    4    4    0    0  0.23312751095E+02  0.43198195996E+02 -0.36705866314E+02  0.61293467212E+02  0.00000000000E+00 0. -1.
         -5    1    5    5    0  502 -0.26586332932E+02 -0.37536397259E+02 -0.33715415680E+03  0.34030990239E+03  0.47000000000E+01 0.  1.
         13    1    6    6    0    0 -0.30453881641E+02  0.72686428212E+01 -0.24324978749E+03  0.24525646003E+03  0.00000000000E+00 0. -1.
        -14    1    6    6    0    0 -0.14501201131E+02  0.51677351301E+02 -0.67966235836E+02  0.86603941512E+02  0.00000000000E+00 0.  1.
</event>
<event>
12    1  0.8331241E-002  0.2044874E+03  0.7818608E-02  0.1147358E+00
         21   -1    0    0  503  502  0.00000000000E+00  0.00000000000E+00  0.97611241846E+03  0.97611241846E+03  0.00000000000E+00 0. -1.
         21   -1    0    0  501  503 -0.00000000000E+00 -0.00000000000E+00 -0.83798106097E+02  0.83798106097E+02  0.00000000000E+00 0.  1.
          6    2    1    2  501    0 -0.10762140668E+03 -0.19519536572E+02  0.73185829233E+02  0.21718943647E+03  0.17277646318E+03 0.  0.
         24    2    3    3    0    0 -0.94938978052E+02 -0.55121326218E+02  0.10166556645E+03  0.16963402821E+03  0.79925252384E+02 0.  0.
         -6    2    1    2    0  502  0.10762140668E+03  0.19519536572E+02  0.81912848313E+03  0.84272108809E+03  0.16505750802E+03 0.  0.
        -24    2    5    5    0    0  0.42387220288E+02  0.31186273060E+02  0.20467347305E+03  0.22468495547E+03  0.76307526314E+02 0.  0.
          5    1    3    3  501    0 -0.12682428627E+02  0.35601789646E+02 -0.28479737220E+02  0.47555408252E+02  0.47000000000E+01 0. -1.
        -13    1    4    4    0    0 -0.81830811407E+01  0.48562119918E+01 -0.11508892238E+02  0.14933191635E+02  0.00000000000E+00 0.  1.
         14    1    4    4    0    0 -0.86755896911E+02 -0.59977538210E+02  0.11317445869E+03  0.15470083658E+03  0.00000000000E+00 0. -1.
         -5    1    5    5    0  502  0.65234186391E+02 -0.11666736488E+02  0.61445501008E+03  0.61803613262E+03  0.47000000000E+01 0.  1.
         13    1    6    6    0    0  0.33966277313E+02  0.32534620598E+02  0.20961601158E+03  0.21482802853E+03  0.00000000000E+00 0. -1.
        -14    1    6    6    0    0  0.84209429746E+01 -0.13483475372E+01 -0.49425385247E+01  0.98569269415E+01  0.00000000000E+00 0.  1.
</event>
<event>
12    1  0.8331241E-002  0.2190710E+03  0.7818608E-02  0.1134694E+00
         21   -1    0    0  501  502  0.00000000000E+00  0.00000000000E+00  0.11548899090E+03  0.11548899090E+03  0.00000000000E+00 0. -1.
         21   -1    0    0  502  503 -0.00000000000E+00 -0.00000000000E+00 -0.53523446965E+03  0.53523446965E+03  0.00000000000E+00 0. -1.
         -6    2    1    2    0  503  0.12594151048E+03  0.46402127042E+02 -0.36471078877E+03  0.42544807587E+03  0.17314064907E+03 0.  0.
        -24    2    3    3    0    0  0.39683984948E+02 -0.38353551202E+02 -0.17492197892E+03  0.20035749844E+03  0.80620189279E+02 0.  0.
          6    2    1    2  501    0 -0.12594151048E+03 -0.46402127042E+02 -0.55034689988E+02  0.22527538468E+03  0.17235359116E+03 0.  0.
         24    2    5    5    0    0 -0.90561072574E+02  0.29738572095E+02 -0.66770537576E+02  0.14036954525E+03  0.78483208452E+02 0.  0.
          5    1    5    5  501    0 -0.35380437906E+02 -0.76140699137E+02  0.11735847588E+02  0.84905839434E+02  0.47000000000E+01 0. -1.
        -13    1    6    6    0    0 -0.17493190804E+02  0.28620999645E+02 -0.57687274392E+02  0.66730764809E+02  0.00000000000E+00 0.  1.
         14    1    6    6    0    0 -0.73067881769E+02  0.11175724501E+01 -0.90832631837E+01  0.73638780439E+02  0.00000000000E+00 0. -1.
         -5    1    3    3    0  503  0.86257525532E+02  0.84755678244E+02 -0.18978880985E+03  0.22509057743E+03  0.47000000000E+01 0.  1.
         11    1    4    4    0    0  0.38672952797E+02 -0.14759226325E+02 -0.17158449228E+03  0.17650685548E+03  0.00000000000E+00 0. -1.
        -12    1    4    4    0    0  0.10110321504E+01 -0.23594324877E+02 -0.33374866382E+01  0.23850642957E+02  0.00000000000E+00 0.  1.
</event>
<event>
12    1  0.8331241E-002  0.1726596E+03  0.7818608E-02  0.1175316E+00
         21   -1    0    0  501  502  0.00000000000E+00  0.00000000000E+00  0.55257616732E+03  0.55257616732E+03  0.00000000000E+00 0. -1.
         21   -1    0    0  502  503 -0.00000000000E+00 -0.00000000000E+00 -0.12112446452E+03  0.12112446452E+03  0.00000000000E+00 0. -1.
         -6    2    1    2    0  503 -0.80655860028E+01 -0.95579096510E+01 -0.35383409053E+02  0.17624785981E+03  0.17220602526E+03 0.  0.
        -24    2    3    3    0    0  0.10724515101E+02  0.21484967828E+02  0.40179653185E+02  0.92291951641E+02  0.79541063237E+02 0.  0.
          6    2    1    2  501    0  0.80655860028E+01  0.95579096510E+01  0.46683511185E+03  0.49745277204E+03  0.17137045089E+03 0.  0.
         24    2    5    5    0    0 -0.35176915177E+02  0.55694150407E+02  0.20793928247E+03  0.23090520201E+03  0.75757596109E+02 0.  0.
          5    1    5    5  501    0  0.43242501180E+02 -0.46136240756E+02  0.25889582938E+03  0.26654757003E+03  0.47000000000E+01 0. -1.
        -13    1    6    6    0    0  0.48167826819E+01  0.46866328762E+02  0.16487780016E+03  0.17147694642E+03  0.00000000000E+00 0.  1.
         14    1    6    6    0    0 -0.39993697859E+02  0.88278216444E+01  0.43061482306E+02  0.59428255584E+02  0.00000000000E+00 0. -1.
         -5    1    3    3    0  503 -0.18790101104E+02 -0.31042877479E+02 -0.75563062238E+02  0.83955908169E+02  0.47000000000E+01 0.  1.
         11    1    4    4    0    0 -0.11891186355E+01  0.41095550531E+02 -0.52006583940E+01  0.41440380359E+02  0.00000000000E+00 0. -1.
        -12    1    4    4    0    0  0.11913633736E+02 -0.19610582703E+02  0.45380311579E+02  0.50851571281E+02  0.00000000000E+00 0.  1.
</event>
<event>
12    1  0.8331241E-002  0.1928344E+03  0.7818608E-02  0.1157035E+00
         21   -1    0    0  503  502  0.00000000000E+00  0.00000000000E+00  0.17122513436E+04  0.17122513436E+04  0.00000000000E+00 0. -1.
         21   -1    0    0  501  503 -0.00000000000E+00 -0.00000000000E+00 -0.28731049868E+02  0.28731049868E+02  0.00000000000E+00 0. -1.
          6    2    1    2  501    0  0.47268287138E+02 -0.61306425979E+02  0.40312532246E+03  0.44687259982E+03  0.17661349335E+03 0.  0.
         24    2    3    3    0    0 -0.19061435880E+02 -0.82103400316E+02  0.28083562262E+03  0.30612812575E+03  0.87985656552E+02 0.  0.
         -6    2    1    2    0  502 -0.47268287138E+02  0.61306425979E+02  0.12803949713E+04  0.12941097937E+04  0.17121946942E+03 0.  0.
        -24    2    5    5    0    0 -0.67636148251E+02  0.90154803326E+02  0.76413861681E+03  0.77662569517E+03  0.80852381513E+02 0.  0.
          5    1    3    3  501    0  0.66329723017E+02  0.20796974337E+02  0.12228969983E+03  0.14074447407E+03  0.47000000000E+01 0. -1.
        -13    1    4    4    0    0 -0.26408727679E+02 -0.30133348880E+01  0.19439619765E+02  0.32930227776E+02  0.00000000000E+00 0.  1.
         14    1    4    4    0    0  0.73472917997E+01 -0.79090065428E+02  0.26139600286E+03  0.27319789797E+03  0.00000000000E+00 0. -1.
         -5    1    5    5    0  502  0.20367861114E+02 -0.28848377347E+02  0.51625635451E+03  0.51748409851E+03  0.47000000000E+01 0.  1.
         11    1    6    6    0    0  0.93271732466E+01  0.23105967183E+02  0.31729942017E+03  0.31827630122E+03  0.00000000000E+00 0. -1.
        -12    1    6    6    0    0 -0.76963321498E+02  0.67048836142E+02  0.44683919664E+03  0.45834939395E+03  0.00000000000E+00 0.  1.
</event>
<event>
12    1  0.8331241E-002  0.2555677E+03  0.7818608E-02  0.1110018E+00
         21   -1    0    0  503  502  0.00000000000E+00  0.00000000000E+00  0.15787204442E+03  0.15787204442E+03  0.00000000000E+00 0.  1.
         21   -1    0    0  501  503 -0.00000000000E+00 -0.00000000000E+00 -0.64487257456E+03  0.64487257456E+03  0.00000000000E+00 0.  1.
          6    2    1    2  501    0 -0.16524209122E+03 -0.90751348964E+02 -0.48443564950E+03  0.54716404930E+03  0.17079180978E+03 0.  0.
         24    2    3    3    0    0 -0.11439003811E+03 -0.93054444427E+02 -0.21283411744E+03  0.27079343260E+03  0.79287522027E+02 0.  0.
         -6    2    1    2    0  502  0.16524209122E+03  0.90751348964E+02 -0.25648806526E+01  0.25558056968E+03  0.17255171091E+03 0.  0.
        -24    2    5    5    0    0  0.15725403892E+03  0.86977148397E+02 -0.53269163459E+02  0.20389819489E+03  0.80268381090E+02 0.  0.
          5    1    3    3  501    0 -0.50852053108E+02  0.23030954628E+01 -0.27160153206E+03  0.27637061669E+03  0.47000000000E+01 0. -1.
        -11    1    4    4    0    0 -0.11228806099E+03 -0.64873856653E+02 -0.13148932533E+03  0.18467990847E+03  0.00000000000E+00 0.  1.
         12    1    4    4    0    0 -0.21019771204E+01 -0.28180587774E+02 -0.81344792107E+02  0.86113524129E+02  0.00000000000E+00 0. -1.
         -5    1    5    5    0  502  0.79880522950E+01  0.37742005674E+01  0.50704282806E+02  0.51682374793E+02  0.47000000000E+01 0.  1.
         13    1    6    6    0    0  0.24065690256E+02 -0.14605447675E+02 -0.15692783299E+02  0.32229489555E+02  0.00000000000E+00 0. -1.
        -14    1    6    6    0    0  0.13318834867E+03  0.10158259607E+03 -0.37576380160E+02  0.17166870534E+03  0.00000000000E+00 0.  1.
</event>
<event>
12    1  0.8331241E-002  0.1835824E+03  0.7818608E-02  0.1164642E+00
         21   -1    0    0  501  502  0.00000000000E+00  0.00000000000E+00  0.11347969775E+03  0.11347969775E+03  0.00000000000E+00 0. -1.
         21   -1    0    0  502  503 -0.00000000000E+00 -0.00000000000E+00 -0.30794274592E+03  0.30794274592E+03  0.00000000000E+00 0. -1.
         -6    2    1    2    0  503 -0.57428097324E+02 -0.24941755061E+02 -0.13980061573E+03  0.22987489948E+03  0.17140064102E+03 0.  0.
        -24    2    3    3    0    0 -0.48862374842E+02 -0.79208026217E+02 -0.34289896001E+02  0.11082532256E+03  0.49447063208E+02 0.  0.
          6    2    1    2  501    0  0.57428097324E+02  0.24941755061E+02 -0.54662432449E+02  0.19154754419E+03  0.17257578816E+03 0.  0.
         24    2    5    5    0    0  0.29769423636E+02  0.30545304678E+02 -0.10094042023E+03  0.13714033739E+03  0.82457682983E+02 0.  0.
          5    1    5    5  501    0  0.27658673688E+02 -0.56035496169E+01  0.46277987782E+02  0.54407206799E+02  0.47000000000E+01 0. -1.
        -11    1    6    6    0    0 -0.58873114543E+01  0.46780432591E+02 -0.79627159320E+02  0.92539471637E+02  0.00000000000E+00 0.  1.
         12    1    6    6    0    0  0.35656735090E+02 -0.16235127913E+02 -0.21313260911E+02  0.44600865758E+02  0.00000000000E+00 0. -1.
         -5    1    3    3    0  503 -0.85657224822E+01  0.54266271156E+02 -0.10551071973E+03  0.11904957692E+03  0.47000000000E+01 0.  1.
         11    1    4    4    0    0 -0.38302454327E+02 -0.42230559810E+02 -0.42981439978E+02  0.71399596441E+02  0.00000000000E+00 0. -1.
        -12    1    4    4    0    0 -0.10559920515E+02 -0.36977466406E+02  0.86915439768E+01  0.39425726117E+02  0.00000000000E+00 0.  1.
</event>
<event>
12    1  0.8331241E-002  0.3256352E+03  0.7818608E-02  0.1073125E+00
         21   -1    0    0  503  502  0.00000000000E+00  0.00000000000E+00  0.61733769229E+02  0.61733769229E+02  0.00000000000E+00 0.  1.
         21   -1    0    0  501  503 -0.00000000000E+00 -0.00000000000E+00 -0.22385149671E+04  0.22385149671E+04  0.00000000000E+00 0. -1.
          6    2    1    2  501    0 -0.86708383274E+02  0.26165217706E+03 -0.16437137254E+04  0.16755894345E+04  0.17269897638E+03 0.  0.
         24    2    3    3    0    0 -0.80528469122E+02  0.79169874679E+02 -0.84193479579E+03  0.85326983483E+03  0.80389721260E+02 0.  0.
         -6    2    1    2    0  502  0.86708383274E+02 -0.26165217706E+03 -0.53306747244E+03  0.62465930180E+03  0.17337274198E+03 0.  0.
        -24    2    5    5    0    0  0.11442830652E+02 -0.95783724928E+02 -0.11894406292E+03  0.17222418475E+03  0.78790985368E+02 0.  0.
          5    1    3    3  501    0 -0.61799141514E+01  0.18248230238E+03 -0.80177892963E+03  0.82231959968E+03  0.47000000000E+01 0. -1.
        -11    1    4    4    0    0 -0.15342030673E+02  0.21793458383E+02 -0.50651399701E+02  0.57235452519E+02  0.00000000000E+00 0.  1.
         12    1    4    4    0    0 -0.65186438449E+02  0.57376416296E+02 -0.79128339609E+03  0.79603438231E+03  0.00000000000E+00 0. -1.
         -5    1    5    5    0  502  0.75265552622E+02 -0.16586845214E+03 -0.41412340953E+03  0.45243511706E+03  0.47000000000E+01 0.  1.
         13    1    6    6    0    0  0.14201386980E+02  0.96807839790E+01 -0.74653105501E+01  0.18738405274E+02  0.00000000000E+00 0. -1.
        -14    1    6    6    0    0 -0.27585563287E+01 -0.10546450891E+03 -0.11147875237E+03  0.15348577947E+03  0.00000000000E+00 0.  1.
</event>
<event>
12    1  0.8331241E-002  0.3011807E+03  0.7818608E-02  0.1084812E+00
         21   -1    0    0  503  502  0.00000000000E+00  0.00000000000E+00  0.42264182501E+03  0.42264182501E+03  0.00000000000E+00 0. -1.
         21   -1    0    0  501  503 -0.00000000000E+00 -0.00000000000E+00 -0.21566053143E+03  0.21566053143E+03  0.00000000000E+00 0.  1.
          6    2    1    2  501    0 -0.24034372022E+03  0.47238181296E+02  0.73370057597E+02  0.30998871037E+03  0.17525206299E+03 0.  0.
         24    2    3    3    0    0 -0.18298888880E+03  0.45612765713E+02  0.11846717517E+03  0.23685828799E+03  0.80634478835E+02 0.  0.
         -6    2    1    2    0  502  0.24034372022E+03 -0.47238181296E+02  0.13361123599E+03  0.32831364608E+03  0.17303565586E+03 0.  0.
        -24    2    5    5    0    0  0.18126139400E+03 -0.69471132787E+02  0.37017793725E+02  0.21282594764E+03  0.79010351787E+02 0.  0.
          5    1    3    3  501    0 -0.57354831421E+02  0.16254155838E+01 -0.45097117578E+02  0.73130422377E+02  0.47000000000E+01 0. -1.
        -13    1    4    4    0    0 -0.10408104180E+03 -0.47187646379E+01  0.30864752296E+02  0.10866353084E+03  0.00000000000E+00 0.  1.
         14    1    4    4    0    0 -0.78907846999E+02  0.50331530351E+02  0.87602422878E+02  0.12819475715E+03  0.00000000000E+00 0. -1.
         -5    1    5    5    0  502  0.59082326218E+02  0.22232951490E+02  0.96593442261E+02  0.11548769844E+03  0.47000000000E+01 0.  1.
         11    1    6    6    0    0  0.27234698298E+02 -0.30141222010E+02  0.35347275303E+02  0.53848416197E+02  0.00000000000E+00 0. -1.
        -12    1    6    6    0    0  0.15402669570E+03 -0.39329910777E+02  0.16705184225E+01  0.15897753144E+03  0.00000000000E+00 0.  1.
</event>
<event>
12    1  0.8331241E-002  0.2039697E+03  0.7818608E-02  0.1146455E+00
         21   -1    0    0  503  502  0.00000000000E+00  0.00000000000E+00  0.55222880909E+03  0.55222880909E+03  0.00000000000E+00 0.  1.
         21   -1    0    0  501  503 -0.00000000000E+00 -0.00000000000E+00 -0.24528482891E+03  0.24528482891E+03  0.00000000000E+00 0. -1.
          6    2    1    2  501    0 -0.61715628383E+02  0.90188317818E+02 -0.17849850184E+03  0.27096065613E+03  0.17209070443E+03 0.  0.
         24    2    3    3    0    0  0.19734922383E+02  0.48027700037E+02 -0.14478639367E+03  0.17313271457E+03  0.79471440973E+02 0.  0.
         -6    2    1    2    0  502  0.61715628383E+02 -0.90188317818E+02  0.48544248202E+03  0.52655298188E+03  0.17222336637E+03 0.  0.
        -24    2    5    5    0    0 -0.30520507990E+02 -0.49501805800E+02  0.29421031994E+03  0.31032456810E+03  0.79747696029E+02 0.  0.
          5    1    3    3  501    0 -0.81450550766E+02  0.42160617780E+02 -0.33712108169E+02  0.97827941555E+02  0.47000000000E+01 0. -1.
        -13    1    4    4    0    0 -0.31033008531E+01 -0.19268365866E+02 -0.13134846189E+02  0.23524977869E+02  0.00000000000E+00 0.  1.
         14    1    4    4    0    0  0.22838223236E+02  0.67296065904E+02 -0.13165154748E+03  0.14960773670E+03  0.00000000000E+00 0. -1.
         -5    1    5    5    0  502  0.92236136372E+02 -0.40686512018E+02  0.19123216208E+03  0.21622841378E+03  0.47000000000E+01 0.  1.
         11    1    6    6    0    0  0.10247970535E+02 -0.56369138498E+02  0.16536065602E+03  0.17500470632E+03  0.00000000000E+00 0. -1.
        -12    1    6    6    0    0 -0.40768478525E+02  0.68673326985E+01  0.12884966392E+03  0.13531986178E+03  0.00000000000E+00 0.  1.
</event>
<event>
12    1  0.8331241E-002  0.2958232E+03  0.7818608E-02  0.1087453E+00
         21   -1    0    0  503  502  0.00000000000E+00  0.00000000000E+00  0.14133637532E+04  0.14133637532E+04  0.00000000000E+00 0.  1.
         21   -1    0    0  501  503 -0.00000000000E+00 -0.00000000000E+00 -0.82415544749E+02  0.82415544749E+02  0.00000000000E+00 0. -1.
          6    2    1    2  501    0  0.12095317679E+03  0.20760474853E+03  0.29161288476E+03  0.41539072275E+03  0.17257455028E+03 0.  0.
         24    2    3    3    0    0  0.14954269657E+03  0.12272913397E+03  0.20615171050E+03  0.29150798427E+03  0.71083885158E+02 0.  0.
         -6    2    1    2    0  502 -0.12095317679E+03 -0.20760474853E+03  0.10393353237E+04  0.10803885752E+04  0.17114951288E+03 0.  0.
        -24    2    5    5    0    0 -0.39367467055E+02 -0.19202011075E+03  0.72678628319E+03  0.75695681782E+03  0.79647989318E+02 0.  0.
          5    1    3    3  501    0 -0.28589519778E+02  0.84875614557E+02  0.85461174251E+02  0.12388273847E+03  0.47000000000E+01 0. -1.
        -11    1    4    4    0    0  0.34864615535E+02 -0.73261437637E+00  0.55114698682E+02  0.65220458071E+02  0.00000000000E+00 0.  1.
         12    1    4    4    0    0  0.11467808103E+03  0.12346174835E+03  0.15103701182E+03  0.22628752620E+03  0.00000000000E+00 0. -1.
         -5    1    5    5    0  502 -0.81585709735E+02 -0.15584637774E+02  0.31254904050E+03  0.32343175739E+03  0.47000000000E+01 0.  1.
         11    1    6    6    0    0  0.34367318970E+01 -0.47461282768E+02  0.82254386805E+02  0.95027199458E+02  0.00000000000E+00 0. -1.
        -12    1    6    6    0    0 -0.42804198952E+02 -0.14455882799E+03  0.64453189639E+03  0.66192961836E+03  0.00000000000E+00 0.  1.
</event>
<event>
12    1  0.8331241E-002  0.1864813E+03  0.7818608E-02  0.1163062E+00
         21   -1    0    0  501  502  0.00000000000E+00  0.00000000000E+00  0.18873201006E+03  0.18873201006E+03  0.00000000000E+00 0. -1.
         21   -1    0    0  502  503 -0.00000000000E+00 -0.00000000000E+00 -0.22119918436E+03  0.22119918436E+03  0.00000000000E+00 0. -1.
         -6    2    1    2    0  503 -0.32350871239E+02 -0.45462836748E+02 -0.10609915011E+03  0.20943943687E+03  0.17173933640E+03 0.  0.
        -24    2    3    3    0    0 -0.84248381853E+02 -0.50843406446E+02 -0.66111126810E+02  0.14353470149E+03  0.80923961961E+02 0.  0.
          6    2    1    2  501    0  0.32350871239E+02  0.45462836748E+02  0.73631975806E+02  0.20049175755E+03  0.17793770986E+03 0.  0.
         24    2    5    5    0    0  0.48779572915E+02  0.63058938597E+02  0.11057623453E+03  0.15614659670E+03  0.76149717967E+02 0.  0.
          5    1    5    5  501    0 -0.16428701676E+02 -0.17596101850E+02 -0.36944258722E+02  0.44345160858E+02  0.47000000000E+01 0. -1.
        -13    1    6    6    0    0 -0.88883079375E+01 -0.12389731411E+02  0.16709927165E+02  0.22621430730E+02  0.00000000000E+00 0.  1.
         14    1    6    6    0    0  0.57667880852E+02  0.75448670008E+02  0.93866307362E+02  0.13352516596E+03  0.00000000000E+00 0. -1.
         -5    1    3    3    0  503  0.51897510614E+02  0.53805696985E+01 -0.39988023301E+02  0.65904735382E+02  0.47000000000E+01 0.  1.
         11    1    4    4    0    0 -0.14411357899E+02 -0.53670891125E+02 -0.41783150482E+02  0.69527573342E+02  0.00000000000E+00 0. -1.
        -12    1    4    4    0    0 -0.69837023954E+02  0.28274846782E+01 -0.24327976328E+02  0.74007128147E+02  0.00000000000E+00 0.  1.
</event>
<event>
12    1  0.8331241E-002  0.2221272E+03  0.7818608E-02  0.1133038E+00
         21   -1    0    0  501  502  0.00000000000E+00  0.00000000000E+00  0.51901500024E+02  0.51901500024E+02  0.00000000000E+00 0.  1.
         21   -1    0    0  502  503 -0.00000000000E+00 -0.00000000000E+00 -0.10955778207E+04  0.10955778207E+04  0.00000000000E+00 0.  1.
         -6    2    1    2    0  503 -0.34686853021E+02  0.13939614566E+03 -0.73826438798E+03  0.76983276522E+03  0.16423677009E+03 0.  0.
        -24    2    3    3    0    0  0.39749687796E+02  0.68357409941E+02 -0.32210664313E+03  0.34111763932E+03  0.79723153036E+02 0.  0.
          6    2    1    2  501    0  0.34686853021E+02 -0.13939614566E+03 -0.30541193266E+03  0.37764655547E+03  0.16942847768E+03 0.  0.
         24    2    5    5    0    0  0.38345780358E+02 -0.16875757377E+03 -0.24581742053E+03  0.31094515304E+03  0.79442849802E+02 0.  0.
          5    1    5    5  501    0 -0.36589273372E+01  0.29361428113E+02 -0.59594512129E+02  0.66701402429E+02  0.47000000000E+01 0. -1.
        -11    1    6    6    0    0  0.25194950488E+02 -0.40498309727E+02 -0.21727980763E+02  0.52411866680E+02  0.00000000000E+00 0.  1.
         12    1    6    6    0    0  0.13150829870E+02 -0.12825926404E+03 -0.22408943977E+03  0.25853328636E+03  0.00000000000E+00 0. -1.
         -5    1    3    3    0  503 -0.74436540817E+02  0.71038735718E+02 -0.41615774484E+03  0.42871512590E+03  0.47000000000E+01 0.  1.
         13    1    4    4    0    0  0.34570151940E+02  0.83726551467E+02 -0.30196037807E+03  0.31525434296E+03  0.00000000000E+00 0. -1.
        -14    1    4    4    0    0  0.51795358560E+01 -0.15369141526E+02 -0.20146265059E+02  0.25863296363E+02  0.00000000000E+00 0.  1.
</event>
<event>
12    1  0.8331241E-002  0.2059540E+03  0.7818608E-02  0.1144838E+00
         21   -1    0    0  501  502  0.00000000000E+00  0.00000000000E+00  0.10135508422E+04  0.10135508422E+04  0.00000000000E+00 0.  1.
         21   -1    0    0  502  503 -0.00000000000E+00 -0.00000000000E+00 -0.54621284796E+02  0.54621284796E+02  0.00000000000E+00 0.  1.
         -6    2    1    2    0  503 -0.68812848290E+02  0.89122487738E+02  0.22081719524E+03  0.30186479349E+03  0.17229072500E+03 0.  0.
        -24    2    3    3    0    0 -0.87465740132E+02  0.69242758608E+02  0.23396025656E+03  0.27123859448E+03  0.79925954305E+02 0.  0.
          6    2    1    2  501    0  0.68812848290E+02 -0.89122487738E+02  0.73811236218E+03  0.76630733353E+03  0.17245012120E+03 0.  0.
         24    2    5    5    0    0  0.93719086490E+02 -0.95887224719E+02  0.42712656953E+03  0.45421706518E+03  0.76801099364E+02 0.  0.
          5    1    5    5  501    0 -0.24906238201E+02  0.67647369814E+01  0.31098579264E+03  0.31209026834E+03  0.47000000000E+01 0. -1.
        -11    1    6    6    0    0  0.37796639289E+02 -0.89250708535E+02  0.24108118726E+03  0.25983535896E+03  0.00000000000E+00 0.  1.
         12    1    6    6    0    0  0.55922447201E+02 -0.66365161847E+01  0.18604538227E+03  0.19438170622E+03  0.00000000000E+00 0. -1.
         -5    1    3    3    0  503  0.18652891843E+02  0.19879729130E+02 -0.13143061320E+02  0.30626199001E+02  0.47000000000E+01 0.  1.
         11    1    4    4    0    0 -0.35312121293E+01  0.13477354037E+02 -0.25422239396E+01  0.14162324439E+02  0.00000000000E+00 0. -1.
        -12    1    4    4    0    0 -0.83934528003E+02  0.55765404571E+02  0.23650248050E+03  0.25707627005E+03  0.00000000000E+00 0.  1.
</event>
<event>
12    1  0.8331241E-002  0.1875611E+03  0.7818608E-02  0.1160749E+00
         21   -1    0    0  503  502  0.00000000000E+00  0.00000000000E+00  0.22526310722E+03  0.22526310722E+03  0.00000000000E+00 0.  1.
         21   -1    0    0  501  503 -0.00000000000E+00 -0.00000000000E+00 -0.17052599587E+03  0.17052599587E+03  0.00000000000E+00 0.  1.
          6    2    1    2  501    0 -0.33214007072E+02 -0.67528987376E+02  0.85310637864E+02  0.20605114337E+03  0.17180172976E+03 0.  0.
         24    2    3    3    0    0  0.40565826412E+02 -0.57226353160E+02  0.15807490911E+02  0.10405905771E+03  0.75219471910E+02 0.  0.
         -6    2    1    2    0  502  0.33214007072E+02  0.67528987376E+02 -0.30573526516E+02  0.18973795972E+03  0.17147133414E+03 0.  0.
        -24    2    5    5    0    0  0.64089553350E+02 -0.12479822691E+02 -0.12494340360E+02  0.10196748622E+03  0.77317804430E+02 0.  0.
          5    1    3    3  501    0 -0.73779833485E+02 -0.10302634215E+02  0.69503146953E+02  0.10199208566E+03  0.47000000000E+01 0. -1.
        -11    1    4    4    0    0 -0.14027160405E+02  0.68865713301E+01 -0.65354345577E+01  0.16938063601E+02  0.00000000000E+00 0.  1.
         12    1    4    4    0    0  0.54592986817E+02 -0.64112924490E+02  0.22342925469E+02  0.87120994111E+02  0.00000000000E+00 0. -1.
         -5    1    5    5    0  502 -0.30875546277E+02  0.80008810067E+02 -0.18079186157E+02  0.87770473500E+02  0.47000000000E+01 0.  1.
         13    1    6    6    0    0  0.43397706009E+01  0.27489832405E+02  0.42608781828E+01  0.28154565836E+02  0.00000000000E+00 0. -1.
        -14    1    6    6    0    0  0.59749782749E+02 -0.39969655096E+02 -0.16755218542E+02  0.73812920383E+02  0.00000000000E+00 0.  1.
</event>
<event>
12    1  0.8331241E-002  0.2788514E+03  0.7818608E-02  0.1096389E+00
         21   -1    0    0  503  502  0.00000000000E+00  0.00000000000E+00  0.59711783384E+03  0.59711783384E+03  0.00000000000E+00 0. -1.
         21   -1    0    0  501  503 -0.00000000000E+00 -0.00000000000E+00 -0.19511682852E+03  0.19511682852E+03  0.00000000000E+00 0. -1.
          6    2    1    2  501    0 -0.19933217809E+03  0.92729346337E+02 -0.27743354642E+02  0.28022815951E+03  0.17154031235E+03 0.  0.
         24    2    3    3    0    0 -0.88409408174E+02  0.38318780584E+02  0.48640660634E+02  0.13489757656E+03  0.80912853703E+02 0.  0.
         -6    2    1    2    0  502  0.19933217809E+03 -0.92729346337E+02  0.42974435996E+03  0.51200650285E+03  0.17069972217E+03 0.  0.
        -24    2    5    5    0    0  0.30600239921E+02 -0.43240523815E+02  0.12183211506E+03  0.15739171033E+03  0.84397681475E+02 0.  0.
          5    1    3    3  501    0 -0.11092276992E+03  0.54410565753E+02 -0.76384015276E+02  0.14533058296E+03  0.47000000000E+01 0. -1.
        -13    1    4    4    0    0 -0.29760303784E+02  0.29087652954E+02  0.61397349511E+02  0.74171434951E+02  0.00000000000E+00 0.  1.
         14    1    4    4    0    0 -0.58649104390E+02  0.92311276301E+01 -0.12756688877E+02  0.60726141605E+02  0.00000000000E+00 0. -1.
         -5    1    5    5    0  502  0.16873193817E+03 -0.49488822522E+02  0.30791224490E+03  0.35461479252E+03  0.47000000000E+01 0.  1.
         11    1    6    6    0    0  0.13760646605E+02  0.25224215360E+02  0.29040686529E+02  0.40853126069E+02  0.00000000000E+00 0. -1.
        -12    1    6    6    0    0  0.16839593316E+02 -0.68464739175E+02  0.92791428530E+02  0.11653858426E+03  0.00000000000E+00 0.  1.
</event>
<event>
12    1  0.8331241E-002  0.1780624E+03  0.7818608E-02  0.1169758E+00
         21   -1    0    0  503  502  0.00000000000E+00  0.00000000000E+00  0.59818743097E+03  0.59818743097E+03  0.00000000000E+00 0. -1.
         21   -1    0    0  501  503 -0.00000000000E+00 -0.00000000000E+00 -0.58691116721E+02  0.58691116721E+02  0.00000000000E+00 0. -1.
          6    2    1    2  501    0  0.14640639978E+02  0.42975621205E+02  0.16696909150E+03  0.24410017306E+03  0.17217713152E+03 0.  0.
         24    2    3    3    0    0 -0.41440117072E+02 -0.19442134552E+02  0.73948920566E+02  0.11873722102E+03  0.80838140155E+02 0.  0.
         -6    2    1    2    0  502 -0.14640639978E+02 -0.42975621205E+02  0.37252722276E+03  0.41277837463E+03  0.17189590604E+03 0.  0.
        -24    2    5    5    0    0 -0.75255740623E+02 -0.36683533409E+02  0.24739038915E+03  0.27351209042E+03  0.81226540234E+02 0.  0.
          5    1    3    3  501    0  0.56080757050E+02  0.62417755757E+02  0.93020170931E+02  0.12536295204E+03  0.47000000000E+01 0. -1.
        -11    1    4    4    0    0 -0.18370977600E+02 -0.40948324544E+02  0.74749707472E+02  0.87188169313E+02  0.00000000000E+00 0.  1.
         12    1    4    4    0    0 -0.23069139471E+02  0.21506189992E+02 -0.80078690622E+00  0.31549051707E+02  0.00000000000E+00 0. -1.
         -5    1    5    5    0  502  0.60615100645E+02 -0.62920877962E+01  0.12513683360E+03  0.13926628421E+03  0.47000000000E+01 0.  1.
         11    1    6    6    0    0  0.14236935228E+00 -0.34651844664E+02  0.12529088456E+03  0.12999452436E+03  0.00000000000E+00 0. -1.
        -12    1    6    6    0    0 -0.75398109975E+02 -0.20316887451E+01  0.12209950459E+03  0.14351756606E+03  0.00000000000E+00 0.  1.
</event>
<event>
12    1  0.8331241E-002  0.2364804E+03  0.7818608E-02  0.1123344E+00
         21   -1    0    0  501  502  0.00000000000E+00  0.00000000000E+00  0.25024877422E+03  0.25024877422E+03  0.00000000000E+00 0. -1.
         21   -1    0    0  502  503 -0.00000000000E+00 -0.00000000000E+00 -0.25578891309E+03  0.25578891309E+03  0.00000000000E+00 0. -1.
         -6    2    1    2    0  503  0.15202253380E+03  0.29484270524E+02 -0.10129236767E+03  0.25726079440E+03  0.17872548669E+03 0.  0.
        -24    2    3    3    0    0  0.17397220613E+03  0.57370122234E+02 -0.94375030682E+02  0.22080056412E+03  0.79300588052E+02 0.  0.
          6    2    1    2  501    0 -0.15202253380E+03 -0.29484270524E+02  0.95752228802E+02  0.24877689291E+03  0.16953253414E+03 0.  0.
         24    2    5    5    0    0 -0.14236429796E+03  0.29208671591E+01  0.12407529410E+03  0.20441857355E+03  0.78205816986E+02 0.  0.
          5    1    5    5  501    0 -0.96582358431E+01 -0.32405137683E+02 -0.28323065299E+02  0.44358319352E+02  0.47000000000E+01 0. -1.
        -13    1    6    6    0    0 -0.74958156906E+02  0.35564358555E+02  0.40924943430E+02  0.92511620248E+02  0.00000000000E+00 0.  1.
         14    1    6    6    0    0 -0.67406141051E+02 -0.32643491396E+02  0.83150350670E+02  0.11190695331E+03  0.00000000000E+00 0. -1.
         -5    1    3    3    0  503 -0.21949672333E+02 -0.27885851710E+02 -0.69173369910E+01  0.36460230282E+02  0.47000000000E+01 0.  1.
         11    1    4    4    0    0  0.68476936275E+02 -0.16970134835E+02 -0.32312579740E+02  0.77596256916E+02  0.00000000000E+00 0. -1.
        -12    1    4    4    0    0  0.10549526986E+03  0.74340257069E+02 -0.62062450942E+02  0.14320430720E+03  0.00000000000E+00 0.  1.
</event>
<event>
12    1  0.8331241E-002  0.1849207E+03  0.7818608E-02  0.1163597E+00
         21   -1    0    0  501  502  0.00000000000E+00  0.00000000000E+00  0.85019667943E+02  0.85019667943E+02  0.00000000000E+00 0. -1.
         21   -1    0    0  502  503 -0.00000000000E+00 -0.00000000000E+00 -0.39784047304E+03  0.39784047304E+03  0.00000000000E+00 0. -1.
         -6    2    1    2    0  503 -0.28172606375E+02  0.61090511680E+02 -0.15735895009E+03  0.24281165961E+03  0.17224957620E+03 0.  0.
        -24    2    3    3    0    0 -0.50117168586E+02 -0.14451759020E+02 -0.12536222858E+03  0.15775827249E+03  0.80320609178E+02 0.  0.
          6    2    1    2  501    0  0.28172606375E+02 -0.61090511680E+02 -0.15546185501E+03  0.24004848138E+03  0.17008568041E+03 0.  0.
         24    2    5    5    0    0  0.80499178334E+02 -0.35469402819E+02 -0.93179864094E+02  0.15463391737E+03  0.86550361520E+02 0.  0.
          5    1    5    5  501    0 -0.52326571959E+02 -0.25621108861E+02 -0.62281990916E+02  0.85414564008E+02  0.47000000000E+01 0. -1.
        -11    1    6    6    0    0  0.45439754582E+02  0.26071285874E+02 -0.35376806448E+02  0.63213935790E+02  0.00000000000E+00 0.  1.
         12    1    6    6    0    0  0.35059423751E+02 -0.61540688692E+02 -0.57803057646E+02  0.91419981578E+02  0.00000000000E+00 0. -1.
         -5    1    3    3    0  503  0.21944562211E+02  0.75542270699E+02 -0.31996721509E+02  0.85053387119E+02  0.47000000000E+01 0.  1.
         11    1    4    4    0    0 -0.57893812699E+02 -0.29283365375E+02 -0.53861138917E+02  0.84322187602E+02  0.00000000000E+00 0. -1.
        -12    1    4    4    0    0  0.77766441131E+01  0.14831606355E+02 -0.71501089664E+02  0.73436084889E+02  0.00000000000E+00 0.  1.
</event>
<event>
12    1  0.8331241E-002  0.2020404E+03  0.7818608E-02  0.1148226E+00
         21   -1    0    0  503  502  0.00000000000E+00  0.00000000000E+00  0.68831037158E+03  0.68831037158E+03  0.00000000000E+00 0.  1.
         21   -1    0    0  501  503 -0.00000000000E+00 -0.00000000000E+00 -0.10109742511E+03  0.10109742511E+03  0.00000000000E+00 0.  1.
          6    2    1    2  501    0 -0.82015107278E+02  0.66017303319E+02  0.39393178519E+02  0.20584500215E+03  0.17244007723E+03 0.  0.
         24    2    3    3    0    0 -0.11948683060E+03  0.45390233179E+02  0.53668768060E+02  0.16050750632E+03  0.80900846511E+02 0.  0.
         -6    2    1    2    0  502  0.82015107278E+02 -0.66017303319E+02  0.54781976795E+03  0.58356279455E+03  0.17133089291E+03 0.  0.
        -24    2    5    5    0    0 -0.19958864582E+02 -0.74777648959E+02  0.19558887907E+03  0.21673296524E+03  0.52231365531E+02 0.  0.
          5    1    3    3  501    0  0.37471723318E+02  0.20627070140E+02 -0.14275589541E+02  0.45337495826E+02  0.47000000000E+01 0. -1.
        -13    1    4    4    0    0  0.49545752945E+00  0.24675942947E+02 -0.52666917111E+01  0.25236594066E+02  0.00000000000E+00 0.  1.
         14    1    4    4    0    0 -0.11998228813E+03  0.20714290232E+02  0.58935459771E+02  0.13527091225E+03  0.00000000000E+00 0. -1.
         -5    1    5    5    0  502  0.10197397186E+03  0.87603456397E+01  0.35223088888E+03  0.36682982931E+03  0.47000000000E+01 0.  1.
         13    1    6    6    0    0  0.16296715337E+02 -0.33891020646E+02  0.63711192722E+02  0.73981756462E+02  0.00000000000E+00 0. -1.
        -14    1    6    6    0    0 -0.36255579919E+02 -0.40886628313E+02  0.13187768635E+03  0.14275120877E+03  0.00000000000E+00 0.  1.
</event>
<event>
12    1  0.8331241E-002  0.2544250E+03  0.7818608E-02  0.1110868E+00
         21   -1    0    0  501  502  0.00000000000E+00  0.00000000000E+00  0.89398301291E+02  0.89398301291E+02  0.00000000000E+00 0. -1.
         21   -1    0    0  502  503 -0.00000000000E+00 -0.00000000000E+00 -0.14640422614E+04  0.14640422614E+04  0.00000000000E+00 0.  1.
         -6    2    1    2    0  503  0.51949731383E+01 -0.18812267455E+03 -0.12403425147E+04  0.12657446094E+04  0.16805574649E+03 0.  0.
        -24    2    3    3    0    0  0.23897468559E+02 -0.11436904537E+03 -0.10682538660E+04  0.10775267192E+04  0.79032530638E+02 0.  0.
          6    2    1    2  501    0 -0.51949731383E+01  0.18812267455E+03 -0.13430144543E+03  0.28769595335E+03  0.17121610585E+03 0.  0.
         24    2    5    5    0    0  0.19649854030E+02  0.20731967085E+02 -0.50266632977E+02  0.98696339363E+02  0.79989385484E+02 0.  0.
          5    1    5    5  501    0 -0.24844827168E+02  0.16739070747E+03 -0.84034812451E+02  0.18899961399E+03  0.47000000000E+01 0. -1.
        -13    1    6    6    0    0  0.25105784021E+02  0.20186947182E+02  0.13329800881E+02  0.34863975955E+02  0.00000000000E+00 0.  1.
         14    1    6    6    0    0 -0.54559299911E+01  0.54501990276E+00 -0.63596433858E+02  0.63832363408E+02  0.00000000000E+00 0. -1.
         -5    1    3    3    0  503 -0.18702495421E+02 -0.73753629179E+02 -0.17208864870E+03  0.18821789013E+03  0.47000000000E+01 0.  1.
         11    1    4    4    0    0 -0.91539212870E+01  0.34672604945E+01 -0.21269976410E+02  0.23414270579E+02  0.00000000000E+00 0. -1.
        -12    1    4    4    0    0  0.33051389846E+02 -0.11783630587E+03 -0.10469838896E+04  0.10541124486E+04  0.00000000000E+00 0.  1.
</event>
<event>
12    1  0.8331241E-002  0.1952225E+03  0.7818608E-02  0.1153950E+00
         21   -1    0    0  503  502  0.00000000000E+00  0.00000000000E+00  0.12022554026E+04  0.12022554026E+04  0.00000000000E+00 0. -1.
         21   -1    0    0  501  503 -0.00000000000E+00 -0.00000000000E+00 -0.54509164433E+02  0.54509164433E+02  0.00000000000E+00 0. -1.
          6    2    1    2  501    0  0.48865256907E+02 -0.75718673806E+02  0.16707512298E+03  0.25695512305E+03  0.17317825397E+03 0.  0.
         24    2    3    3    0    0  0.35774770493E+02 -0.12726407970E+02  0.12965390926E+02  0.89888412117E+02  0.80436494252E+02 0.  0.
         -6    2    1    2    0  502 -0.48865256907E+02  0.75718673806E+02  0.98067111523E+03  0.99980944402E+03  0.17257449757E+03 0.  0.
        -24    2    5    5    0    0  0.43667712578E+01  0.39760543391E+01  0.71909286134E+03  0.72335705177E+03  0.78204881063E+02 0.  0.
          5    1    3    3  501    0  0.13090486414E+02 -0.62992265836E+02  0.15410973205E+03  0.16706671093E+03  0.47000000000E+01 0. -1.
        -13    1    4    4    0    0 -0.24066789943E+02  0.76832603091E+01 -0.39211898099E+00  0.25266511917E+02  0.00000000000E+00 0.  1.
         14    1    4    4    0    0  0.59841560436E+02 -0.20409668280E+02  0.13357509907E+02  0.64621900201E+02  0.00000000000E+00 0. -1.
         -5    1    5    5    0  502 -0.53232028165E+02  0.71742619467E+02  0.26157825389E+03  0.27645239224E+03  0.47000000000E+01 0.  1.
         11    1    6    6    0    0 -0.28939185967E+02  0.68721152564E+01  0.56000662908E+03  0.56079597633E+03  0.00000000000E+00 0. -1.
        -12    1    6    6    0    0  0.33305957224E+02 -0.28960609173E+01  0.15908623226E+03  0.16256107545E+03  0.00000000000E+00 0.  1.
</event>
<event>
12    1  0.8331241E-002  0.2169487E+03  0.7818608E-02  0.1136425E+00
         21   -1    0    0  503  502  0.00000000000E+00  0.00000000000E+00  0.61537646402E+03  0.61537646402E+03  0.00000000000E+00 0. -1.
         21   -1    0    0  501  503 -0.00000000000E+00 -0.00000000000E+00 -0.15217237362E+03  0.15217237362E+03  0.00000000000E+00 0. -1.
          6    2    1    2  501    0 -0.33840739165E+02  0.12615337776E+03 -0.40215009363E+02  0.21937228623E+03  0.17160152283E+03 0.  0.
         24    2    3    3    0    0 -0.64528975036E+02  0.66532285187E+02 -0.75103422956E+02  0.14363765806E+03  0.80004494132E+02 0.  0.
         -6    2    1    2    0  502  0.33840739165E+02 -0.12615337776E+03  0.50341909976E+03  0.54817655142E+03  0.17322491498E+03 0.  0.
        -24    2    5    5    0    0 -0.23751330726E+02 -0.13848424349E+03  0.33115075663E+03  0.36605744531E+03  0.67788039098E+02 0.  0.
          5    1    3    3  501    0  0.30688235871E+02  0.59621092577E+02  0.34888413594E+02  0.75734628170E+02  0.47000000000E+01 0. -1.
        -11    1    4    4    0    0 -0.18268066239E+02 -0.16973330548E+02 -0.56116654878E+01  0.25559870570E+02  0.00000000000E+00 0.  1.
         12    1    4    4    0    0 -0.46260908796E+02  0.83505615736E+02 -0.69491757469E+02  0.11807778749E+03  0.00000000000E+00 0. -1.
         -5    1    5    5    0  502  0.57592069891E+02  0.12330865725E+02  0.17226834313E+03  0.18211910611E+03  0.47000000000E+01 0.  1.
         11    1    6    6    0    0 -0.13185124563E+02 -0.61758561010E+02  0.23086557475E+03  0.23934677974E+03  0.00000000000E+00 0. -1.
        -12    1    6    6    0    0 -0.10566206163E+02 -0.76725682480E+02  0.10028518189E+03  0.12671066558E+03  0.00000000000E+00 0.  1.
</event>
<event>
12    1  0.8331241E-002  0.3637051E+03  0.7818608E-02  0.1057205E+00
         21   -1    0    0  503  502  0.00000000000E+00  0.00000000000E+00  0.12995416070E+04  0.12995416070E+04  0.00000000000E+00 0. -1.
         21   -1    0    0  501  503 -0.00000000000E+00 -0.00000000000E+00 -0.13576578244E+03  0.13576578244E+03  0.00000000000E+00 0.  1.
          6    2    1    2  501    0 -0.11662931826E+03 -0.29737898514E+03  0.94160050824E+03  0.10091110795E+04  0.17221206419E+03 0.  0.
         24    2    3    3    0    0 -0.84039474777E+02 -0.75483256276E+02  0.34205505075E+03  0.36897308036E+03  0.79869399614E+02 0.  0.
         -6    2    1    2    0  502  0.11662931826E+03  0.29737898514E+03  0.22217531631E+03  0.42619630989E+03  0.17391022025E+03 0.  0.
        -24    2    5    5    0    0  0.14652844843E+03  0.19537468586E+03  0.15069742077E+03  0.29801669135E+03  0.80388939707E+02 0.  0.
          5    1    3    3  501    0 -0.32589843481E+02 -0.22189572886E+03  0.59954545749E+03  0.64013799917E+03  0.47000000000E+01 0. -1.
        -11    1    4    4    0    0 -0.98413406469E+02 -0.73745095007E+02  0.29134042639E+03  0.31623216418E+03  0.00000000000E+00 0.  1.
         12    1    4    4    0    0  0.14373931692E+02 -0.17381612687E+01  0.50714624357E+02  0.52740916190E+02  0.00000000000E+00 0. -1.
         -5    1    5    5    0  502 -0.29899130172E+02  0.10200429928E+03  0.71477895546E+02  0.12817961854E+03  0.47000000000E+01 0.  1.
         11    1    6    6    0    0  0.12860902860E+03  0.12852027774E+03  0.13651742973E+03  0.22736480081E+03  0.00000000000E+00 0. -1.
        -12    1    6    6    0    0  0.17919419834E+02  0.66854408114E+02  0.14179991033E+02  0.70651890542E+02  0.00000000000E+00 0.  1.
</event>
<event>
12    1  0.8331241E-002  0.2300237E+03  0.7818608E-02  0.1126854E+00
         21   -1    0    0  503  502  0.00000000000E+00  0.00000000000E+00  0.28478899630E+03  0.28478899630E+03  0.00000000000E+00 0.  1.
         21   -1    0    0  501  503 -0.00000000000E+00 -0.00000000000E+00 -0.64662319140E+03  0.64662319140E+03  0.00000000000E+00 0. -1.
          6    2    1    2  501    0  0.14040668185E+03  0.55134670816E+02 -0.57436918942E+03  0.61823165161E+03  0.17192015896E+03 0.  0.
         24    2    3    3    0    0  0.89278479784E+01  0.49987581431E+02 -0.29640898597E+03  0.31066516938E+03  0.77949315174E+02 0.  0.
         -6    2    1    2    0  502 -0.14040668185E+03 -0.55134670816E+02  0.21253499432E+03  0.31318053610E+03  0.17365787096E+03 0.  0.
        -24    2    5    5    0    0 -0.37749511276E+01 -0.45634095899E+02  0.10264120328E+03  0.13751828611E+03  0.79242295766E+02 0.  0.
          5    1    3    3  501    0  0.13147883387E+03  0.51470893850E+01 -0.27796020345E+03  0.30756648222E+03  0.47000000000E+01 0. -1.
        -11    1    4    4    0    0 -0.83182322878E+01  0.41433898117E+02 -0.59530687223E+02  0.73005914985E+02  0.00000000000E+00 0.  1.
         12    1    4    4    0    0  0.17246080266E+02  0.85536833134E+01 -0.23687829875E+03  0.23765925440E+03  0.00000000000E+00 0. -1.
         -5    1    5    5    0  502 -0.13663173072E+03 -0.95005749161E+01  0.10989379104E+03  0.17566224999E+03  0.47000000000E+01 0.  1.
         11    1    6    6    0    0  0.34364742822E+02 -0.10269966636E+02  0.23723907627E+02  0.43002692439E+02  0.00000000000E+00 0. -1.
        -12    1    6    6    0    0 -0.38139693949E+02 -0.35364129263E+02  0.78917295653E+02  0.94515593668E+02  0.00000000000E+00 0.  1.
</event>
<event>
12    1  0.8331241E-002  0.3450700E+03  0.7818608E-02  0.1064669E+00
         21   -1    0    0  501  502  0.00000000000E+00  0.00000000000E+00  0.67812802297E+03  0.67812802297E+03  0.00000000000E+00 0. -1.
         21   -1    0    0  502  503 -0.00000000000E+00 -0.00000000000E+00 -0.20907031761E+03  0.20907031761E+03  0.00000000000E+00 0. -1.
         -6    2    1    2    0  503 -0.29860992265E+03 -0.16280041565E+02  0.56828763481E+02  0.34960557257E+03  0.17193493640E+03 0.  0.
        -24    2    3    3    0    0 -0.21580034982E+03  0.53741032165E+02  0.33173637742E+02  0.23851087831E+03  0.79555385188E+02 0.  0.
          6    2    1    2  501    0  0.29860992265E+03  0.16280041565E+02  0.41222894188E+03  0.53759276801E+03  0.17216375354E+03 0.  0.
         24    2    5    5    0    0  0.25839933085E+03  0.76885867374E+01  0.41602525215E+03  0.49603309090E+03  0.78374028212E+02 0.  0.
          5    1    5    5  501    0  0.40210591805E+02  0.85914548273E+01 -0.37963102702E+01  0.41559677104E+02  0.47000000000E+01 0. -1.
        -13    1    6    6    0    0  0.48220999953E+02  0.11879750128E+02  0.14349042171E+03  0.15184167551E+03  0.00000000000E+00 0.  1.
         14    1    6    6    0    0  0.21017833089E+03 -0.41911633911E+01  0.27253483044E+03  0.34419141539E+03  0.00000000000E+00 0. -1.
         -5    1    3    3    0  503 -0.82809572835E+02 -0.70021073729E+02  0.23655125740E+02  0.11109469426E+03  0.47000000000E+01 0.  1.
         13    1    4    4    0    0 -0.14030572669E+03 -0.52173036798E+01  0.19385914487E+02  0.14173472009E+03  0.00000000000E+00 0. -1.
        -14    1    4    4    0    0 -0.75494623127E+02  0.58958335845E+02  0.13787723255E+02  0.96776158217E+02  0.00000000000E+00 0.  1.
</event>
<event>
12    1  0.8331241E-002  0.2161975E+03  0.7818608E-02  0.1137167E+00
         21   -1    0    0  503  502  0.00000000000E+00  0.00000000000E+00  0.52948942480E+03  0.52948942480E+03  0.00000000000E+00 0. -1.
         21   -1    0    0  501  503 -0.00000000000E+00 -0.00000000000E+00 -0.13411747208E+03  0.13411747208E+03  0.00000000000E+00 0. -1.
          6    2    1    2  501    0 -0.11112055601E+03 -0.67462062422E+02  0.11863477360E+01  0.21402527012E+03  0.17001911950E+03 0.  0.
         24    2    3    3    0    0 -0.13198564439E+03 -0.93060272924E+02  0.74527319494E+01  0.18008447070E+03  0.79337561414E+02 0.  0.
         -6    2    1    2    0  502  0.11112055601E+03  0.67462062422E+02  0.39418560498E+03  0.44958162676E+03  0.17274964577E+03 0.  0.
        -24    2    5    5    0    0  0.28134885135E+02 -0.18458447272E+02  0.23494061691E+03  0.25045851966E+03  0.80000565988E+02 0.  0.
          5    1    3    3  501    0  0.20865088384E+02  0.25598210502E+02 -0.62663842134E+01  0.33940799420E+02  0.47000000000E+01 0. -1.
        -13    1    4    4    0    0 -0.75638449065E+02 -0.96201825295E+02  0.14413046447E+02  0.12322216552E+03  0.00000000000E+00 0.  1.
         14    1    4    4    0    0 -0.56347195330E+02  0.31415523708E+01 -0.69603144972E+01  0.56862305183E+02  0.00000000000E+00 0. -1.
         -5    1    5    5    0  502  0.82985670876E+02  0.85920509694E+02  0.15924498807E+03  0.19912310711E+03  0.47000000000E+01 0.  1.
         11    1    6    6    0    0  0.55963392191E+02 -0.82822672540E+01  0.16749621371E+03  0.17679219107E+03  0.00000000000E+00 0. -1.
        -12    1    6    6    0    0 -0.27828507056E+02 -0.10176180018E+02  0.67444403203E+02  0.73666328591E+02  0.00000000000E+00 0.  1.
</event>
<event>
12    1  0.8331241E-002  0.3151024E+03  0.7818608E-02  0.1078201E+00
         21   -1    0    0  501  502  0.00000000000E+00  0.00000000000E+00  0.10593060893E+03  0.10593060893E+03  0.00000000000E+00 0. -1.
         21   -1    0    0  502  503 -0.00000000000E+00 -0.00000000000E+00 -0.12969858314E+04  0.12969858314E+04  0.00000000000E+00 0. -1.
         -6    2    1    2    0  503 -0.20443928026E+03 -0.16225421154E+03 -0.96687553621E+03  0.10162045531E+04  0.17234135541E+03 0.  0.
        -24    2    3    3    0    0 -0.38420288751E+02 -0.90351836174E+02 -0.30866314118E+03  0.33356416163E+03  0.79702837537E+02 0.  0.
          6    2    1    2  501    0  0.20443928026E+03  0.16225421154E+03 -0.22417968629E+03  0.38671188724E+03  0.17654377222E+03 0.  0.
         24    2    5    5    0    0  0.17143311374E+03  0.15522525792E+03 -0.24545998516E+03  0.34654032593E+03  0.79720762668E+02 0.  0.
          5    1    5    5  501    0  0.33006166525E+02  0.70289536198E+01  0.21280298869E+02  0.40171561305E+02  0.47000000000E+01 0. -1.
        -11    1    6    6    0    0  0.21014306080E+02  0.54062062423E+02 -0.93352725117E+02  0.10990468116E+03  0.00000000000E+00 0.  1.
         12    1    6    6    0    0  0.15041880766E+03  0.10116319550E+03 -0.15210726004E+03  0.23663564478E+03  0.00000000000E+00 0. -1.
         -5    1    3    3    0  503 -0.16601899151E+03 -0.71902375366E+02 -0.65821239504E+03  0.68264039150E+03  0.47000000000E+01 0.  1.
         13    1    4    4    0    0 -0.57897634603E+02 -0.35485396449E+02 -0.17816202991E+03  0.19066478006E+03  0.00000000000E+00 0. -1.
        -14    1    4    4    0    0  0.19477345852E+02 -0.54866439725E+02 -0.13050111127E+03  0.14289938157E+03  0.00000000000E+00 0.  1.
</event>
<event>
12    1  0.8331241E-002  0.2307543E+03  0.7818608E-02  0.1126233E+00
         21   -1    0    0  503  502  0.00000000000E+00  0.00000000000E+00  0.35614096525E+03  0.35614096525E+03  0.00000000000E+00 0. -1.
         21   -1    0    0  501  503 -0.00000000000E+00 -0.00000000000E+00 -0.46900979516E+03  0.46900979516E+03  0.00000000000E+00 0. -1.
          6    2    1    2  501    0 -0.10424756820E+03 -0.11211904272E+03 -0.39717080826E+03  0.45898803090E+03  0.17171815966E+03 0.  0.
         24    2    3    3    0    0 -0.12328150442E+03 -0.43139807456E+02 -0.30624073151E+03  0.34318304619E+03  0.83257703777E+02 0.  0.
         -6    2    1    2    0  502  0.10424756820E+03  0.11211904272E+03  0.28430197835E+03  0.36616272950E+03  0.17265368333E+03 0.  0.
        -24    2    5    5    0    0  0.98042592467E+02  0.89887323035E+02  0.30002052045E+03  0.33784464960E+03  0.80216044481E+02 0.  0.
          5    1    3    3  501    0  0.19033936214E+02 -0.68979235265E+02 -0.90930076752E+02  0.11580498471E+03  0.47000000000E+01 0. -1.
        -11    1    4    4    0    0  0.48755671149E+01 -0.11582311647E+02 -0.36909632175E+01  0.13097492403E+02  0.00000000000E+00 0.  1.
         12    1    4    4    0    0 -0.12815707153E+03 -0.31557495809E+02 -0.30254976829E+03  0.33008555379E+03  0.00000000000E+00 0. -1.
         -5    1    5    5    0  502  0.62049757369E+01  0.22231719686E+02 -0.15718542095E+02  0.28318079908E+02  0.47000000000E+01 0.  1.
         11    1    6    6    0    0  0.15358261964E+02  0.30120682780E+02  0.16600957696E+03  0.16941756516E+03  0.00000000000E+00 0. -1.
        -12    1    6    6    0    0  0.82684330503E+02  0.59766640254E+02  0.13401094348E+03  0.16842708443E+03  0.00000000000E+00 0.  1.
</event>
<event>
12    1  0.8331241E-002  0.1896982E+03  0.7818608E-02  0.1158795E+00
         21   -1    0    0  501  502  0.00000000000E+00  0.00000000000E+00  0.83962128663E+02  0.83962128663E+02  0.00000000000E+00 0. -1.
         21   -1    0    0  502  503 -0.00000000000E+00 -0.00000000000E+00 -0.91572413335E+03  0.91572413335E+03  0.00000000000E+00 0. -1.
         -6    2    1    2    0  503  0.30639030269E+02  0.71201465805E+02 -0.78081580114E+03  0.80352891609E+03  0.17313868651E+03 0.  0.
        -24    2    3    3    0    0 -0.16218863730E+02  0.19392200498E+02 -0.65548260737E+03  0.65996582312E+03  0.72514344369E+02 0.  0.
          6    2    1    2  501    0 -0.30639030269E+02 -0.71201465805E+02 -0.50946203548E+02  0.19615734593E+03  0.17284035928E+03 0.  0.
         24    2    5    5    0    0 -0.12758523292E+02 -0.47161842675E+02 -0.10039742935E+03  0.13814760758E+03  0.81351695375E+02 0.  0.
          5    1    5    5  501    0 -0.17880506976E+02 -0.24039623130E+02  0.49451225798E+02  0.58009738345E+02  0.47000000000E+01 0. -1.
        -13    1    6    6    0    0  0.33164446526E+02 -0.27004464841E+02 -0.32397770765E+02  0.53653864588E+02  0.00000000000E+00 0.  1.
         14    1    6    6    0    0 -0.45922969818E+02 -0.20157377834E+02 -0.67999658582E+02  0.84493742995E+02  0.00000000000E+00 0. -1.
         -5    1    3    3    0  503  0.46857893999E+02  0.51809265307E+02 -0.12533319377E+03  0.14356309297E+03  0.47000000000E+01 0.  1.
         13    1    4    4    0    0 -0.19827031061E+02  0.23676619560E+02 -0.65318004547E+03  0.65390967670E+03  0.00000000000E+00 0. -1.
        -14    1    4    4    0    0  0.36081673308E+01 -0.42844190624E+01 -0.23025618976E+01  0.60561464218E+01  0.00000000000E+00 0.  1.
</event>
<event>
12    1  0.8331241E-002  0.2033217E+03  0.7818608E-02  0.1147123E+00
         21   -1    0    0  501  502  0.00000000000E+00  0.00000000000E+00  0.38767554881E+03  0.38767554881E+03  0.00000000000E+00 0. -1.
         21   -1    0    0  502  503 -0.00000000000E+00 -0.00000000000E+00 -0.12278483370E+03  0.12278483370E+03  0.00000000000E+00 0.  1.
         -6    2    1    2    0  503 -0.98055411993E+02 -0.45958675828E+02  0.38965215627E+02  0.20702177763E+03  0.17208330738E+03 0.  0.
        -24    2    3    3    0    0 -0.55078009515E+02 -0.63640775219E+02  0.83697704803E+02  0.14234721268E+03  0.78572818245E+02 0.  0.
          6    2    1    2  501    0  0.98055411993E+02  0.45958675828E+02  0.22592549949E+03  0.30343860488E+03  0.17118876104E+03 0.  0.
         24    2    5    5    0    0  0.11680330491E+02 -0.10189961616E+02  0.16326603911E+03  0.18276705825E+03  0.80670518880E+02 0.  0.
          5    1    5    5  501    0  0.86375081501E+02  0.56148637444E+02  0.62659460377E+02  0.12067154663E+03  0.47000000000E+01 0. -1.
        -11    1    6    6    0    0  0.15498923963E+02 -0.44749293201E+02  0.96092514078E+02  0.10712836761E+03  0.00000000000E+00 0.  1.
         12    1    6    6    0    0 -0.38185934718E+01  0.34559331585E+02  0.67173525035E+02  0.75638690637E+02  0.00000000000E+00 0. -1.
         -5    1    3    3    0  503 -0.42977402478E+02  0.17682099391E+02 -0.44732489176E+02  0.64674564942E+02  0.47000000000E+01 0.  1.
         13    1    4    4    0    0  0.77681458734E+01 -0.15770153689E+02 -0.96519433387E+01  0.20054970653E+02  0.00000000000E+00 0. -1.
        -14    1    4    4    0    0 -0.62846155388E+02 -0.47870621531E+02  0.93349648141E+02  0.12229224203E+03  0.00000000000E+00 0.  1.
</event>
<event>
12    1  0.8331241E-002  0.1783025E+03  0.7818608E-02  0.1169779E+00
         21   -1    0    0  501  502  0.00000000000E+00  0.00000000000E+00  0.10214878363E+04  0.10214878363E+04  0.00000000000E+00 0. -1.
         21   -1    0    0  502  503 -0.00000000000E+00 -0.00000000000E+00 -0.12759535255E+03  0.12759535255E+03  0.00000000000E+00 0. -1.
         -6    2    1    2    0  503  0.11524803996E+02 -0.47490154001E+02 -0.52825405037E+02  0.18596320694E+03  0.17147494011E+03 0.  0.
        -24    2    3    3    0    0  0.46808827481E+02  0.33844691436E+01 -0.76341882396E+02  0.11956814462E+03  0.79157673273E+02 0.  0.
          6    2    1    2  501    0 -0.11524803996E+02  0.47490154001E+02  0.94671788881E+03  0.96311998193E+03  0.17010938471E+03 0.  0.
         24    2    5    5    0    0  0.51132092951E+02  0.59632989627E+02  0.56482561148E+03  0.57590281201E+03  0.80408290135E+02 0.  0.
          5    1    5    5  501    0 -0.62656896946E+02 -0.12142835626E+02  0.38189227733E+03  0.38721716992E+03  0.47000000000E+01 0. -1.
        -11    1    6    6    0    0  0.41116453214E+01 -0.10220059568E+02  0.10501340474E+02  0.15219507107E+02  0.00000000000E+00 0.  1.
         12    1    6    6    0    0  0.47020447629E+02  0.69853049195E+02  0.55432427100E+03  0.56068330490E+03  0.00000000000E+00 0. -1.
         -5    1    3    3    0  503 -0.35284023486E+02 -0.50874623145E+02  0.23516477359E+02  0.66395062323E+02  0.47000000000E+01 0.  1.
         11    1    4    4    0    0  0.34654666724E+02 -0.19645177145E+01  0.68020123040E+01  0.35370505043E+02  0.00000000000E+00 0. -1.
        -12    1    4    4    0    0  0.12154160757E+02  0.53489868581E+01 -0.83143894700E+02  0.84197639575E+02  0.00000000000E+00 0.  1.
</event>
<event>
12    1  0.8331241E-002  0.2279101E+03  0.7818608E-02  0.1128236E+00
         21   -1    0    0  501  502  0.00000000000E+00  0.00000000000E+00  0.44276586901E+03  0.44276586901E+03  0.00000000000E+00 0.  1.
         21   -1    0    0  502  503 -0.00000000000E+00 -0.00000000000E+00 -0.16153685836E+03  0.16153685836E+03  0.00000000000E+00 0. -1.
         -6    2    1    2    0  503 -0.69611656169E+02  0.13268337295E+03 -0.17931156584E+02  0.22861440101E+03  0.17173339175E+03 0.  0.
        -24    2    3    3    0    0 -0.67574305277E+02  0.44177765878E+02 -0.62052593546E+02  0.12958822022E+03  0.80153731808E+02 0.  0.
          6    2    1    2  501    0  0.69611656169E+02 -0.13268337295E+03  0.29916016724E+03  0.37568832636E+03  0.17086325753E+03 0.  0.
         24    2    5    5    0    0  0.23163947575E+02  0.10754440032E+01  0.82412318705E+02  0.11674715430E+03  0.79374950180E+02 0.  0.
          5    1    5    5  501    0  0.46447708594E+02 -0.13375881695E+03  0.21674784853E+03  0.25894117206E+03  0.47000000000E+01 0. -1.
        -13    1    6    6    0    0 -0.10176670065E+02  0.12025919575E+02  0.80038384028E+02  0.81574078438E+02  0.00000000000E+00 0.  1.
         14    1    6    6    0    0  0.33340617640E+02 -0.10950475572E+02  0.23739346777E+01  0.35173075864E+02  0.00000000000E+00 0. -1.
         -5    1    3    3    0  503 -0.20373508915E+01  0.88505607071E+02  0.44121436962E+02  0.99026180787E+02  0.47000000000E+01 0.  1.
         13    1    4    4    0    0 -0.66784673886E+02  0.46387239988E+02 -0.15255933784E+02  0.82732775944E+02  0.00000000000E+00 0. -1.
        -14    1    4    4    0    0 -0.78963139073E+00 -0.22094741099E+01 -0.46796659762E+02  0.46855444277E+02  0.00000000000E+00 0.  1.
</event>
<event>
12    1  0.8331241E-002  0.1866779E+03  0.7818608E-02  0.1161750E+00
         21   -1    0    0  501  502  0.00000000000E+00  0.00000000000E+00  0.10647475899E+03  0.10647475899E+03  0.00000000000E+00 0. -1.
         21   -1    0    0  502  503 -0.00000000000E+00 -0.00000000000E+00 -0.34907073964E+03  0.34907073964E+03  0.00000000000E+00 0. -1.
         -6    2    1    2    0  503  0.71178025543E+02  0.20025971343E+02 -0.18033730103E+03  0.25875933896E+03  0.17019842100E+03 0.  0.
        -24    2    3    3    0    0  0.90068999790E+02  0.63083262064E+02 -0.14228359312E+03  0.19808830899E+03  0.83080891980E+02 0.  0.
          6    2    1    2  501    0 -0.71178025543E+02 -0.20025971343E+02 -0.62258679626E+02  0.19678615966E+03  0.17140973892E+03 0.  0.
         24    2    5    5    0    0 -0.98425008757E+02 -0.27762044692E+02 -0.88657241592E+02  0.15778335209E+03  0.81100346698E+02 0.  0.
          5    1    5    5  501    0  0.27246983214E+02  0.77360733489E+01  0.26398561966E+02  0.39002807578E+02  0.47000000000E+01 0. -1.
        -13    1    6    6    0    0 -0.37943690755E+02 -0.49616517266E+02 -0.62490639415E+02  0.88354979873E+02  0.00000000000E+00 0.  1.
         14    1    6    6    0    0 -0.60481318002E+02  0.21854472574E+02 -0.26166602176E+02  0.69428372213E+02  0.00000000000E+00 0. -1.
         -5    1    3    3    0  503 -0.18890974247E+02 -0.43057290721E+02 -0.38053707910E+02  0.60671029972E+02  0.47000000000E+01 0.  1.
         11    1    4    4    0    0  0.35409897475E+02  0.18591334088E+02 -0.11628096098E+03  0.12296650124E+03  0.00000000000E+00 0. -1.
        -12    1    4    4    0    0  0.54659102314E+02  0.44491927976E+02 -0.26002632140E+02  0.75121807746E+02  0.00000000000E+00 0.  1.
</event>
<event>
12    1  0.8331241E-002  0.1803741E+03  0.7818608E-02  0.1167517E+00
         21   -1    0    0  501  502  0.00000000000E+00  0.00000000000E+00  0.73488983598E+03  0.73488983598E+03  0.00000000000E+00 0.  1.
         21   -1    0    0  502  503 -0.00000000000E+00 -0.00000000000E+00 -0.59114299707E+02  0.59114299707E+02  0.00000000000E+00 0.  1.
         -6    2    1    2    0  503 -0.45392611108E+01 -0.53679904416E+02  0.53711433017E+03  0.56649207740E+03  0.17181191183E+03 0.  0.
        -24    2    3    3    0    0  0.14711553179E+02 -0.22221353471E+02  0.51881495411E+03  0.52505306869E+03  0.76167906514E+02 0.  0.
          6    2    1    2  501    0  0.45392611108E+01  0.53679904416E+02  0.13866120610E+03  0.22751205829E+03  0.17214142314E+03 0.  0.
         24    2    5    5    0    0 -0.58193167562E+02  0.54941025056E+01  0.91212742586E+02  0.13515040064E+03  0.80803690949E+02 0.  0.
          5    1    5    5  501    0  0.62732428673E+02  0.48185801910E+02  0.47448463512E+02  0.92361657643E+02  0.47000000000E+01 0. -1.
        -13    1    6    6    0    0  0.58986328164E+01  0.15149642957E+02  0.61928453446E+02  0.64026860747E+02  0.00000000000E+00 0.  1.
         14    1    6    6    0    0 -0.64091800379E+02 -0.96555404510E+01  0.29284289139E+02  0.71123539898E+02  0.00000000000E+00 0. -1.
         -5    1    3    3    0  503 -0.19250814289E+02 -0.31458550944E+02  0.18299376059E+02  0.41439008705E+02  0.47000000000E+01 0.  1.
         11    1    4    4    0    0  0.13901297426E+02  0.24160175796E+02  0.10465912908E+03  0.10830740263E+03  0.00000000000E+00 0. -1.
        -12    1    4    4    0    0  0.81025575249E+00 -0.46381529267E+02  0.41415582503E+03  0.41674566606E+03  0.00000000000E+00 0.  1.
</event>
<event>
12    1  0.8331241E-002  0.2551119E+03  0.7818608E-02  0.1110360E+00
         21   -1    0    0  501  502  0.00000000000E+00  0.00000000000E+00  0.82734953702E+03  0.82734953702E+03  0.00000000000E+00 0.  1.
         21   -1    0    0  502  503 -0.00000000000E+00 -0.00000000000E+00 -0.94575506077E+02  0.94575506077E+02  0.00000000000E+00 0. -1.
         -6    2    1    2    0  503 -0.18755488554E+03 -0.16813447471E+02  0.17350072482E+03  0.30721477136E+03  0.16976126508E+03 0.  0.
        -24    2    3    3    0    0 -0.16699021008E+03 -0.29180247288E+02  0.72373977958E+02  0.20317366148E+03  0.85465355199E+02 0.  0.
          6    2    1    2  501    0  0.18755488554E+03  0.16813447471E+02  0.55927330613E+03  0.61471027174E+03  0.17211205690E+03 0.  0.
         24    2    5    5    0    0  0.12299175027E+03 -0.28235640249E+02  0.47580803794E+03  0.49987839579E+03  0.86953433477E+02 0.  0.
          5    1    5    5  501    0  0.64563135276E+02  0.45049087720E+02  0.83465268181E+02  0.11483187595E+03  0.47000000000E+01 0. -1.
        -11    1    6    6    0    0  0.10802510343E+03 -0.15647637261E+02  0.46478345432E+03  0.47742845635E+03  0.00000000000E+00 0.  1.
         12    1    6    6    0    0  0.14966646839E+02 -0.12588002989E+02  0.11024583622E+02  0.22449939441E+02  0.00000000000E+00 0. -1.
         -5    1    3    3    0  503 -0.20564675468E+02  0.12366799817E+02  0.10112674686E+03  0.10404110988E+03  0.47000000000E+01 0.  1.
         11    1    4    4    0    0 -0.93717223405E+02 -0.53354713534E+02  0.64395884171E+02  0.12560443192E+03  0.00000000000E+00 0. -1.
        -12    1    4    4    0    0 -0.73272986673E+02  0.24174466246E+02  0.79780937872E+01  0.77569229561E+02  0.00000000000E+00 0.  1.
</event>
<event>
12    1  0.8331241E-002  0.1900203E+03  0.7818608E-02  0.1158901E+00
         21   -1    0    0  501  502  0.00000000000E+00  0.00000000000E+00  0.17835268942E+03  0.17835268942E+03  0.00000000000E+00 0.  1.
         21   -1    0    0  502  503 -0.00000000000E+00 -0.00000000000E+00 -0.40167465009E+03  0.40167465009E+03  0.00000000000E+00 0. -1.
         -6    2    1    2    0  503  0.78935942511E+02 -0.81792681690E+01 -0.31670399333E+03  0.36830133350E+03  0.17043083471E+03 0.  0.
        -24    2    3    3    0    0  0.85750323642E+02 -0.31925090391E+02 -0.32037131097E+03  0.34288796926E+03  0.81006500790E+02 0.  0.
          6    2    1    2  501    0 -0.78935942511E+02  0.81792681690E+01  0.93382032660E+02  0.21172600600E+03  0.17265547818E+03 0.  0.
         24    2    5    5    0    0 -0.10151052257E+03  0.51542955561E+02  0.54089583406E+02  0.14882920467E+03  0.79141560950E+02 0.  0.
          5    1    5    5  501    0  0.22574580058E+02 -0.43363687393E+02  0.39292449254E+02  0.62896801329E+02  0.47000000000E+01 0. -1.
        -11    1    6    6    0    0 -0.80276497346E+02  0.37443223389E+01  0.11101068668E+02  0.81126874101E+02  0.00000000000E+00 0.  1.
         12    1    6    6    0    0 -0.21234025223E+02  0.47798633223E+02  0.42988514738E+02  0.67702330569E+02  0.00000000000E+00 0. -1.
         -5    1    3    3    0  503 -0.68143811319E+01  0.23745822222E+02  0.36673176442E+01  0.25413364238E+02  0.47000000000E+01 0.  1.
         11    1    4    4    0    0  0.90762801951E+02 -0.49813961914E+02 -0.27629980363E+03  0.29506083865E+03  0.00000000000E+00 0. -1.
        -12    1    4    4    0    0 -0.50124783087E+01  0.17888871523E+02 -0.44071507345E+02  0.47827130615E+02  0.00000000000E+00 0.  1.
</event>
<event>
12    1  0.8331241E-002  0.2224300E+03  0.7818608E-02  0.1132241E+00
         21   -1    0    0  503  502  0.00000000000E+00  0.00000000000E+00  0.31023137891E+03  0.31023137891E+03  0.00000000000E+00 0. -1.
         21   -1    0    0  501  503 -0.00000000000E+00 -0.00000000000E+00 -0.15946579715E+03  0.15946579715E+03  0.00000000000E+00 0.  1.
          6    2    1    2  501    0 -0.39739362704E+02  0.13346762292E+03  0.61134120306E+02  0.23067829450E+03  0.17344241572E+03 0.  0.
         24    2    3    3    0    0 -0.29565946176E+01 -0.32780728230E+01  0.33248332044E+02  0.86275855046E+02  0.79489523630E+02 0.  0.
         -6    2    1    2    0  502  0.39739362704E+02 -0.13346762292E+03  0.89631461451E+02  0.23901888156E+03  0.17234675380E+03 0.  0.
        -24    2    5    5    0    0  0.39366429786E+02 -0.17909239652E+01  0.29103034229E+02  0.94020010434E+02  0.80248691939E+02 0.  0.
          5    1    3    3  501    0 -0.36782768087E+02  0.13674569575E+03  0.27885788262E+02  0.14440243945E+03  0.47000000000E+01 0. -1.
        -11    1    4    4    0    0  0.24161576226E+02 -0.16904624806E+02  0.44941338005E+02  0.53751948497E+02  0.00000000000E+00 0.  1.
         12    1    4    4    0    0 -0.27118170843E+02  0.13626551983E+02 -0.11693005960E+02  0.32523906549E+02  0.00000000000E+00 0. -1.
         -5    1    5    5    0  502  0.37293291862E+00 -0.13167669896E+03  0.60528427222E+02  0.14499887113E+03  0.47000000000E+01 0.  1.
         13    1    6    6    0    0 -0.17498746243E+02 -0.56688593159E+01  0.32042762844E+02  0.36946999022E+02  0.00000000000E+00 0. -1.
        -14    1    6    6    0    0  0.56865176029E+02  0.38779353506E+01 -0.29397286147E+01  0.57073011412E+02  0.00000000000E+00 0.  1.
</event>
<event>
12    1  0.8331241E-002  0.1939233E+03  0.7818608E-02  0.1155028E+00
         21   -1    0    0  501  502  0.00000000000E+00  0.00000000000E+00  0.76545811501E+02  0.76545811501E+02  0.00000000000E+00 0. -1.
         21   -1    0    0  502  503 -0.00000000000E+00 -0.00000000000E+00 -0.57172385384E+03  0.57172385384E+03  0.00000000000E+00 0. -1.
         -6    2    1    2    0  503  0.82842938104E+02 -0.30317773249E+02 -0.36953034326E+03  0.41719916263E+03  0.17239590173E+03 0.  0.
        -24    2    3    3    0    0  0.10212244810E+03 -0.69284518426E+02 -0.31916471663E+03  0.35049913952E+03  0.75856387772E+02 0.  0.
          6    2    1    2  501    0 -0.82842938104E+02  0.30317773249E+02 -0.12564769907E+03  0.23107050271E+03  0.17269659282E+03 0.  0.
         24    2    5    5    0    0 -0.91484681323E+01  0.69543218665E+02 -0.92364779319E+02  0.14107409601E+03  0.80316214891E+02 0.  0.
          5    1    5    5  501    0 -0.73694469971E+02 -0.39225445416E+02 -0.33282919753E+02  0.89996406704E+02  0.47000000000E+01 0. -1.
        -11    1    6    6    0    0  0.19951582784E+02  0.26691847031E+01 -0.56144727912E+02  0.59644116850E+02  0.00000000000E+00 0.  1.
         12    1    6    6    0    0 -0.29100050916E+02  0.66874033962E+02 -0.36220051407E+02  0.81429979157E+02  0.00000000000E+00 0. -1.
         -5    1    3    3    0  503 -0.19279510000E+02  0.38966745177E+02 -0.50365626637E+02  0.66700023104E+02  0.47000000000E+01 0.  1.
         13    1    4    4    0    0  0.93201259882E+02 -0.48281088622E+02 -0.17142611991E+03  0.20100858924E+03  0.00000000000E+00 0. -1.
        -14    1    4    4    0    0  0.89211882219E+01 -0.21003429804E+02 -0.14773859672E+03  0.14949055028E+03  0.00000000000E+00 0.  1.
</event>
<event>
12    1  0.8331241E-002  0.3303026E+03  0.7818608E-02  0.1071012E+00
         21   -1    0    0  501  502  0.00000000000E+00  0.00000000000E+00  0.32268809955E+03  0.32268809955E+03  0.00000000000E+00 0. -1.
         21   -1    0    0  502  503 -0.00000000000E+00 -0.00000000000E+00 -0.36326316074E+03  0.36326316074E+03  0.00000000000E+00 0. -1.
         -6    2    1    2    0  503  0.51266819224E+02 -0.27696455164E+03  0.70138550140E+02  0.33758747906E+03  0.17236078492E+03 0.  0.
        -24    2    3    3    0    0 -0.12622990044E+02 -0.16520804559E+03  0.94047868765E+02  0.20657156441E+03  0.79835902940E+02 0.  0.
          6    2    1    2  501    0 -0.51266819224E+02  0.27696455164E+03 -0.11071361133E+03  0.34836378124E+03  0.17251716066E+03 0.  0.
         24    2    5    5    0    0  0.50811472477E+01  0.25706995870E+03 -0.10146851756E+03  0.28771355525E+03  0.79827614857E+02 0.  0.
          5    1    5    5  501    0 -0.56347966472E+02  0.19894592945E+02 -0.92450937671E+01  0.60650225990E+02  0.47000000000E+01 0. -1.
        -13    1    6    6    0    0  0.36491681788E+02  0.67445304779E+02 -0.22520573481E+02  0.79923014247E+02  0.00000000000E+00 0.  1.
         14    1    6    6    0    0 -0.31410534540E+02  0.18962465392E+03 -0.78947944081E+02  0.20779054100E+03  0.00000000000E+00 0. -1.
         -5    1    3    3    0  503  0.63889809268E+02 -0.11175650606E+03 -0.23909318625E+02  0.13101591465E+03  0.47000000000E+01 0.  1.
         13    1    4    4    0    0  0.71355188591E+01 -0.11473213761E+03  0.23041939127E+02  0.11724039401E+03  0.00000000000E+00 0. -1.
        -14    1    4    4    0    0 -0.19758508903E+02 -0.50475907979E+02  0.71005929638E+02  0.89331170395E+02  0.00000000000E+00 0.  1.
</event>
<event>
12    1  0.8331241E-002  0.2087216E+03  0.7818608E-02  0.1143176E+00
         21   -1    0    0  503  502  0.00000000000E+00  0.00000000000E+00  0.10869148012E+03  0.10869148012E+03  0.00000000000E+00 0.  1.
         21   -1    0    0  501  503 -0.00000000000E+00 -0.00000000000E+00 -0.39522497343E+03  0.39522497343E+03  0.00000000000E+00 0.  1.
          6    2    1    2  501    0  0.18848725187E+02  0.11210514202E+03 -0.14098896440E+03  0.25187814179E+03  0.17504820170E+03 0.  0.
         24    2    3    3    0    0  0.69588385774E+02  0.69199425348E+02 -0.13490466048E+03  0.18498627058E+03  0.79934654440E+02 0.  0.
         -6    2    1    2    0  502 -0.18848725187E+02 -0.11210514202E+03 -0.14554452891E+03  0.25203831177E+03  0.17151461569E+03 0.  0.
        -24    2    5    5    0    0  0.99445080060E+01 -0.14249769869E+03 -0.11119207380E+03  0.19767896160E+03  0.79428000177E+02 0.  0.
          5    1    3    3  501    0 -0.50739660587E+02  0.42905716674E+02 -0.60843039200E+01  0.66891871211E+02  0.47000000000E+01 0. -1.
        -11    1    4    4    0    0  0.26944988441E+02  0.25028181335E+02 -0.11454197746E+03  0.12030090134E+03  0.00000000000E+00 0.  1.
         12    1    4    4    0    0  0.42643397333E+02  0.44171244013E+02 -0.20362683019E+02  0.64685369238E+02  0.00000000000E+00 0. -1.
         -5    1    5    5    0  502 -0.28793233193E+02  0.30392556668E+02 -0.34352455118E+02  0.54359350172E+02  0.47000000000E+01 0.  1.
         13    1    6    6    0    0 -0.34686301883E+02 -0.51603387933E+02 -0.41632271366E+02  0.74828438468E+02  0.00000000000E+00 0. -1.
        -14    1    6    6    0    0  0.44630809889E+02 -0.90894310757E+02 -0.69559802430E+02  0.12285052313E+03  0.00000000000E+00 0.  1.
</event>
<event>
12    1  0.8331241E-002  0.1789137E+03  0.7818608E-02  0.1169364E+00
         21   -1    0    0  503  502  0.00000000000E+00  0.00000000000E+00  0.20619332264E+02  0.20619332264E+02  0.00000000000E+00 0. -1.
         21   -1    0    0  501  503 -0.00000000000E+00 -0.00000000000E+00 -0.20661692519E+04  0.20661692519E+04  0.00000000000E+00 0. -1.
          6    2    1    2  501    0  0.24919916437E+02  0.29572647496E+02 -0.15476006098E+04  0.15576726846E+04  0.17257172808E+03 0.  0.
         24    2    3    3    0    0  0.40437043036E+02  0.49449995166E+02 -0.52758622868E+03  0.53733581975E+03  0.79385754569E+02 0.  0.
         -6    2    1    2    0  502 -0.24919916437E+02 -0.29572647496E+02 -0.49794930984E+03  0.52911589952E+03  0.17468421863E+03 0.  0.
        -24    2    5    5    0    0  0.34206854207E+02 -0.38576936963E+02 -0.14860010082E+03  0.17465290839E+03  0.75916793307E+02 0.  0.
          5    1    3    3  501    0 -0.15517126599E+02 -0.19877347670E+02 -0.10200143811E+04  0.10203368649E+04  0.47000000000E+01 0. -1.
        -13    1    4    4    0    0  0.37141581750E+02  0.30443577671E+01 -0.39634018712E+03  0.39808831826E+03  0.00000000000E+00 0.  1.
         14    1    4    4    0    0  0.32954612856E+01  0.46405637399E+02 -0.13124604156E+03  0.13924750149E+03  0.00000000000E+00 0. -1.
         -5    1    5    5    0  502 -0.59126770644E+02  0.90042894677E+01 -0.34934920902E+03  0.35446299113E+03  0.47000000000E+01 0.  1.
         11    1    6    6    0    0  0.10036825714E+02 -0.59062663842E+02 -0.91958173546E+02  0.10975172806E+03  0.00000000000E+00 0. -1.
        -12    1    6    6    0    0  0.24170028493E+02  0.20485726879E+02 -0.56641927269E+02  0.64901180327E+02  0.00000000000E+00 0.  1.
</event>
<event>
12    1  0.8331241E-002  0.3009369E+03  0.7818608E-02  0.1085043E+00
         21   -1    0    0  501  502  0.00000000000E+00  0.00000000000E+00  0.58004069132E+03  0.58004069132E+03  0.00000000000E+00 0. -1.
         21   -1    0    0  502  503 -0.00000000000E+00 -0.00000000000E+00 -0.16881315263E+03  0.16881315263E+03  0.00000000000E+00 0.  1.
         -6    2    1    2    0  503 -0.24429191508E+03  0.20238576923E+02  0.97875643480E+02  0.31439736045E+03  0.17081545277E+03 0.  0.
        -24    2    3    3    0    0 -0.80299916187E+02  0.54434723576E+02  0.15841907984E+02  0.12781125190E+03  0.81691703325E+02 0.  0.
          6    2    1    2  501    0  0.24429191508E+03 -0.20238576923E+02  0.31335189521E+03  0.43445648350E+03  0.17457057613E+03 0.  0.
         24    2    5    5    0    0  0.21320095867E+03  0.23059451661E+02  0.30395406467E+03  0.38012623347E+03  0.78239969633E+02 0.  0.
          5    1    5    5  501    0  0.31090956413E+02 -0.43298028584E+02  0.93978305354E+01  0.54330250033E+02  0.47000000000E+01 0. -1.
        -11    1    6    6    0    0  0.93466940818E+02  0.91202362251E+01  0.19999800972E+03  0.22094897969E+03  0.00000000000E+00 0.  1.
         12    1    6    6    0    0  0.11973401785E+03  0.13939215435E+02  0.10395605496E+03  0.15917725378E+03  0.00000000000E+00 0. -1.
         -5    1    3    3    0  503 -0.16399199890E+03 -0.34196146653E+02  0.82033735496E+02  0.18658610856E+03  0.47000000000E+01 0.  1.
         11    1    4    4    0    0 -0.96476984829E+02  0.48244345331E+02  0.20670337547E+02  0.10982981523E+03  0.00000000000E+00 0. -1.
        -12    1    4    4    0    0  0.16177068643E+02  0.61903782451E+01 -0.48284295626E+01  0.17981436670E+02  0.00000000000E+00 0.  1.
</event>
<event>
12    1  0.8331241E-002  0.1787404E+03  0.7818608E-02  0.1169182E+00
         21   -1    0    0  503  502  0.00000000000E+00  0.00000000000E+00  0.10229835772E+04  0.10229835772E+04  0.00000000000E+00 0. -1.
         21   -1    0    0  501  503 -0.00000000000E+00 -0.00000000000E+00 -0.89648984190E+02  0.89648984190E+02  0.00000000000E+00 0. -1.
          6    2    1    2  501    0 -0.35828381307E+02 -0.26026146329E+02  0.16876662477E+02  0.17890707464E+03  0.17251633667E+03 0.  0.
         24    2    3    3    0    0 -0.54549767210E+02 -0.57990716834E+02  0.55217732511E+02  0.12538743610E+03  0.79589011849E+02 0.  0.
         -6    2    1    2    0  502  0.35828381307E+02  0.26026146329E+02  0.91645793053E+03  0.93372548675E+03  0.17316787512E+03 0.  0.
        -24    2    5    5    0    0 -0.39701667557E+02 -0.93018005670E+01  0.61126738449E+03  0.61731402756E+03  0.75934494020E+02 0.  0.
          5    1    3    3  501    0  0.18721385903E+02  0.31964570505E+02 -0.38341070034E+02  0.53519638536E+02  0.47000000000E+01 0. -1.
        -11    1    4    4    0    0 -0.69929818100E+02 -0.64587081880E+02  0.51552392121E+02  0.10825580695E+03  0.00000000000E+00 0.  1.
         12    1    4    4    0    0  0.15380050890E+02  0.65963650465E+01  0.36653403903E+01  0.17131629151E+02  0.00000000000E+00 0. -1.
         -5    1    5    5    0  502  0.75530048864E+02  0.35327946896E+02  0.30519054605E+03  0.31641145919E+03  0.47000000000E+01 0.  1.
         11    1    6    6    0    0  0.17816497392E+02 -0.19306842876E+02  0.24765735837E+03  0.24904688096E+03  0.00000000000E+00 0. -1.
        -12    1    6    6    0    0 -0.57518164949E+02  0.10005042309E+02  0.36361002611E+03  0.36826714659E+03  0.00000000000E+00 0.  1.
</event>
<event>
12    1  0.8331241E-002  0.2151566E+03  0.7818608E-02  0.1137587E+00
         21   -1    0    0  501  502  0.00000000000E+00  0.00000000000E+00  0.55468821639E+03  0.55468821639E+03  0.00000000000E+00 0.  1.
         21   -1    0    0  502  503 -0.00000000000E+00 -0.00000000000E+00 -0.88350764060E+02  0.88350764060E+02  0.00000000000E+00 0. -1.
         -6    2    1    2    0  503 -0.58748537442E+02  0.11468900207E+03  0.15697191679E+03  0.26633160908E+03  0.17230027710E+03 0.  0.
        -24    2    3    3    0    0 -0.51254348747E+02  0.10091577305E+03  0.35733307088E+02  0.14399291862E+03  0.81523554026E+02 0.  0.
          6    2    1    2  501    0  0.58748537442E+02 -0.11468900207E+03  0.30936553554E+03  0.37670737137E+03  0.17203619158E+03 0.  0.
         24    2    5    5    0    0  0.78014571119E+02 -0.12384738372E+03  0.18041441505E+03  0.24591923167E+03  0.80637829755E+02 0.  0.
          5    1    5    5  501    0 -0.19266033677E+02  0.91583816510E+01  0.12895112049E+03  0.13078813969E+03  0.47000000000E+01 0. -1.
        -13    1    6    6    0    0  0.48830396173E+02 -0.52644351928E+02  0.14373592633E+03  0.16067312127E+03  0.00000000000E+00 0.  1.
         14    1    6    6    0    0  0.29184174946E+02 -0.71203031795E+02  0.36678488714E+02  0.85246110401E+02  0.00000000000E+00 0. -1.
         -5    1    3    3    0  503 -0.74941886950E+01  0.13773229022E+02  0.12123860970E+03  0.12233869046E+03  0.47000000000E+01 0.  1.
         11    1    4    4    0    0 -0.61333653871E+02  0.10721040232E+03  0.42123815276E+02  0.13050020413E+03  0.00000000000E+00 0. -1.
        -12    1    4    4    0    0  0.10079305124E+02 -0.62946292731E+01 -0.63905081883E+01  0.13492714493E+02  0.00000000000E+00 0.  1.
</event>
<event>
12    1  0.8331241E-002  0.2099778E+03  0.7818608E-02  0.1141842E+00
         21   -1    0    0  501  502  0.00000000000E+00  0.00000000000E+00  0.10550996836E+04  0.10550996836E+04  0.00000000000E+00 0.  1.
         21   -1    0    0  502  503 -0.00000000000E+00 -0.00000000000E+00 -0.61452917548E+02  0.61452917548E+02  0.00000000000E+00 0.  1.
         -6    2    1    2    0  503  0.11440120280E+03  0.33143286794E+02  0.17999195265E+03  0.27656426734E+03  0.17292940261E+03 0.  0.
        -24    2    3    3    0    0 -0.54384085142E+01 -0.36796173572E+01  0.31807004916E+02  0.82403696046E+02  0.75733530812E+02 0.  0.
          6    2    1    2  501    0 -0.11440120280E+03 -0.33143286794E+02  0.81365481337E+03  0.83998833377E+03  0.17134798771E+03 0.  0.
         24    2    5    5    0    0 -0.13354213534E+03 -0.44864960449E+02  0.79257902369E+03  0.80884267850E+03  0.78731208465E+02 0.  0.
          5    1    5    5  501    0  0.19140932533E+02  0.11721673655E+02  0.21075789676E+02  0.31145655267E+02  0.47000000000E+01 0. -1.
        -11    1    6    6    0    0 -0.71153206480E+02 -0.30524447093E+02  0.23106872199E+03  0.24369504498E+03  0.00000000000E+00 0.  1.
         12    1    6    6    0    0 -0.62388928856E+02 -0.14340513356E+02  0.56151030170E+03  0.56514763353E+03  0.00000000000E+00 0. -1.
         -5    1    3    3    0  503  0.11983961132E+03  0.36822904151E+02  0.14818494773E+03  0.19416057129E+03  0.47000000000E+01 0.  1.
         13    1    4    4    0    0 -0.27317147349E+02 -0.14302574093E+02  0.45140899829E+02  0.54667092499E+02  0.00000000000E+00 0. -1.
        -14    1    4    4    0    0  0.21878738835E+02  0.10622956735E+02 -0.13333894912E+02  0.27736603547E+02  0.00000000000E+00 0.  1.
</event>
<event>
12    1  0.8331241E-002  0.1754418E+03  0.7818608E-02  0.1172539E+00
         21   -1    0    0  503  502  0.00000000000E+00  0.00000000000E+00  0.41065648821E+02  0.41065648821E+02  0.00000000000E+00 0.  1.
         21   -1    0    0  501  503 -0.00000000000E+00 -0.00000000000E+00 -0.99769220075E+03  0.99769220075E+03  0.00000000000E+00 0.  1.
          6    2    1    2  501    0 -0.92883805267E+01  0.31308029593E+02 -0.74057749654E+03  0.76107479963E+03  0.17237562336E+03 0.  0.
         24    2    3    3    0    0  0.22797771040E+02  0.46553347701E+02 -0.23335762955E+03  0.25259075434E+03  0.81604861156E+02 0.  0.
         -6    2    1    2    0  502  0.92883805267E+01 -0.31308029593E+02 -0.21604905539E+03  0.27768304993E+03  0.17135989950E+03 0.  0.
        -24    2    5    5    0    0 -0.53275339570E+02 -0.43313495721E+02 -0.14933563274E+03  0.18531898197E+03  0.85601829157E+02 0.  0.
          5    1    3    3  501    0 -0.32086151567E+02 -0.15245318109E+02 -0.50721986699E+03  0.50848404529E+03  0.47000000000E+01 0. -1.
        -11    1    4    4    0    0  0.16192862776E+02  0.27230606247E+02 -0.22966412214E+03  0.23183900388E+03  0.00000000000E+00 0.  1.
         12    1    4    4    0    0  0.66049082638E+01  0.19322741454E+02 -0.36935074139E+01  0.20751750468E+02  0.00000000000E+00 0. -1.
         -5    1    5    5    0  502  0.62563720097E+02  0.12005466128E+02 -0.66713422651E+02  0.92364067965E+02  0.47000000000E+01 0.  1.
         13    1    6    6    0    0 -0.57577940110E+02 -0.31034031540E+01 -0.12615160542E+03  0.13870500297E+03  0.00000000000E+00 0. -1.
        -14    1    6    6    0    0  0.43026005393E+01 -0.40210092567E+02 -0.23184027318E+02  0.46613979001E+02  0.00000000000E+00 0.  1.
</event>
<event>
12    1  0.8331241E-002  0.1781187E+03  0.7818608E-02  0.1169677E+00
         21   -1    0    0  501  502  0.00000000000E+00  0.00000000000E+00  0.17697532789E+03  0.17697532789E+03  0.00000000000E+00 0.  1.
         21   -1    0    0  502  503 -0.00000000000E+00 -0.00000000000E+00 -0.18417449729E+03  0.18417449729E+03  0.00000000000E+00 0.  1.
         -6    2    1    2    0  503 -0.44775905297E+02  0.73359251352E+01 -0.33564176693E+02  0.18109042223E+03  0.17207117590E+03 0.  0.
        -24    2    3    3    0    0 -0.49361240559E+02 -0.41504984125E+01  0.42411248213E+02  0.10397156322E+03  0.80979091604E+02 0.  0.
          6    2    1    2  501    0  0.44775905297E+02 -0.73359251352E+01  0.26365007294E+02  0.18005940295E+03  0.17224278646E+03 0.  0.
         24    2    5    5    0    0  0.29694998137E+02  0.20625351176E+02 -0.46125544060E+02  0.10077361122E+03  0.81979002670E+02 0.  0.
          5    1    5    5  501    0  0.15080907160E+02 -0.27961276311E+02  0.72490551354E+02  0.79285791724E+02  0.47000000000E+01 0. -1.
        -11    1    6    6    0    0 -0.21510142840E+01 -0.10654282573E+02  0.18958139799E+02  0.21852955504E+02  0.00000000000E+00 0.  1.
         12    1    6    6    0    0  0.31846012421E+02  0.31279633749E+02 -0.65083683859E+02  0.78920655720E+02  0.00000000000E+00 0. -1.
         -5    1    3    3    0  503  0.45853352613E+01  0.11486423548E+02 -0.75975424906E+02  0.77118859010E+02  0.47000000000E+01 0.  1.
         13    1    4    4    0    0 -0.57174542913E+02 -0.90450688521E+01 -0.26797910205E+01  0.57947587592E+02  0.00000000000E+00 0. -1.
        -14    1    4    4    0    0  0.78133023542E+01  0.48945704397E+01  0.45091039234E+02  0.46023975628E+02  0.00000000000E+00 0.  1.
</event>
<event>
12    1  0.8331241E-002  0.1778050E+03  0.7818608E-02  0.1170334E+00
         21   -1    0    0  503  502  0.00000000000E+00  0.00000000000E+00  0.16888997665E+03  0.16888997665E+03  0.00000000000E+00 0.  1.
         21   -1    0    0  501  503 -0.00000000000E+00 -0.00000000000E+00 -0.25088630818E+03  0.25088630818E+03  0.00000000000E+00 0.  1.
          6    2    1    2  501    0  0.24455377869E+02 -0.30790655279E+02 -0.14825309929E+03  0.23150294419E+03  0.17340271555E+03 0.  0.
         24    2    3    3    0    0  0.23048997369E+02 -0.78763590512E+02 -0.55663075854E+02  0.12710762408E+03  0.79517360461E+02 0.  0.
         -6    2    1    2    0  502 -0.24455377869E+02  0.30790655279E+02  0.66256767755E+02  0.18827334064E+03  0.17178696564E+03 0.  0.
        -24    2    5    5    0    0 -0.72386954314E+02  0.56510318683E+02  0.41813740920E+02  0.12845287034E+03  0.79488764594E+02 0.  0.
          5    1    3    3  501    0  0.14063804999E+01  0.47972935233E+02 -0.92590023438E+02  0.10439532011E+03  0.47000000000E+01 0. -1.
        -13    1    4    4    0    0  0.34830150851E+02 -0.47456335053E+02 -0.69350047101E+02  0.90965225102E+02  0.00000000000E+00 0.  1.
         14    1    4    4    0    0 -0.11781153481E+02 -0.31307255459E+02  0.13686971246E+02  0.36142398975E+02  0.00000000000E+00 0. -1.
         -5    1    5    5    0  502  0.47931576445E+02 -0.25719663404E+02  0.24443026835E+02  0.59820470300E+02  0.47000000000E+01 0.  1.
         13    1    6    6    0    0 -0.65787581411E+02  0.10301077158E+02  0.12322069713E+01  0.66600573515E+02  0.00000000000E+00 0. -1.
        -14    1    6    6    0    0 -0.65993729026E+01  0.46209241525E+02  0.40581533949E+02  0.61852296826E+02  0.00000000000E+00 0.  1.
</event>
<event>
12    1  0.8331241E-002  0.1827675E+03  0.7818608E-02  0.1166053E+00
         21   -1    0    0  503  502  0.00000000000E+00  0.00000000000E+00  0.26928359620E+03  0.26928359620E+03  0.00000000000E+00 0.  1.
         21   -1    0    0  501  503 -0.00000000000E+00 -0.00000000000E+00 -0.13878156679E+03  0.13878156679E+03  0.00000000000E+00 0.  1.
          6    2    1    2  501    0 -0.45448134947E+02  0.21605605505E+02 -0.73175314742E+01  0.17915862930E+03  0.17179037524E+03 0.  0.
         24    2    3    3    0    0 -0.67490800893E+02 -0.39337002048E+02 -0.24247418061E+02  0.11201258252E+03  0.76527599112E+02 0.  0.
         -6    2    1    2    0  502  0.45448134947E+02 -0.21605605505E+02  0.13781956088E+03  0.22890653370E+03  0.17570325736E+03 0.  0.
        -24    2    5    5    0    0  0.87988014421E+02 -0.50728297090E+00  0.50642621514E+02  0.12952499961E+03  0.80435703469E+02 0.  0.
          5    1    3    3  501    0  0.22042665945E+02  0.60942607553E+02  0.16929886586E+02  0.67146046773E+02  0.47000000000E+01 0. -1.
        -11    1    4    4    0    0 -0.32221333898E+02 -0.57608895265E+02 -0.10549998705E+01  0.66015999550E+02  0.00000000000E+00 0.  1.
         12    1    4    4    0    0 -0.35269466995E+02  0.18271893217E+02 -0.23192418190E+02  0.45996582975E+02  0.00000000000E+00 0. -1.
         -5    1    5    5    0  502 -0.42539879474E+02 -0.21098322534E+02  0.87176939370E+02  0.99381534086E+02  0.47000000000E+01 0.  1.
         13    1    6    6    0    0 -0.10393234525E+02 -0.12359679127E+02  0.20200032032E+02  0.25861598677E+02  0.00000000000E+00 0. -1.
        -14    1    6    6    0    0  0.98381248946E+02  0.11852396156E+02  0.30442589482E+02  0.10366340093E+03  0.00000000000E+00 0.  1.
</event>
<event>
12    1  0.8331241E-002  0.2274726E+03  0.7818608E-02  0.1128721E+00
         21   -1    0    0  503  502  0.00000000000E+00  0.00000000000E+00  0.57260542941E+03  0.57260542941E+03  0.00000000000E+00 0.  1.
         21   -1    0    0  501  503 -0.00000000000E+00 -0.00000000000E+00 -0.26095525939E+03  0.26095525939E+03  0.00000000000E+00 0. -1.
          6    2    1    2  501    0  0.14663801665E+03 -0.11577713234E+02 -0.18197522085E+03  0.29004454193E+03  0.17138875089E+03 0.  0.
         24    2    3    3    0    0  0.58298858898E+02 -0.68906229786E+02 -0.99001053352E+02  0.15589101766E+03  0.79711827040E+02 0.  0.
         -6    2    1    2    0  502 -0.14663801665E+03  0.11577713234E+02  0.49362539087E+03  0.54351614686E+03  0.17351375741E+03 0.  0.
        -24    2    5    5    0    0 -0.95019783345E+02 -0.60569996130E+02  0.27821043861E+03  0.31050235835E+03  0.79455539342E+02 0.  0.
          5    1    3    3  501    0  0.88339157755E+02  0.57328516552E+02 -0.82974167499E+02  0.13415352427E+03  0.47000000000E+01 0. -1.
        -13    1    4    4    0    0  0.10840470729E+02 -0.35886923082E+02  0.40735674316E+01  0.37709163417E+02  0.00000000000E+00 0.  1.
         14    1    4    4    0    0  0.47458388169E+02 -0.33019306704E+02 -0.10307462078E+03  0.11818185424E+03  0.00000000000E+00 0. -1.
         -5    1    5    5    0  502 -0.51618233308E+02  0.72147709364E+02  0.21541495226E+03  0.23301378850E+03  0.47000000000E+01 0.  1.
         11    1    6    6    0    0  0.10274799773E+02 -0.77574925194E+01  0.70923930510E+02  0.72082966917E+02  0.00000000000E+00 0. -1.
        -12    1    6    6    0    0 -0.10529458312E+03 -0.52812503611E+02  0.20728650810E+03  0.23841939144E+03  0.00000000000E+00 0.  1.
</event>
<event>
12    1  0.8331241E-002  0.2111796E+03  0.7818608E-02  0.1141682E+00
         21   -1    0    0  503  502  0.00000000000E+00  0.00000000000E+00  0.13109171384E+04  0.13109171384E+04  0.00000000000E+00 0. -1.
         21   -1    0    0  501  503 -0.00000000000E+00 -0.00000000000E+00 -0.65026004119E+02  0.65026004119E+02  0.00000000000E+00 0. -1.
          6    2    1    2  501    0 -0.97148731362E+02 -0.62403703829E+02  0.14550404004E+03  0.25645318564E+03  0.17681830364E+03 0.  0.
         24    2    3    3    0    0  0.16374523098E+02 -0.22133514314E+02  0.30159669452E+02  0.89613048707E+02  0.79767633627E+02 0.  0.
         -6    2    1    2    0  502  0.97148731362E+02  0.62403703829E+02  0.11003870942E+04  0.11194899568E+04  0.17051072727E+03 0.  0.
        -24    2    5    5    0    0  0.28828252253E+02  0.97705313706E+02  0.70027646391E+03  0.71202891821E+03  0.78871148123E+02 0.  0.
          5    1    3    3  501    0 -0.11352325446E+03 -0.40270189515E+02  0.11534437059E+03  0.16684013694E+03  0.47000000000E+01 0. -1.
        -13    1    4    4    0    0  0.16754262164E+02  0.23431790529E+02  0.33188305233E+02  0.43945622220E+02  0.00000000000E+00 0.  1.
         14    1    4    4    0    0 -0.37973906614E+00 -0.45565304843E+02 -0.30286357814E+01  0.45667426487E+02  0.00000000000E+00 0. -1.
         -5    1    5    5    0  502  0.68320479109E+02 -0.35301609877E+02  0.40011063030E+03  0.40746103864E+03  0.47000000000E+01 0.  1.
         13    1    6    6    0    0  0.18541715347E+02  0.87031035822E+02  0.34012454424E+03  0.35157204383E+03  0.00000000000E+00 0. -1.
        -14    1    6    6    0    0  0.10286536906E+02  0.10674277884E+02  0.36015191967E+03  0.36045687438E+03  0.00000000000E+00 0.  1.
</event>
<event>
12    1  0.8331241E-002  0.1739110E+03  0.7818608E-02  0.1174187E+00
         21   -1    0    0  503  502  0.00000000000E+00  0.00000000000E+00  0.33936969697E+03  0.33936969697E+03  0.00000000000E+00 0. -1.
         21   -1    0    0  501  503 -0.00000000000E+00 -0.00000000000E+00 -0.10142165742E+03  0.10142165742E+03  0.00000000000E+00 0. -1.
          6    2    1    2  501    0 -0.17549522030E+02  0.33400689313E+01  0.19751822262E+03  0.26224278120E+03  0.17157705627E+03 0.  0.
         24    2    3    3    0    0 -0.20230940539E+02 -0.49041289580E+02  0.57446127716E+02  0.11259894238E+03  0.81019289040E+02 0.  0.
         -6    2    1    2    0  502  0.17549522030E+02 -0.33400689313E+01  0.40429816926E+02  0.17854857319E+03  0.17299098563E+03 0.  0.
        -24    2    5    5    0    0  0.63998784020E+02 -0.27195886894E+02 -0.10156313113E+02  0.10569474322E+03  0.78947877915E+02 0.  0.
          5    1    3    3  501    0  0.26814185091E+01  0.52381358511E+02  0.14007209490E+03  0.14964383882E+03  0.47000000000E+01 0. -1.
        -11    1    4    4    0    0 -0.45845504427E+02 -0.18994703132E+02  0.53417228568E+02  0.72910968524E+02  0.00000000000E+00 0.  1.
         12    1    4    4    0    0  0.25614563888E+02 -0.30046586448E+02  0.40288991475E+01  0.39687973855E+02  0.00000000000E+00 0. -1.
         -5    1    5    5    0  502 -0.46449261990E+02  0.23855817963E+02  0.50586130039E+02  0.72853829978E+02  0.47000000000E+01 0.  1.
         11    1    6    6    0    0  0.19695879284E+02 -0.50595066310E+02 -0.11816991921E+02  0.55564644278E+02  0.00000000000E+00 0. -1.
        -12    1    6    6    0    0  0.44302904736E+02  0.23399179415E+02  0.16606788078E+01  0.50130098937E+02  0.00000000000E+00 0.  1.
</event>
<event>
12    1  0.8331241E-002  0.1924890E+03  0.7818608E-02  0.1156283E+00
         21   -1    0    0  501  502  0.00000000000E+00  0.00000000000E+00  0.37623599091E+03  0.37623599091E+03  0.00000000000E+00 0. -1.
         21   -1    0    0  502  503 -0.00000000000E+00 -0.00000000000E+00 -0.10056267246E+03  0.10056267246E+03  0.00000000000E+00 0. -1.
         -6    2    1    2    0  503 -0.24651363596E+02 -0.85207690255E+02  0.17311526884E+03  0.25888395136E+03  0.17083314597E+03 0.  0.
        -24    2    3    3    0    0 -0.26716404073E+02  0.18553202163E+02  0.60392832222E+02  0.10559003464E+03  0.80274364984E+02 0.  0.
          6    2    1    2  501    0  0.24651363596E+02  0.85207690255E+02  0.10255804960E+03  0.21791471201E+03  0.17058906168E+03 0.  0.
         24    2    5    5    0    0  0.79567418208E+02  0.60502079464E+02  0.47603717415E+02  0.13625561034E+03  0.79422929802E+02 0.  0.
          5    1    5    5  501    0 -0.54916054612E+02  0.24705610791E+02  0.54954332188E+02  0.81659101667E+02  0.47000000000E+01 0. -1.
        -11    1    6    6    0    0  0.11131209108E+02  0.29876018532E+01  0.45393236934E+02  0.46833487383E+02  0.00000000000E+00 0.  1.
         12    1    6    6    0    0  0.68436209099E+02  0.57514477611E+02  0.22104804810E+01  0.89422122960E+02  0.00000000000E+00 0. -1.
         -5    1    3    3    0  503  0.20650404773E+01 -0.10376089242E+03  0.11272243662E+03  0.15329391672E+03  0.47000000000E+01 0.  1.
         13    1    4    4    0    0 -0.22807870664E+02 -0.25914970858E+02  0.56951938130E+01  0.34988854102E+02  0.00000000000E+00 0. -1.
        -14    1    4    4    0    0 -0.39085334086E+01  0.44468173022E+02  0.54697638409E+02  0.70601180534E+02  0.00000000000E+00 0.  1.
</event>
<event>
12    1  0.8331241E-002  0.2291462E+03  0.7818608E-02  0.1127297E+00
         21   -1    0    0  501  502  0.00000000000E+00  0.00000000000E+00  0.33104694272E+03  0.33104694272E+03  0.00000000000E+00 0. -1.
         21   -1    0    0  502  503 -0.00000000000E+00 -0.00000000000E+00 -0.16372800505E+03  0.16372800505E+03  0.00000000000E+00 0.  1.
         -6    2    1    2    0  503 -0.14492135278E+03 -0.43224127871E+02  0.12834457329E+03  0.26264102458E+03  0.17215532108E+03 0.  0.
        -24    2    3    3    0    0 -0.38866794465E+02 -0.86976531424E+02  0.66530088475E+02  0.13223794682E+03  0.63127467684E+02 0.  0.
          6    2    1    2  501    0  0.14492135278E+03  0.43224127871E+02  0.38974364375E+02  0.23213392319E+03  0.17174583982E+03 0.  0.
         24    2    5    5    0    0  0.10468141028E+03  0.16061764604E+02 -0.46126572495E+02  0.13404566494E+03  0.68002953305E+02 0.  0.
          5    1    5    5  501    0  0.40239942499E+02  0.27162363268E+02  0.85100936870E+02  0.98088258251E+02  0.47000000000E+01 0. -1.
        -13    1    6    6    0    0  0.15916138022E+02 -0.20110155867E+02 -0.25159418315E+02  0.35926844399E+02  0.00000000000E+00 0.  1.
         14    1    6    6    0    0  0.88765272259E+02  0.36171920471E+02 -0.20967154180E+02  0.98118820540E+02  0.00000000000E+00 0. -1.
         -5    1    3    3    0  503 -0.10605455831E+03  0.43752403552E+02  0.61814484819E+02  0.13040307776E+03  0.47000000000E+01 0.  1.
         11    1    4    4    0    0 -0.18593904820E+02 -0.52066338457E+02  0.72768924356E+02  0.91389021489E+02  0.00000000000E+00 0. -1.
        -12    1    4    4    0    0 -0.20272889646E+02 -0.34910192967E+02 -0.62388358810E+01  0.40848925331E+02  0.00000000000E+00 0.  1.
</event>
<event>
12    1  0.8331241E-002  0.2456216E+03  0.7818608E-02  0.1116200E+00
         21   -1    0    0  503  502  0.00000000000E+00  0.00000000000E+00  0.29814862046E+03  0.29814862046E+03  0.00000000000E+00 0.  1.
         21   -1    0    0  501  503 -0.00000000000E+00 -0.00000000000E+00 -0.21254841743E+03  0.21254841743E+03  0.00000000000E+00 0. -1.
          6    2    1    2  501    0 -0.16626819273E+03 -0.52565339914E+02 -0.14515579265E+02  0.24545534252E+03  0.17213191527E+03 0.  0.
         24    2    3    3    0    0 -0.62370604755E+02 -0.88296559436E+02 -0.18929916171E+02  0.13539624382E+03  0.79293293341E+02 0.  0.
         -6    2    1    2    0  502  0.16626819273E+03  0.52565339914E+02  0.10011578230E+03  0.26524169537E+03  0.17297907452E+03 0.  0.
        -24    2    5    5    0    0  0.96945206576E+02 -0.25091791475E+02  0.10822324528E+02  0.12801298822E+03  0.79007793078E+02 0.  0.
          5    1    3    3  501    0 -0.10389758798E+03  0.35731219522E+02  0.44143369057E+01  0.11005909870E+03  0.47000000000E+01 0. -1.
        -11    1    4    4    0    0  0.10323498251E+02  0.48183980408E+01  0.83888842006E+01  0.14147966425E+02  0.00000000000E+00 0.  1.
         12    1    4    4    0    0 -0.72694103007E+02 -0.93114957477E+02 -0.27318800371E+02  0.12124827740E+03  0.00000000000E+00 0. -1.
         -5    1    5    5    0  502  0.69322986155E+02  0.77657131389E+02  0.89293457768E+02  0.13722870715E+03  0.47000000000E+01 0.  1.
         11    1    6    6    0    0  0.67289889662E+02 -0.50383118605E+00  0.41244780637E+02  0.78926009822E+02  0.00000000000E+00 0. -1.
        -12    1    6    6    0    0  0.29655316914E+02 -0.24587960289E+02 -0.30422456109E+02  0.49086978397E+02  0.00000000000E+00 0.  1.
</event>
<event>
12    1  0.8331241E-002  0.2230932E+03  0.7818608E-02  0.1131688E+00
         21   -1    0    0  501  502  0.00000000000E+00  0.00000000000E+00  0.11298345084E+03  0.11298345084E+03  0.00000000000E+00 0.  1.
         21   -1    0    0  502  503 -0.00000000000E+00 -0.00000000000E+00 -0.69088716287E+03  0.69088716287E+03  0.00000000000E+00 0.  1.
         -6    2    1    2    0  503  0.41178104173E+02 -0.13780878320E+03 -0.53158935881E+03  0.57650482065E+03  0.17053933517E+03 0.  0.
        -24    2    3    3    0    0  0.58962960345E+02 -0.15778227416E+03 -0.40243903980E+03  0.44453082188E+03  0.85314677024E+02 0.  0.
          6    2    1    2  501    0 -0.41178104173E+02  0.13780878320E+03 -0.46314353214E+02  0.22736579305E+03  0.16989198788E+03 0.  0.
         24    2    5    5    0    0  0.24178675536E+02  0.15039883503E+02 -0.65783619167E+01  0.82642780403E+02  0.77302961527E+02 0.  0.
          5    1    5    5  501    0 -0.65356779710E+02  0.12276889969E+03 -0.39735991297E+02  0.14472301265E+03  0.47000000000E+01 0. -1.
        -13    1    6    6    0    0 -0.56514055974E+01  0.38902958141E+02 -0.17324590719E+02  0.42959515604E+02  0.00000000000E+00 0.  1.
         14    1    6    6    0    0  0.29830081134E+02 -0.23863074638E+02  0.10746228803E+02  0.39683264799E+02  0.00000000000E+00 0. -1.
         -5    1    3    3    0  503 -0.17784856172E+02  0.19973490958E+02 -0.12915031901E+03  0.13197399877E+03  0.47000000000E+01 0.  1.
         11    1    4    4    0    0  0.78423677602E+01  0.41095193737E+01 -0.76660255632E+02  0.77169849521E+02  0.00000000000E+00 0. -1.
        -12    1    4    4    0    0  0.51120592585E+02 -0.16189179353E+03 -0.32577878417E+03  0.36736097236E+03  0.00000000000E+00 0.  1.
</event>
<event>
12    1  0.8331241E-002  0.1846221E+03  0.7818608E-02  0.1163790E+00
         21   -1    0    0  503  502  0.00000000000E+00  0.00000000000E+00  0.54834272661E+02  0.54834272661E+02  0.00000000000E+00 0.  1.
         21   -1    0    0  501  503 -0.00000000000E+00 -0.00000000000E+00 -0.10707911334E+04  0.10707911334E+04  0.00000000000E+00 0. -1.
          6    2    1    2  501    0 -0.46082477214E+02  0.48459230612E+02 -0.87604133122E+03  0.89528416857E+03  0.17208555069E+03 0.  0.
         24    2    3    3    0    0 -0.36942119145E+02  0.52229886300E+02 -0.87921016461E+03  0.88388699809E+03  0.64444011673E+02 0.  0.
         -6    2    1    2    0  502  0.46082477214E+02 -0.48459230612E+02 -0.13991552953E+03  0.23034123750E+03  0.17031981256E+03 0.  0.
        -24    2    5    5    0    0  0.54832336919E+02 -0.65393811689E+02 -0.31723337502E+02  0.12038224288E+03  0.78756450402E+02 0.  0.
          5    1    3    3  501    0 -0.91403580691E+01 -0.37706556880E+01  0.31688333951E+01  0.11397170484E+02  0.47000000000E+01 0. -1.
        -11    1    4    4    0    0 -0.15781818812E+01  0.63514868429E+01 -0.63901521660E+01  0.91469168505E+01  0.00000000000E+00 0.  1.
         12    1    4    4    0    0 -0.35363937264E+02  0.45878399457E+02 -0.87282001245E+03  0.87474008124E+03  0.00000000000E+00 0. -1.
         -5    1    5    5    0  502 -0.87498597056E+01  0.16934581077E+02 -0.10819219203E+03  0.10995899462E+03  0.47000000000E+01 0.  1.
         13    1    6    6    0    0  0.53309474950E+02 -0.18939003101E+02 -0.44726032982E+02  0.72117986551E+02  0.00000000000E+00 0. -1.
        -14    1    6    6    0    0  0.15228619697E+01 -0.46454808588E+02  0.13002695480E+02  0.48264256332E+02  0.00000000000E+00 0.  1.
</event>
<event>
12    1  0.8331241E-002  0.1875742E+03  0.7818608E-02  0.1161398E+00
         21   -1    0    0  503  502  0.00000000000E+00  0.00000000000E+00  0.10875850683E+03  0.10875850683E+03  0.00000000000E+00 0.  1.
         21   -1    0    0  501  503 -0.00000000000E+00 -0.00000000000E+00 -0.45796008984E+03  0.45796008984E+03  0.00000000000E+00 0.  1.
          6    2    1    2  501    0 -0.65578726498E+02  0.15327549679E+02 -0.16973245805E+02  0.18519564521E+03  0.17167944776E+03 0.  0.
         24    2    3    3    0    0 -0.77040611918E+02  0.65228120774E+02 -0.35570415547E+02  0.13052036253E+03  0.74701719853E+02 0.  0.
         -6    2    1    2    0  502  0.65578726498E+02 -0.15327549679E+02 -0.33222833720E+03  0.38152295147E+03  0.17506739077E+03 0.  0.
        -24    2    5    5    0    0  0.10548725681E+03  0.12804397576E+02 -0.28071400538E+03  0.31038988159E+03  0.79057016312E+02 0.  0.
          5    1    3    3  501    0  0.11461885420E+02 -0.49900571095E+02  0.18597169742E+02  0.54675282673E+02  0.47000000000E+01 0. -1.
        -13    1    4    4    0    0 -0.78683113544E+02  0.52300421008E+02 -0.19904597775E+01  0.94500414416E+02  0.00000000000E+00 0.  1.
         14    1    4    4    0    0  0.16425016263E+01  0.12927699766E+02 -0.33579955769E+02  0.36019948116E+02  0.00000000000E+00 0. -1.
         -5    1    5    5    0  502 -0.39908530311E+02 -0.28131947256E+02 -0.51514331819E+02  0.71133069881E+02  0.47000000000E+01 0.  1.
         11    1    6    6    0    0 -0.77457457160E+01 -0.13491585963E+02 -0.24260071549E+02  0.28819620748E+02  0.00000000000E+00 0. -1.
        -12    1    6    6    0    0  0.11323300253E+03  0.26295983539E+02 -0.25645393383E+03  0.28157026084E+03  0.00000000000E+00 0.  1.
</event>
<event>
12    1  0.8331241E-002  0.1865613E+03  0.7818608E-02  0.1161860E+00
         21   -1    0    0  501  502  0.00000000000E+00  0.00000000000E+00  0.28717896758E+03  0.28717896758E+03  0.00000000000E+00 0. -1.
         21   -1    0    0  502  503 -0.00000000000E+00 -0.00000000000E+00 -0.15480276783E+03  0.15480276783E+03  0.00000000000E+00 0. -1.
         -6    2    1    2    0  503 -0.47924015592E+02 -0.50973828783E+02 -0.37733301795E+02  0.19033897670E+03  0.17294531360E+03 0.  0.
        -24    2    3    3    0    0 -0.26531086169E+02  0.36502854895E+02 -0.40691328569E+02  0.10011332880E+03  0.79564674535E+02 0.  0.
          6    2    1    2  501    0  0.47924015592E+02  0.50973828783E+02  0.17010950155E+03  0.25164275871E+03  0.17173174721E+03 0.  0.
         24    2    5    5    0    0  0.47967774240E+02  0.97839207959E+02  0.10127901195E+03  0.16823956945E+03  0.78572873734E+02 0.  0.
          5    1    5    5  501    0 -0.43758648327E-01 -0.46865379176E+02  0.68830489595E+02  0.83403189256E+02  0.47000000000E+01 0. -1.
        -13    1    6    6    0    0  0.48835114991E+02  0.14800688153E+02  0.33439871101E+02  0.61009456687E+02  0.00000000000E+00 0.  1.
         14    1    6    6    0    0 -0.86734075065E+00  0.83038519806E+02  0.67839140854E+02  0.10723011276E+03  0.00000000000E+00 0. -1.
         -5    1    3    3    0  503 -0.21392929423E+02 -0.87476683678E+02  0.29580267737E+01  0.90225647900E+02  0.47000000000E+01 0.  1.
         11    1    4    4    0    0 -0.20269392886E+02  0.59570366750E+02 -0.14342299414E+02  0.64538193615E+02  0.00000000000E+00 0. -1.
        -12    1    4    4    0    0 -0.62616932834E+01 -0.23067511855E+02 -0.26349029155E+02  0.35575135184E+02  0.00000000000E+00 0.  1.
</event>
<event>
12    1  0.8331241E-002  0.1806762E+03  0.7818608E-02  0.1167227E+00
         21   -1    0    0  503  502  0.00000000000E+00  0.00000000000E+00  0.13341222710E+04  0.13341222710E+04  0.00000000000E+00 0. -1.
         21   -1    0    0  501  503 -0.00000000000E+00 -0.00000000000E+00 -0.30967930612E+02  0.30967930612E+02  0.00000000000E+00 0. -1.
          6    2    1    2  501    0 -0.16312504462E+02  0.52386852541E+02  0.33739707456E+03  0.38257761348E+03  0.17180909258E+03 0.  0.
         24    2    3    3    0    0  0.41234272704E+02  0.70513847462E+02  0.17132865479E+03  0.20582629226E+03  0.79614613640E+02 0.  0.
         -6    2    1    2    0  502  0.16312504462E+02 -0.52386852541E+02  0.96575726578E+03  0.98251258809E+03  0.17214357152E+03 0.  0.
        -24    2    5    5    0    0  0.44605501634E+02  0.27455927767E+02  0.52177399130E+03  0.53049643652E+03  0.80217781182E+02 0.  0.
          5    1    3    3  501    0 -0.57546777166E+02 -0.18126994921E+02  0.16606841977E+03  0.17675132122E+03  0.47000000000E+01 0. -1.
        -11    1    4    4    0    0  0.33522915651E+02  0.57604470887E+02  0.17747839702E+03  0.18958017394E+03  0.00000000000E+00 0.  1.
         12    1    4    4    0    0  0.77113570527E+01  0.12909376575E+02 -0.61497422324E+01  0.16246118327E+02  0.00000000000E+00 0. -1.
         -5    1    5    5    0  502 -0.28292997172E+02 -0.79842780309E+02  0.44398327448E+03  0.45201615156E+03  0.47000000000E+01 0.  1.
         11    1    6    6    0    0  0.36644596071E+01 -0.22520835802E+02  0.59414072095E+02  0.63644703412E+02  0.00000000000E+00 0. -1.
        -12    1    6    6    0    0  0.40941042027E+02  0.49976763569E+02  0.46235991921E+03  0.46685173311E+03  0.00000000000E+00 0.  1.
</event>
<event>
12    1  0.8331241E-002  0.1806043E+03  0.7818608E-02  0.1167471E+00
         21   -1    0    0  501  502  0.00000000000E+00  0.00000000000E+00  0.99586605130E+02  0.99586605130E+02  0.00000000000E+00 0. -1.
         21   -1    0    0  502  503 -0.00000000000E+00 -0.00000000000E+00 -0.43844273137E+03  0.43844273137E+03  0.00000000000E+00 0. -1.
         -6    2    1    2    0  503 -0.95911287021E+01  0.52643352507E+02 -0.30623953641E+03  0.35552859734E+03  0.17249526820E+03 0.  0.
        -24    2    3    3    0    0 -0.71281011960E+02  0.36336214969E+02 -0.23555266955E+03  0.26018559771E+03  0.76224549464E+02 0.  0.
          6    2    1    2  501    0  0.95911287021E+01 -0.52643352507E+02 -0.32616589830E+02  0.18250073916E+03  0.17140410015E+03 0.  0.
         24    2    5    5    0    0  0.35567257359E+02 -0.55854845050E+02 -0.78896349631E+02  0.12912491026E+03  0.77870501165E+02 0.  0.
          5    1    5    5  501    0 -0.25976128657E+02  0.32114925431E+01  0.46279759801E+02  0.53375828907E+02  0.47000000000E+01 0. -1.
        -11    1    6    6    0    0  0.45758742094E+02 -0.70549238767E+02 -0.68348787288E+02  0.10836334386E+03  0.00000000000E+00 0.  1.
         12    1    6    6    0    0 -0.10191484735E+02  0.14694393717E+02 -0.10547562343E+02  0.20761566395E+02  0.00000000000E+00 0. -1.
         -5    1    3    3    0  503  0.61689883258E+02  0.16307137538E+02 -0.70686866863E+02  0.95342999628E+02  0.47000000000E+01 0.  1.
         11    1    4    4    0    0  0.24475879719E+01  0.28666748706E+02 -0.11602126131E+03  0.11953537654E+03  0.00000000000E+00 0. -1.
        -12    1    4    4    0    0 -0.73728599932E+02  0.76694662629E+01 -0.11953140824E+03  0.14065022118E+03  0.00000000000E+00 0.  1.
</event>
<event>
12    1  0.8331241E-002  0.1766558E+03  0.7818608E-02  0.1171921E+00
         21   -1    0    0  501  502  0.00000000000E+00  0.00000000000E+00  0.29186934927E+03  0.29186934927E+03  0.00000000000E+00 0.  1.
         21   -1    0    0  502  503 -0.00000000000E+00 -0.00000000000E+00 -0.32152468848E+03  0.32152468848E+03  0.00000000000E+00 0.  1.
         -6    2    1    2    0  503  0.11028655082E+02  0.24331520023E+02 -0.26652109213E+03  0.31790686689E+03  0.17122391586E+03 0.  0.
        -24    2    3    3    0    0 -0.44729502397E+00  0.10922975918E+02 -0.35548535831E+02  0.86213323064E+02  0.77778706587E+02 0.  0.
          6    2    1    2  501    0 -0.11028655082E+02 -0.24331520023E+02  0.23686575291E+03  0.29548717087E+03  0.17462425130E+03 0.  0.
         24    2    5    5    0    0 -0.40529950282E+02  0.45743489380E+02  0.12618479414E+03  0.16112498126E+03  0.79394669987E+02 0.  0.
          5    1    5    5  501    0  0.29501295201E+02 -0.70075009404E+02  0.11068095877E+03  0.13436218961E+03  0.47000000000E+01 0. -1.
        -13    1    6    6    0    0  0.19432530102E+02  0.21471401571E+02  0.15305976746E+02  0.32755415366E+02  0.00000000000E+00 0.  1.
         14    1    6    6    0    0 -0.59962480385E+02  0.24272087809E+02  0.11087881739E+03  0.12836956589E+03  0.00000000000E+00 0. -1.
         -5    1    3    3    0  503  0.11475950106E+02  0.13408544106E+02 -0.23097255630E+03  0.23169354382E+03  0.47000000000E+01 0.  1.
         13    1    4    4    0    0  0.26765871691E+02 -0.21917315368E+02 -0.82166851812E+01  0.35556919379E+02  0.00000000000E+00 0. -1.
        -14    1    4    4    0    0 -0.27213166715E+02  0.32840291285E+02 -0.27331850650E+02  0.50656403685E+02  0.00000000000E+00 0.  1.
</event>
<event>
12    1  0.8331241E-002  0.2031836E+03  0.7818608E-02  0.1148367E+00
         21   -1    0    0  503  502  0.00000000000E+00  0.00000000000E+00  0.84685070586E+02  0.84685070586E+02  0.00000000000E+00 0.  1.
         21   -1    0    0  501  503 -0.00000000000E+00 -0.00000000000E+00 -0.10490199254E+04  0.10490199254E+04  0.00000000000E+00 0. -1.
          6    2    1    2  501    0  0.80976627430E+02 -0.58296235667E+02 -0.90555077269E+03  0.92806559967E+03  0.17699686465E+03 0.  0.
         24    2    3    3    0    0  0.57388549968E+02 -0.95175751901E+02 -0.43958039998E+03  0.46001968915E+03  0.77687302313E+02 0.  0.
         -6    2    1    2    0  502 -0.80976627430E+02  0.58296235667E+02 -0.58784082157E+02  0.20563939635E+03  0.16993036142E+03 0.  0.
        -24    2    5    5    0    0  0.10878414655E+02 -0.11709804930E+02 -0.30980424018E+02  0.86755722604E+02  0.79443749252E+02 0.  0.
          5    1    3    3  501    0  0.23588077461E+02  0.36879516233E+02 -0.46597037271E+03  0.46804591052E+03  0.47000000000E+01 0. -1.
        -13    1    4    4    0    0  0.43426656724E+02 -0.24325204025E+02 -0.88019383165E+02  0.10111875137E+03  0.00000000000E+00 0.  1.
         14    1    4    4    0    0  0.13961893244E+02 -0.70850547876E+02 -0.35156101682E+03  0.35890093778E+03  0.00000000000E+00 0. -1.
         -5    1    5    5    0  502 -0.91855042085E+02  0.70006040597E+02 -0.27803658139E+02  0.11888367374E+03  0.47000000000E+01 0.  1.
         11    1    6    6    0    0  0.17842400685E+02 -0.37883711352E+02 -0.40295477566E+02  0.58114132190E+02  0.00000000000E+00 0. -1.
        -12    1    6    6    0    0 -0.69639860297E+01  0.26173906422E+02  0.93150535476E+01  0.28641590413E+02  0.00000000000E+00 0.  1.
</event>
<event>
12    1  0.8331241E-002  0.1800364E+03  0.7818608E-02  0.1169484E+00
         21   -1    0    0  503  502  0.00000000000E+00  0.00000000000E+00  0.60587490602E+02  0.60587490602E+02  0.00000000000E+00 0.  1.
         21   -1    0    0  501  503 -0.00000000000E+00 -0.00000000000E+00 -0.60470768058E+03  0.60470768058E+03  0.00000000000E+00 0.  1.
          6    2    1    2  501    0  0.23205422286E+02  0.53409175063E+02 -0.14818207202E+03  0.23317600550E+03  0.17035871409E+03 0.  0.
         24    2    3    3    0    0  0.11789983343E+02 -0.21070156168E+02 -0.13320054086E+03  0.15620835448E+03  0.77946845596E+02 0.  0.
         -6    2    1    2    0  502 -0.23205422286E+02 -0.53409175063E+02 -0.39593811796E+03  0.43211916568E+03  0.16299984201E+03 0.  0.
        -24    2    5    5    0    0 -0.57286682892E+02 -0.46270683544E+02 -0.15763411169E+03  0.19123873935E+03  0.79378851520E+02 0.  0.
          5    1    3    3  501    0  0.11415438943E+02  0.74479331231E+02 -0.14981531167E+02  0.76967651016E+02  0.47000000000E+01 0. -1.
        -13    1    4    4    0    0  0.43226922434E+02 -0.15303865706E+02 -0.54252109428E+02  0.71035670659E+02  0.00000000000E+00 0.  1.
         14    1    4    4    0    0 -0.31436939091E+02 -0.57662904619E+01 -0.78948431428E+02  0.85172683825E+02  0.00000000000E+00 0. -1.
         -5    1    5    5    0  502  0.34081260606E+02 -0.71384915191E+01 -0.23830400627E+03  0.24088042633E+03  0.47000000000E+01 0.  1.
         13    1    6    6    0    0 -0.25344250723E+01 -0.38186926999E+02 -0.11551278780E+03  0.12168758708E+03  0.00000000000E+00 0. -1.
        -14    1    6    6    0    0 -0.54752257820E+02 -0.80837565445E+01 -0.42121323890E+02  0.69551152273E+02  0.00000000000E+00 0.  1.
</event>
<event>
12    1  0.8331241E-002  0.2182179E+03  0.7818608E-02  0.1135456E+00
         21   -1    0    0  501  502  0.00000000000E+00  0.00000000000E+00  0.16988151968E+03  0.16988151968E+03  0.00000000000E+00 0.  1.
         21   -1    0    0  502  503 -0.00000000000E+00 -0.00000000000E+00 -0.28527667438E+03  0.28527667438E+03  0.00000000000E+00 0. -1.
         -6    2    1    2    0  503  0.10914768406E+03 -0.73257302579E+02 -0.92427527722E+02  0.23698501143E+03  0.17418151005E+03 0.  0.
        -24    2    3    3    0    0  0.82084304135E+02 -0.58794486952E+02 -0.13299488222E+03  0.18590272664E+03  0.81716341049E+02 0.  0.
          6    2    1    2  501    0 -0.10914768406E+03  0.73257302579E+02 -0.22967626986E+02  0.21817318263E+03  0.17260410312E+03 0.  0.
         24    2    5    5    0    0 -0.55216966977E+02 -0.28907664868E+02 -0.14658279677E+02  0.10225364989E+03  0.79726891461E+02 0.  0.
          5    1    5    5  501    0 -0.53930717084E+02  0.10216496745E+03 -0.83093473092E+01  0.11591953274E+03  0.47000000000E+01 0. -1.
        -13    1    6    6    0    0  0.61293980627E+01  0.10158641338E+01  0.23327139655E+02  0.24140359256E+02  0.00000000000E+00 0.  1.
         14    1    6    6    0    0 -0.61346365040E+02 -0.29923529002E+02 -0.37985419332E+02  0.78113290632E+02  0.00000000000E+00 0. -1.
         -5    1    3    3    0  503  0.27063379926E+02 -0.14462815628E+02  0.40567354494E+02  0.51082284791E+02  0.47000000000E+01 0.  1.
         13    1    4    4    0    0  0.42075664940E+02 -0.67011412070E+02 -0.11864864212E+03  0.14261273156E+03  0.00000000000E+00 0. -1.
        -14    1    4    4    0    0  0.40008639195E+02  0.82169251180E+01 -0.14346240100E+02  0.43289995075E+02  0.00000000000E+00 0.  1.
</event>
<event>
12    1  0.8331241E-002  0.2383259E+03  0.7818608E-02  0.1121986E+00
         21   -1    0    0  501  502  0.00000000000E+00  0.00000000000E+00  0.22439050973E+03  0.22439050973E+03  0.00000000000E+00 0.  1.
         21   -1    0    0  502  503 -0.00000000000E+00 -0.00000000000E+00 -0.68817141905E+03  0.68817141905E+03  0.00000000000E+00 0. -1.
         -6    2    1    2    0  503  0.11047584783E+03  0.12195411833E+03 -0.59853498209E+03  0.64423858828E+03  0.17239928628E+03 0.  0.
        -24    2    3    3    0    0  0.14218299376E+03  0.88512756517E+02 -0.37783871738E+03  0.41873337982E+03  0.67268382210E+02 0.  0.
          6    2    1    2  501    0 -0.11047584783E+03 -0.12195411833E+03  0.13475407278E+03  0.26832334049E+03  0.16358800382E+03 0.  0.
         24    2    5    5    0    0  0.22755707739E+01 -0.38763218141E+02  0.74074487504E+02  0.11555649088E+03  0.79740250712E+02 0.  0.
          5    1    5    5  501    0 -0.11275141860E+03 -0.83190900188E+02  0.60679585273E+02  0.15276684961E+03  0.47000000000E+01 0. -1.
        -11    1    6    6    0    0 -0.34324832807E+02 -0.27516599919E+02  0.60768276244E+02  0.75020935852E+02  0.00000000000E+00 0.  1.
         12    1    6    6    0    0  0.36600403581E+02 -0.11246618222E+02  0.13306211260E+02  0.40535555033E+02  0.00000000000E+00 0. -1.
         -5    1    3    3    0  503 -0.31707145936E+02  0.33441361812E+02 -0.22069626471E+03  0.22550520846E+03  0.47000000000E+01 0.  1.
         11    1    4    4    0    0  0.84958690294E+02  0.89067642602E+02 -0.26626427890E+03  0.29333886588E+03  0.00000000000E+00 0. -1.
        -12    1    4    4    0    0  0.57224303468E+02 -0.55488608420E+00 -0.11157443848E+03  0.12539451395E+03  0.00000000000E+00 0.  1.
</event>
<event>
12    1  0.8331241E-002  0.2229215E+03  0.7818608E-02  0.1131919E+00
         21   -1    0    0  503  502  0.00000000000E+00  0.00000000000E+00  0.12015556396E+03  0.12015556396E+03  0.00000000000E+00 0. -1.
         21   -1    0    0  501  503 -0.00000000000E+00 -0.00000000000E+00 -0.92264979134E+03  0.92264979134E+03  0.00000000000E+00 0. -1.
          6    2    1    2  501    0 -0.44323798126E+02 -0.13287666557E+03 -0.78972281683E+03  0.82058280465E+03  0.17341627526E+03 0.  0.
         24    2    3    3    0    0 -0.11004136439E+02 -0.94036304510E+02 -0.25744211730E+03  0.28582715335E+03  0.80354217357E+02 0.  0.
         -6    2    1    2    0  502  0.44323798126E+02  0.13287666557E+03 -0.12771410540E+02  0.22222255065E+03  0.17204344148E+03 0.  0.
        -24    2    5    5    0    0  0.43421583420E+01  0.55770137491E+02  0.55160057670E+02  0.11185623982E+03  0.79624266717E+02 0.  0.
          5    1    3    3  501    0 -0.33319661687E+02 -0.38840361063E+02 -0.53228069953E+03  0.53475565130E+03  0.47000000000E+01 0. -1.
        -13    1    4    4    0    0  0.60626363122E+01 -0.12121162175E+02  0.15619725801E+01  0.13642503065E+02  0.00000000000E+00 0.  1.
         14    1    4    4    0    0 -0.17066772752E+02 -0.81915142334E+02 -0.25900408988E+03  0.27218465028E+03  0.00000000000E+00 0. -1.
         -5    1    5    5    0  502  0.39981639784E+02  0.77106528082E+02 -0.67931468210E+02  0.11036631083E+03  0.47000000000E+01 0.  1.
         13    1    6    6    0    0 -0.11462942157E+02  0.58520227113E+02  0.57521814375E+01  0.59909127982E+02  0.00000000000E+00 0. -1.
        -14    1    6    6    0    0  0.15805100499E+02 -0.27500896229E+01  0.49407876232E+02  0.51947111840E+02  0.00000000000E+00 0.  1.
</event>
<event>
12    1  0.8331241E-002  0.1973667E+03  0.7818608E-02  0.1152231E+00
         21   -1    0    0  503  502  0.00000000000E+00  0.00000000000E+00  0.21294945015E+03  0.21294945015E+03  0.00000000000E+00 0.  1.
         21   -1    0    0  501  503 -0.00000000000E+00 -0.00000000000E+00 -0.22234397694E+03  0.22234397694E+03  0.00000000000E+00 0.  1.
          6    2    1    2  501    0 -0.68850829037E+02  0.66634032815E+02 -0.97599066232E+02  0.22017991316E+03  0.17254879147E+03 0.  0.
         24    2    3    3    0    0 -0.92390564913E+02  0.82138807976E+02 -0.11646116115E+03  0.18593979279E+03  0.75680936997E+02 0.  0.
         -6    2    1    2    0  502  0.68850829037E+02 -0.66634032815E+02  0.88204539440E+02  0.21511351393E+03  0.17121113314E+03 0.  0.
        -24    2    5    5    0    0  0.10101522673E+03 -0.33494370199E+02  0.22687517590E+02  0.13481808524E+03  0.79594244685E+02 0.  0.
          5    1    3    3  501    0  0.23539735876E+02 -0.15504775161E+02  0.18862094921E+02  0.34240120366E+02  0.47000000000E+01 0. -1.
        -11    1    4    4    0    0 -0.82164128842E+02  0.54732675795E+02 -0.44558631852E+02  0.10831473372E+03  0.00000000000E+00 0.  1.
         12    1    4    4    0    0 -0.10226436071E+02  0.27406132181E+02 -0.71902529301E+02  0.77625059070E+02  0.00000000000E+00 0. -1.
         -5    1    5    5    0  502 -0.32164397690E+02 -0.33139662616E+02  0.65517021850E+02  0.80295428694E+02  0.47000000000E+01 0.  1.
         11    1    6    6    0    0  0.66811946474E+02 -0.20010519995E+02 -0.25453581159E+02  0.74243800387E+02  0.00000000000E+00 0. -1.
        -12    1    6    6    0    0  0.34203280253E+02 -0.13483850204E+02  0.48141098749E+02  0.60574284850E+02  0.00000000000E+00 0.  1.
</event>
<event>
12    1  0.8331241E-002  0.1882654E+03  0.7818608E-02  0.1160167E+00
         21   -1    0    0  503  502  0.00000000000E+00  0.00000000000E+00  0.41686285384E+03  0.41686285384E+03  0.00000000000E+00 0.  1.
         21   -1    0    0  501  503 -0.00000000000E+00 -0.00000000000E+00 -0.87917980681E+02  0.87917980681E+02  0.00000000000E+00 0.  1.
          6    2    1    2  501    0 -0.47087360739E+02  0.58618480488E+02  0.11691393603E+03  0.22161394908E+03  0.17259932849E+03 0.  0.
         24    2    3    3    0    0 -0.32442658842E+02  0.66105047499E+02  0.49640574176E+01  0.10836474909E+03  0.79346540950E+02 0.  0.
         -6    2    1    2    0  502  0.47087360739E+02 -0.58618480488E+02  0.21203093714E+03  0.28316688544E+03  0.17196808108E+03 0.  0.
        -24    2    5    5    0    0  0.21834304647E+02 -0.10528873164E+03  0.16302868540E+03  0.21078498260E+03  0.79306385333E+02 0.  0.
          5    1    3    3  501    0 -0.14644701897E+02 -0.74865670111E+01  0.11194987861E+03  0.11324920000E+03  0.47000000000E+01 0. -1.
        -13    1    4    4    0    0  0.16384098264E+01  0.49783511613E+02  0.34341084260E+02  0.60501177537E+02  0.00000000000E+00 0.  1.
         14    1    4    4    0    0 -0.34081068669E+02  0.16321535886E+02 -0.29377026842E+02  0.47863571548E+02  0.00000000000E+00 0. -1.
         -5    1    5    5    0  502  0.25253056093E+02  0.46670251151E+02  0.49002251732E+02  0.72381902844E+02  0.47000000000E+01 0.  1.
         13    1    6    6    0    0  0.80684945447E+01 -0.20360229098E+02 -0.45885104910E+01  0.22376191849E+02  0.00000000000E+00 0. -1.
        -14    1    6    6    0    0  0.13765810102E+02 -0.84928502541E+02  0.16761719589E+03  0.18840879075E+03  0.00000000000E+00 0.  1.
</event>
<event>
12    1  0.8331241E-002  0.2408175E+03  0.7818608E-02  0.1119840E+00
         21   -1    0    0  501  502  0.00000000000E+00  0.00000000000E+00  0.23544403940E+03  0.23544403940E+03  0.00000000000E+00 0.  1.
         21   -1    0    0  502  503 -0.00000000000E+00 -0.00000000000E+00 -0.67516435151E+03  0.67516435151E+03  0.00000000000E+00 0.  1.
         -6    2    1    2    0  503  0.15634867363E+03  0.61263203451E+02 -0.58366210763E+03  0.63005126032E+03  0.16764559912E+03 0.  0.
        -24    2    3    3    0    0  0.13095660844E+03  0.22538681680E+02 -0.25974226071E+03  0.30280440733E+03  0.81036051448E+02 0.  0.
          6    2    1    2  501    0 -0.15634867363E+03 -0.61263203451E+02  0.14394179551E+03  0.28055713059E+03  0.17261221041E+03 0.  0.
         24    2    5    5    0    0 -0.24025562254E+02 -0.51879159367E+02  0.10181822288E+03  0.14129496250E+03  0.79552756709E+02 0.  0.
          5    1    5    5  501    0 -0.13232311138E+03 -0.93840440844E+01  0.42123572633E+02  0.13926216808E+03  0.47000000000E+01 0. -1.
        -11    1    6    6    0    0 -0.37191764407E+02 -0.66053260610E+02  0.65661276429E+02  0.10028790455E+03  0.00000000000E+00 0.  1.
         12    1    6    6    0    0  0.13166202153E+02  0.14174101243E+02  0.36156946452E+02  0.41007057953E+02  0.00000000000E+00 0. -1.
         -5    1    3    3    0  503  0.25392065186E+02  0.38724521771E+02 -0.32391984692E+03  0.32724685299E+03  0.47000000000E+01 0.  1.
         13    1    4    4    0    0  0.24539946811E+02  0.62053957103E+01 -0.13792776851E+03  0.14023118502E+03  0.00000000000E+00 0. -1.
        -14    1    4    4    0    0  0.10641666163E+03  0.16333285970E+02 -0.12181449220E+03  0.16257322231E+03  0.00000000000E+00 0.  1.
</event>
<event>
12    1  0.8331241E-002  0.2153278E+03  0.7818608E-02  0.1139128E+00
         21   -1    0    0  503  502  0.00000000000E+00  0.00000000000E+00  0.14425592420E+03  0.14425592420E+03  0.00000000000E+00 0. -1.
         21   -1    0    0  501  503 -0.00000000000E+00 -0.00000000000E+00 -0.33534558505E+03  0.33534558505E+03  0.00000000000E+00 0. -1.
          6    2    1    2  501    0 -0.77129296858E+02 -0.67489658771E+02 -0.16520003795E+03  0.27139845570E+03  0.18937340559E+03 0.  0.
         24    2    3    3    0    0  0.12529961205E+02 -0.72973706084E+02 -0.13991524247E+03  0.17796255139E+03  0.81315637586E+02 0.  0.
         -6    2    1    2    0  502  0.77129296858E+02  0.67489658771E+02 -0.25889622902E+02  0.20820305355E+03  0.17937239603E+03 0.  0.
        -24    2    5    5    0    0  0.91797362823E+02  0.10284420253E+03  0.48207529384E+01  0.15890484762E+03  0.78891223355E+02 0.  0.
          5    1    3    3  501    0 -0.89659258063E+02  0.54840473127E+01 -0.25284795478E+02  0.93435904307E+02  0.47000000000E+01 0. -1.
        -11    1    4    4    0    0  0.39252499022E+02 -0.34491678522E+02 -0.34528226217E+02  0.62630926645E+02  0.00000000000E+00 0.  1.
         12    1    4    4    0    0 -0.26722537817E+02 -0.38482027562E+02 -0.10538701625E+03  0.11533162475E+03  0.00000000000E+00 0. -1.
         -5    1    5    5    0  502 -0.14668065965E+02 -0.35354543759E+02 -0.30710375840E+02  0.49298205929E+02  0.47000000000E+01 0.  1.
         13    1    6    6    0    0  0.60435272411E+02  0.31960533332E+02 -0.29092836849E+02  0.74298660810E+02  0.00000000000E+00 0. -1.
        -14    1    6    6    0    0  0.31362090411E+02  0.70883669199E+02  0.33913589787E+02  0.84606186809E+02  0.00000000000E+00 0.  1.
</event>
<event>
12    1  0.8331241E-002  0.2663289E+03  0.7818608E-02  0.1103523E+00
         21   -1    0    0  503  502  0.00000000000E+00  0.00000000000E+00  0.54584067582E+03  0.54584067582E+03  0.00000000000E+00 0. -1.
         21   -1    0    0  501  503 -0.00000000000E+00 -0.00000000000E+00 -0.54402502709E+03  0.54402502709E+03  0.00000000000E+00 0.  1.
          6    2    1    2  501    0  0.69529345756E+02 -0.19108618994E+03 -0.47474562796E+03  0.54434775210E+03  0.17199651752E+03 0.  0.
         24    2    3    3    0    0  0.76904390405E+02 -0.12127122925E+03 -0.43168718441E+03  0.46185751279E+03  0.79608671822E+02 0.  0.
         -6    2    1    2    0  502 -0.69529345756E+02  0.19108618994E+03  0.47656127668E+03  0.54551795082E+03  0.17067783195E+03 0.  0.
        -24    2    5    5    0    0  0.37008263871E+00  0.10806540021E+03  0.36865784348E+03  0.39240484715E+03  0.79966810763E+02 0.  0.
          5    1    3    3  501    0 -0.73750446495E+01 -0.69814960694E+02 -0.43058443554E+02  0.82490239311E+02  0.47000000000E+01 0. -1.
        -13    1    4    4    0    0  0.18794962733E+01 -0.62922351685E+01 -0.13262485227E+03  0.13278733438E+03  0.00000000000E+00 0.  1.
         14    1    4    4    0    0  0.75024894132E+02 -0.11497899408E+03 -0.29906233213E+03  0.32907017841E+03  0.00000000000E+00 0. -1.
         -5    1    5    5    0  502 -0.69899428394E+02  0.83020789733E+02  0.10790343321E+03  0.15311310367E+03  0.47000000000E+01 0.  1.
         11    1    6    6    0    0  0.78450427957E+01  0.11261192676E+03  0.26066907435E+03  0.28406224154E+03  0.00000000000E+00 0. -1.
        -12    1    6    6    0    0 -0.74749601570E+01 -0.45465265454E+01  0.10798876913E+03  0.10834260561E+03  0.00000000000E+00 0.  1.
</event>
<event>
12    1  0.8331241E-002  0.3117546E+03  0.7818608E-02  0.1079694E+00
         21   -1    0    0  503  502  0.00000000000E+00  0.00000000000E+00  0.12298484662E+04  0.12298484662E+04  0.00000000000E+00 0. -1.
         21   -1    0    0  501  503 -0.00000000000E+00 -0.00000000000E+00 -0.78849050395E+02  0.78849050395E+02  0.00000000000E+00 0.  1.
          6    2    1    2  501    0 -0.54958289589E+02 -0.25396014854E+03  0.61126362987E+03  0.68617354158E+03  0.17226355771E+03 0.  0.
         24    2    3    3    0    0 -0.91827907223E+02 -0.14224609168E+03  0.30473921554E+03  0.35781595329E+03  0.80622278539E+02 0.  0.
         -6    2    1    2    0  502  0.54958289589E+02  0.25396014854E+03  0.53973578592E+03  0.62252397501E+03  0.16942612021E+03 0.  0.
        -24    2    5    5    0    0  0.11109079567E+02  0.21580417731E+03  0.31431230558E+03  0.38967967757E+03  0.79769487123E+02 0.  0.
          5    1    3    3  501    0  0.36869617634E+02 -0.11171405686E+03  0.30652441433E+03  0.32835758829E+03  0.47000000000E+01 0. -1.
        -11    1    4    4    0    0 -0.12860837479E+02 -0.18025303820E+02  0.33397202421E+01  0.22393446581E+02  0.00000000000E+00 0.  1.
         12    1    4    4    0    0 -0.78967069744E+02 -0.12422078786E+03  0.30139949530E+03  0.33542250671E+03  0.00000000000E+00 0. -1.
         -5    1    5    5    0  502  0.43849210022E+02  0.38155971231E+02  0.22542348034E+03  0.23284429744E+03  0.47000000000E+01 0.  1.
         13    1    6    6    0    0  0.29279542416E+02  0.72083834849E+02  0.16064436494E+03  0.17849364929E+03  0.00000000000E+00 0. -1.
        -14    1    6    6    0    0 -0.18170462849E+02  0.14372034247E+03  0.15366794064E+03  0.21118602828E+03  0.00000000000E+00 0.  1.
</event>
<event>
12    1  0.8331241E-002  0.1967801E+03  0.7818608E-02  0.1153757E+00
         21   -1    0    0  501  502  0.00000000000E+00  0.00000000000E+00  0.20164901403E+03  0.20164901403E+03  0.00000000000E+00 0. -1.
         21   -1    0    0  502  503 -0.00000000000E+00 -0.00000000000E+00 -0.18640274415E+03  0.18640274415E+03  0.00000000000E+00 0. -1.
         -6    2    1    2    0  503  0.43097053393E+00  0.81737914855E+02  0.65471905583E+01  0.19107944284E+03  0.17258973119E+03 0.  0.
        -24    2    3    3    0    0  0.65542119052E+02  0.53190740032E+02  0.21271320902E+02  0.11832442332E+03  0.80144718260E+02 0.  0.
          6    2    1    2  501    0 -0.43097053393E+00 -0.81737914855E+02  0.86990793214E+01  0.19697231533E+03  0.17900040940E+03 0.  0.
         24    2    5    5    0    0 -0.31488669974E+02  0.90893191956E+01  0.41190165688E+02  0.95523176191E+02  0.79711325293E+02 0.  0.
          5    1    5    5  501    0  0.31057699440E+02 -0.90827234050E+02 -0.32491086366E+02  0.10144913914E+03  0.47000000000E+01 0. -1.
        -13    1    6    6    0    0 -0.32412070614E+01  0.39568963363E+02  0.42615408739E+01  0.39929550655E+02  0.00000000000E+00 0.  1.
         14    1    6    6    0    0 -0.28247462913E+02 -0.30479644168E+02  0.36928624814E+02  0.55593625536E+02  0.00000000000E+00 0. -1.
         -5    1    3    3    0  503 -0.65111148518E+02  0.28547174822E+02 -0.14724130344E+02  0.72755019525E+02  0.47000000000E+01 0.  1.
         13    1    4    4    0    0  0.76202685401E+02  0.27975659381E+02 -0.37142781181E+01  0.81260584800E+02  0.00000000000E+00 0. -1.
        -14    1    4    4    0    0 -0.10660566349E+02  0.25215080651E+02  0.24985599020E+02  0.37063838516E+02  0.00000000000E+00 0.  1.
</event>
<event>
12    1  0.8331241E-002  0.2322355E+03  0.7818608E-02  0.1125588E+00
         21   -1    0    0  501  502  0.00000000000E+00  0.00000000000E+00  0.89084230205E+03  0.89084230205E+03  0.00000000000E+00 0. -1.
         21   -1    0    0  502  503 -0.00000000000E+00 -0.00000000000E+00 -0.65938647055E+02  0.65938647055E+02  0.00000000000E+00 0. -1.
         -6    2    1    2    0  503  0.14816008651E+03 -0.48487743589E+02  0.56101290324E+03  0.60718102239E+03  0.17213612009E+03 0.  0.
        -24    2    3    3    0    0  0.62803261396E+01 -0.33174291302E+02  0.25475128216E+03  0.26927180563E+03  0.80430799129E+02 0.  0.
          6    2    1    2  501    0 -0.14816008651E+03  0.48487743589E+02  0.26389075176E+03  0.34959992672E+03  0.16816452475E+03 0.  0.
         24    2    5    5    0    0 -0.41170116287E+02  0.82313579284E+01  0.43666234979E+02  0.10142990817E+03  0.81354486452E+02 0.  0.
          5    1    5    5  501    0 -0.10698997022E+03  0.40256385661E+02  0.22022451678E+03  0.24817001855E+03  0.47000000000E+01 0. -1.
        -11    1    6    6    0    0 -0.30744735112E+02 -0.35251579448E+02  0.20504402057E+02  0.51071940382E+02  0.00000000000E+00 0.  1.
         12    1    6    6    0    0 -0.10425381175E+02  0.43482937376E+02  0.23161832922E+02  0.50357967789E+02  0.00000000000E+00 0. -1.
         -5    1    3    3    0  503  0.14187976037E+03 -0.15313452287E+02  0.30626162108E+03  0.33790921676E+03  0.47000000000E+01 0.  1.
         13    1    4    4    0    0  0.35678880352E+02 -0.41269355987E+02  0.19040426547E+03  0.19806546028E+03  0.00000000000E+00 0. -1.
        -14    1    4    4    0    0 -0.29398554212E+02  0.80950646844E+01  0.64347016681E+02  0.71206345348E+02  0.00000000000E+00 0.  1.
</event>
<event>
12    1  0.8331241E-002  0.2084167E+03  0.7818608E-02  0.1143673E+00
         21   -1    0    0  503  502  0.00000000000E+00  0.00000000000E+00  0.21815501821E+03  0.21815501821E+03  0.00000000000E+00 0.  1.
         21   -1    0    0  501  503 -0.00000000000E+00 -0.00000000000E+00 -0.87608972284E+03  0.87608972284E+03  0.00000000000E+00 0.  1.
          6    2    1    2  501    0  0.81729188622E+02 -0.74583223892E+02 -0.81206523851E+03  0.83838383756E+03  0.17662160099E+03 0.  0.
         24    2    3    3    0    0  0.21734863263E+02 -0.42678965465E+02 -0.70575564827E+03  0.71212608629E+03  0.82089154769E+02 0.  0.
         -6    2    1    2    0  502 -0.81729188622E+02  0.74583223892E+02  0.15413053388E+03  0.25586090348E+03  0.17165739978E+03 0.  0.
        -24    2    5    5    0    0 -0.87493274555E+02  0.14584009450E+02  0.38783878132E+02  0.12563006454E+03  0.80068455016E+02 0.  0.
          5    1    3    3  501    0  0.59994325359E+02 -0.31904258426E+02 -0.10630959024E+03  0.12625775127E+03  0.47000000000E+01 0. -1.
        -11    1    4    4    0    0 -0.13085198195E+02 -0.52044288820E+02 -0.52999571454E+03  0.53270562963E+03  0.00000000000E+00 0.  1.
         12    1    4    4    0    0  0.34820061459E+02  0.93653233542E+01 -0.17575993374E+03  0.17942045666E+03  0.00000000000E+00 0. -1.
         -5    1    5    5    0  502  0.57640859327E+01  0.59999214442E+02  0.11534665575E+03  0.13023083895E+03  0.47000000000E+01 0.  1.
         13    1    6    6    0    0 -0.79582042272E+02  0.42479928446E+02  0.25561677276E+02  0.93761639908E+02  0.00000000000E+00 0. -1.
        -14    1    6    6    0    0 -0.79112322825E+01 -0.27895918996E+02  0.13222200856E+02  0.31868424629E+02  0.00000000000E+00 0.  1.
</event>
<event>
12    1  0.8331241E-002  0.1902007E+03  0.7818608E-02  0.1159509E+00
         21   -1    0    0  503  502  0.00000000000E+00  0.00000000000E+00  0.33659873894E+03  0.33659873894E+03  0.00000000000E+00 0.  1.
         21   -1    0    0  501  503 -0.00000000000E+00 -0.00000000000E+00 -0.12257455040E+03  0.12257455040E+03  0.00000000000E+00 0. -1.
          6    2    1    2  501    0 -0.50623300878E+02  0.56058639774E+02  0.20068959846E+02  0.19125652675E+03  0.17455946320E+03 0.  0.
         24    2    3    3    0    0 -0.84430661733E+02 -0.42406804405E+01  0.33105344892E+02  0.12075132835E+03  0.79614065512E+02 0.  0.
         -6    2    1    2    0  502  0.50623300878E+02 -0.56058639774E+02  0.19395522869E+03  0.26791676259E+03  0.16868749585E+03 0.  0.
        -24    2    5    5    0    0  0.58927918050E+01 -0.93735539435E+02  0.15518078368E+03  0.19758956447E+03  0.78354859548E+02 0.  0.
          5    1    3    3  501    0  0.33807360855E+02  0.60299320215E+02 -0.13036385045E+02  0.70505198399E+02  0.47000000000E+01 0. -1.
        -13    1    4    4    0    0 -0.33558475412E+02 -0.29972996274E+02  0.43747473544E+02  0.62756618927E+02  0.00000000000E+00 0.  1.
         14    1    4    4    0    0 -0.50872186320E+02  0.25732315833E+02 -0.10642128653E+02  0.57994709426E+02  0.00000000000E+00 0. -1.
         -5    1    5    5    0  502  0.44730509073E+02  0.37676899661E+02  0.38774445010E+02  0.70327198123E+02  0.47000000000E+01 0.  1.
         11    1    6    6    0    0 -0.30730241189E+02 -0.75141136548E+02  0.10589948375E+03  0.13343627237E+03  0.00000000000E+00 0. -1.
        -12    1    6    6    0    0  0.36623032994E+02 -0.18594402888E+02  0.49281299927E+02  0.64153292097E+02  0.00000000000E+00 0.  1.
</event>
<event>
12    1  0.8331241E-002  0.4272180E+03  0.7818608E-02  0.1035408E+00
         21   -1    0    0  503  502  0.00000000000E+00  0.00000000000E+00  0.58846280184E+03  0.58846280184E+03  0.00000000000E+00 0. -1.
         21   -1    0    0  501  503 -0.00000000000E+00 -0.00000000000E+00 -0.33924824605E+03  0.33924824605E+03  0.00000000000E+00 0.  1.
          6    2    1    2  501    0  0.37415326210E+03 -0.78930491101E+02 -0.23424763908E+02  0.42785971837E+03  0.19051124134E+03 0.  0.
         24    2    3    3    0    0  0.18271258354E+03  0.35516050854E+02 -0.28291518259E+01  0.20381995938E+03  0.83001769197E+02 0.  0.
         -6    2    1    2    0  502 -0.37415326210E+03  0.78930491101E+02  0.27263931969E+03  0.49985132952E+03  0.17116794973E+03 0.  0.
        -24    2    5    5    0    0 -0.23198099272E+03  0.94454314587E+02  0.11462172099E+03  0.28667160540E+03  0.79408260851E+02 0.  0.
          5    1    3    3  501    0  0.19144067856E+03 -0.11444654196E+03 -0.20595612082E+02  0.22403975899E+03  0.47000000000E+01 0. -1.
        -11    1    4    4    0    0  0.62679338981E+02 -0.25343769981E+02 -0.13030339549E+02  0.68853438264E+02  0.00000000000E+00 0.  1.
         12    1    4    4    0    0  0.12003324456E+03  0.60859820835E+02  0.10201187723E+02  0.13496652112E+03  0.00000000000E+00 0. -1.
         -5    1    5    5    0  502 -0.14217226937E+03 -0.15523823486E+02  0.15801759870E+03  0.21317972412E+03  0.47000000000E+01 0.  1.
         11    1    6    6    0    0 -0.19650076352E+03  0.98079266705E+02  0.12053309900E+03  0.25052010014E+03  0.00000000000E+00 0. -1.
        -12    1    6    6    0    0 -0.35480229209E+02 -0.36249521187E+01 -0.59113780122E+01  0.36151505260E+02  0.00000000000E+00 0.  1.
</event>
<event>
12    1  0.8331241E-002  0.2112434E+03  0.7818608E-02  0.1140629E+00
         21   -1    0    0  503  502  0.00000000000E+00  0.00000000000E+00  0.80718635857E+03  0.80718635857E+03  0.00000000000E+00 0. -1.
         21   -1    0    0  501  503 -0.00000000000E+00 -0.00000000000E+00 -0.13740947903E+03  0.13740947903E+03  0.00000000000E+00 0. -1.
          6    2    1    2  501    0  0.12114313284E+03  0.17410421792E+02 -0.30442166984E+02  0.21320641225E+03  0.17190540210E+03 0.  0.
         24    2    3    3    0    0  0.15992940082E+02 -0.15999853839E+02  0.31740700034E+02  0.86472010820E+02  0.77189164792E+02 0.  0.
         -6    2    1    2    0  502 -0.12114313284E+03 -0.17410421792E+02  0.70021904653E+03  0.73138942535E+03  0.17217722548E+03 0.  0.
        -24    2    5    5    0    0 -0.29278785046E+02 -0.65271782626E+02  0.38206374492E+03  0.39676328441E+03  0.79565984040E+02 0.  0.
          5    1    3    3  501    0  0.10515019276E+03  0.33410275631E+02 -0.62182867018E+02  0.12673440143E+03  0.47000000000E+01 0. -1.
        -13    1    4    4    0    0  0.17239679024E+02 -0.96078305893E+01 -0.23591234006E+02  0.30758141417E+02  0.00000000000E+00 0.  1.
         14    1    4    4    0    0 -0.12467389423E+01 -0.63920232499E+01  0.55331934040E+02  0.55713869403E+02  0.00000000000E+00 0. -1.
         -5    1    5    5    0  502 -0.91864347792E+02  0.47861360834E+02  0.31815530161E+03  0.33462614094E+03  0.47000000000E+01 0.  1.
         13    1    6    6    0    0 -0.37146968482E+02 -0.95123771163E+01  0.25382973580E+03  0.25670979210E+03  0.00000000000E+00 0. -1.
        -14    1    6    6    0    0  0.78681834358E+01 -0.55759405510E+02  0.12823400912E+03  0.14005349231E+03  0.00000000000E+00 0.  1.
</event>
<event>
12    1  0.8331241E-002  0.2964803E+03  0.7818608E-02  0.1087065E+00
         21   -1    0    0  503  502  0.00000000000E+00  0.00000000000E+00  0.25614804620E+03  0.25614804620E+03  0.00000000000E+00 0.  1.
         21   -1    0    0  501  503 -0.00000000000E+00 -0.00000000000E+00 -0.84465324706E+03  0.84465324706E+03  0.00000000000E+00 0.  1.
          6    2    1    2  501    0 -0.15128638723E+03 -0.18730883370E+03 -0.71847236838E+03  0.77708528687E+03  0.17229866162E+03 0.  0.
         24    2    3    3    0    0 -0.13008737681E+03 -0.20776537729E+03 -0.56922701665E+03  0.62488760873E+03  0.79849542573E+02 0.  0.
         -6    2    1    2    0  502  0.15128638723E+03  0.18730883370E+03  0.12996716752E+03  0.32371600639E+03  0.17299831796E+03 0.  0.
        -24    2    5    5    0    0  0.13543330466E+03  0.78888667820E+02  0.12497265561E+03  0.21392854014E+03  0.74710465914E+02 0.  0.
          5    1    3    3  501    0 -0.21199010425E+02  0.20456543588E+02 -0.14924535173E+03  0.15219767814E+03  0.47000000000E+01 0. -1.
        -13    1    4    4    0    0 -0.10429358203E+03 -0.15114609159E+03 -0.32948492440E+03  0.37720366868E+03  0.00000000000E+00 0.  1.
         14    1    4    4    0    0 -0.25793794775E+02 -0.56619285702E+02 -0.23974209225E+03  0.24768394005E+03  0.00000000000E+00 0. -1.
         -5    1    5    5    0  502  0.15853082574E+02  0.10842016588E+03  0.49945119176E+01  0.10978746625E+03  0.47000000000E+01 0.  1.
         11    1    6    6    0    0  0.83665219559E+02  0.18873082418E+02  0.97944177856E+02  0.13018880205E+03  0.00000000000E+00 0. -1.
        -12    1    6    6    0    0  0.51768085101E+02  0.60015585402E+02  0.27028477751E+02  0.83739738092E+02  0.00000000000E+00 0.  1.
</event>
<event>
12    1  0.8331241E-002  0.1885347E+03  0.7818608E-02  0.1159898E+00
         21   -1    0    0  503  502  0.00000000000E+00  0.00000000000E+00  0.10008869096E+03  0.10008869096E+03  0.00000000000E+00 0.  1.
         21   -1    0    0  501  503 -0.00000000000E+00 -0.00000000000E+00 -0.41688160671E+03  0.41688160671E+03  0.00000000000E+00 0.  1.
          6    2    1    2  501    0  0.36250117917E+02  0.68277380677E+02 -0.25842440631E+03  0.31960715190E+03  0.17143420314E+03 0.  0.
         24    2    3    3    0    0  0.74316883585E+02  0.82210734611E+02 -0.23415189134E+03  0.27212597686E+03  0.83329676546E+02 0.  0.
         -6    2    1    2    0  502 -0.36250117917E+02 -0.68277380677E+02 -0.58368509436E+02  0.19736314576E+03  0.17195771762E+03 0.  0.
        -24    2    5    5    0    0  0.15419807611E+02 -0.54799816484E+02 -0.91510178014E+02  0.13434024408E+03  0.80202232795E+02 0.  0.
          5    1    3    3  501    0 -0.38066765668E+02 -0.13933353934E+02 -0.24272514978E+02  0.47481175044E+02  0.47000000000E+01 0. -1.
        -13    1    4    4    0    0  0.87103562490E+02  0.53252244546E+02 -0.20535008444E+03  0.22932834392E+03  0.00000000000E+00 0.  1.
         14    1    4    4    0    0 -0.12786678905E+02  0.28958490065E+02 -0.28801806900E+02  0.42797632936E+02  0.00000000000E+00 0. -1.
         -5    1    5    5    0  502 -0.51669925529E+02 -0.13477564193E+02  0.33141668578E+02  0.63022901685E+02  0.47000000000E+01 0.  1.
         11    1    6    6    0    0 -0.19398101131E+02 -0.57891996290E+02 -0.71656820969E+02  0.94140690211E+02  0.00000000000E+00 0. -1.
        -12    1    6    6    0    0  0.34817908743E+02  0.30921798060E+01 -0.19853357045E+02  0.40199553867E+02  0.00000000000E+00 0.  1.
</event>
<event>
12    1  0.8331241E-002  0.1825487E+03  0.7818608E-02  0.1165424E+00
         21   -1    0    0  501  502  0.00000000000E+00  0.00000000000E+00  0.59371550965E+03  0.59371550965E+03  0.00000000000E+00 0. -1.
         21   -1    0    0  502  503 -0.00000000000E+00 -0.00000000000E+00 -0.63790479837E+02  0.63790479837E+02  0.00000000000E+00 0. -1.
         -6    2    1    2    0  503  0.54872035320E+02  0.24073710133E+02  0.15057280201E+03  0.23663513594E+03  0.17243414707E+03 0.  0.
        -24    2    3    3    0    0 -0.23834996139E+02  0.48698101815E+02  0.56848273560E+02  0.11170501667E+03  0.79414560259E+02 0.  0.
          6    2    1    2  501    0 -0.54872035320E+02 -0.24073710133E+02  0.37935222781E+03  0.42087085356E+03  0.17214435468E+03 0.  0.
         24    2    5    5    0    0 -0.11672294766E+02  0.89606239464E+01  0.69919448000E+02  0.10666038264E+03  0.79190736642E+02 0.  0.
          5    1    5    5  501    0 -0.43199740555E+02 -0.33034334079E+02  0.30943277981E+03  0.31421047091E+03  0.47000000000E+01 0. -1.
        -11    1    6    6    0    0 -0.41131806688E+02  0.20123737371E+02  0.26147648322E+02  0.52730350274E+02  0.00000000000E+00 0.  1.
         12    1    6    6    0    0  0.29459511923E+02 -0.11163113425E+02  0.43771799679E+02  0.53930032368E+02  0.00000000000E+00 0. -1.
         -5    1    3    3    0  503  0.78707031460E+02 -0.24624391682E+02  0.93724528449E+02  0.12493011927E+03  0.47000000000E+01 0.  1.
         11    1    4    4    0    0  0.25231318589E+02  0.74194701146E+01  0.43874728043E+00  0.26303240745E+02  0.00000000000E+00 0. -1.
        -12    1    4    4    0    0 -0.49066314728E+02  0.41278631700E+02  0.56409526279E+02  0.85401775925E+02  0.00000000000E+00 0.  1.
</event>
<event>
12    1  0.8331241E-002  0.6689658E+03  0.7818608E-02  0.9771850E-01
         21   -1    0    0  503  502  0.00000000000E+00  0.00000000000E+00  0.85943291216E+03  0.85943291216E+03  0.00000000000E+00 0.  1.
         21   -1    0    0  501  503 -0.00000000000E+00 -0.00000000000E+00 -0.77808407260E+03  0.77808407260E+03  0.00000000000E+00 0. -1.
          6    2    1    2  501    0 -0.45582567795E+01  0.64642366299E+03 -0.43025516700E+03  0.79538340862E+03  0.17213636513E+03 0.  0.
         24    2    3    3    0    0  0.22949227220E+02  0.24600519987E+03 -0.11103923269E+03  0.28253595567E+03  0.80322037173E+02 0.  0.
         -6    2    1    2    0  502  0.45582567795E+01 -0.64642366299E+03  0.51160400656E+03  0.84213357613E+03  0.17194758139E+03 0.  0.
        -24    2    5    5    0    0  0.64209238353E+02 -0.40290566079E+03  0.28665568252E+03  0.50526105501E+03  0.81617740756E+02 0.  0.
          5    1    3    3  501    0 -0.27507484000E+02  0.40041846312E+03 -0.31921593431E+03  0.51284745296E+03  0.47000000000E+01 0. -1.
        -11    1    4    4    0    0  0.35069071623E+01  0.31853575362E+02 -0.49328315163E+02  0.58823731079E+02  0.00000000000E+00 0.  1.
         12    1    4    4    0    0  0.19442320058E+02  0.21415162451E+03 -0.61710917527E+02  0.22371222459E+03  0.00000000000E+00 0. -1.
         -5    1    5    5    0  502 -0.59650981574E+02 -0.24351800220E+03  0.22494832404E+03  0.33687252112E+03  0.47000000000E+01 0.  1.
         11    1    6    6    0    0  0.66083312217E+01 -0.17560884656E+02 -0.39757280296E+01  0.19179706067E+02  0.00000000000E+00 0. -1.
        -12    1    6    6    0    0  0.57600907131E+02 -0.38534477613E+03  0.29063141055E+03  0.48608134894E+03  0.00000000000E+00 0.  1.
</event>
<event>
12    1  0.8331241E-002  0.2225578E+03  0.7818608E-02  0.1131993E+00
         21   -1    0    0  501  502  0.00000000000E+00  0.00000000000E+00  0.50258763938E+02  0.50258763938E+02  0.00000000000E+00 0. -1.
         21   -1    0    0  502  503 -0.00000000000E+00 -0.00000000000E+00 -0.12794080129E+04  0.12794080129E+04  0.00000000000E+00 0. -1.
         -6    2    1    2    0  503  0.34453888475E+02  0.13876319204E+03 -0.93325692930E+03  0.95942716645E+03  0.17055702196E+03 0.  0.
        -24    2    3    3    0    0 -0.26855341699E+02  0.33198029845E+02 -0.38373493437E+03  0.39648903656E+03  0.90153966587E+02 0.  0.
          6    2    1    2  501    0 -0.34453888475E+02 -0.13876319204E+03 -0.29589231967E+03  0.37023961039E+03  0.17053682995E+03 0.  0.
         24    2    5    5    0    0  0.43228857141E+01 -0.93740315430E+02 -0.28340048325E+03  0.30933941653E+03  0.81050025528E+02 0.  0.
          5    1    5    5  501    0 -0.38776774189E+02 -0.45022876614E+02 -0.12491836421E+02  0.60900193861E+02  0.47000000000E+01 0. -1.
        -13    1    6    6    0    0 -0.14820849599E+02  0.22591842517E+01 -0.78608229574E+01  0.16927906955E+02  0.00000000000E+00 0.  1.
         14    1    6    6    0    0  0.19143735313E+02 -0.95999499682E+02 -0.27553966029E+03  0.29241150958E+03  0.00000000000E+00 0. -1.
         -5    1    3    3    0  503  0.61309230174E+02  0.10556516220E+03 -0.54952199493E+03  0.56293812989E+03  0.47000000000E+01 0.  1.
         13    1    4    4    0    0  0.14012219666E+02  0.50242043704E+02 -0.15598721487E+03  0.16447679611E+03  0.00000000000E+00 0. -1.
        -14    1    4    4    0    0 -0.40867561365E+02 -0.17044013859E+02 -0.22774771951E+03  0.23201224046E+03  0.00000000000E+00 0.  1.
</event>
<event>
12    1  0.8331241E-002  0.2177500E+03  0.7818608E-02  0.1135749E+00
         21   -1    0    0  501  502  0.00000000000E+00  0.00000000000E+00  0.39717957398E+03  0.39717957398E+03  0.00000000000E+00 0. -1.
         21   -1    0    0  502  503 -0.00000000000E+00 -0.00000000000E+00 -0.14463480014E+03  0.14463480014E+03  0.00000000000E+00 0.  1.
         -6    2    1    2    0  503 -0.84835521819E+02  0.10155667689E+03  0.24039462866E+03  0.32372567432E+03  0.17174955705E+03 0.  0.
        -24    2    3    3    0    0 -0.27957219665E+02  0.12054177441E+03  0.21163571402E+03  0.25705678836E+03  0.77308417950E+02 0.  0.
          6    2    1    2  501    0  0.84835521819E+02 -0.10155667689E+03  0.12150145180E+02  0.21808869980E+03  0.17292839723E+03 0.  0.
         24    2    5    5    0    0  0.36621983133E+02 -0.12656877267E+03 -0.20221511247E+02  0.15468393351E+03  0.78469012393E+02 0.  0.
          5    1    5    5  501    0  0.48213538686E+02  0.25012095781E+02  0.32371656427E+02  0.63404766286E+02  0.47000000000E+01 0. -1.
        -13    1    6    6    0    0  0.53953933635E+02 -0.84679148715E+02 -0.36025730297E+02  0.10667445067E+03  0.00000000000E+00 0.  1.
         14    1    6    6    0    0 -0.17331950501E+02 -0.41889623951E+02  0.15804219050E+02  0.48009482842E+02  0.00000000000E+00 0. -1.
         -5    1    3    3    0  503 -0.56878302153E+02 -0.18985097524E+02  0.28758914640E+02  0.66668885960E+02  0.47000000000E+01 0.  1.
         13    1    4    4    0    0 -0.42564083909E+01  0.94808510906E+02  0.91120608172E+02  0.13156646984E+03  0.00000000000E+00 0. -1.
        -14    1    4    4    0    0 -0.23700811275E+02  0.25733263504E+02  0.12051510585E+03  0.12549031852E+03  0.00000000000E+00 0.  1.
</event>
<event>
12    1  0.8331241E-002  0.2346485E+03  0.7818608E-02  0.1123664E+00
         21   -1    0    0  503  502  0.00000000000E+00  0.00000000000E+00  0.39526641709E+03  0.39526641709E+03  0.00000000000E+00 0. -1.
         21   -1    0    0  501  503 -0.00000000000E+00 -0.00000000000E+00 -0.18413019701E+03  0.18413019701E+03  0.00000000000E+00 0. -1.
          6    2    1    2  501    0  0.45652457778E+02  0.15410395077E+03 -0.38516844933E+02  0.23778865581E+03  0.17096117379E+03 0.  0.
         24    2    3    3    0    0 -0.10811551051E+02  0.78347546086E+02  0.37474479585E+02  0.11644621251E+03  0.76812474082E+02 0.  0.
         -6    2    1    2    0  502 -0.45652457778E+02 -0.15410395077E+03  0.24965306501E+03  0.34160795829E+03  0.16892948160E+03 0.  0.
        -24    2    5    5    0    0 -0.87673898986E+02 -0.15074310809E+03  0.19801948638E+03  0.27478570730E+03  0.76715518335E+02 0.  0.
          5    1    3    3  501    0  0.56464008830E+02  0.75756404687E+02 -0.75991324518E+02  0.12134244330E+03  0.47000000000E+01 0. -1.
        -13    1    4    4    0    0 -0.40031938167E+02  0.24487744319E+02  0.27419489740E+02  0.54351026787E+02  0.00000000000E+00 0.  1.
         14    1    4    4    0    0  0.29220387115E+02  0.53859801767E+02  0.10054989846E+02  0.62095185726E+02  0.00000000000E+00 0. -1.
         -5    1    5    5    0  502  0.42021441207E+02 -0.33608426835E+01  0.51633578630E+02  0.66822250986E+02  0.47000000000E+01 0.  1.
         11    1    6    6    0    0 -0.56732855254E+02 -0.56079003953E+02  0.43249950237E+02  0.90741554676E+02  0.00000000000E+00 0. -1.
        -12    1    6    6    0    0 -0.30941043732E+02 -0.94664104137E+02  0.15476953614E+03  0.18404415263E+03  0.00000000000E+00 0.  1.
</event>
<event>
12    1  0.8331241E-002  0.2284548E+03  0.7818608E-02  0.1128027E+00
         21   -1    0    0  501  502  0.00000000000E+00  0.00000000000E+00  0.13670896807E+03  0.13670896807E+03  0.00000000000E+00 0. -1.
         21   -1    0    0  502  503 -0.00000000000E+00 -0.00000000000E+00 -0.55399882446E+03  0.55399882446E+03  0.00000000000E+00 0. -1.
         -6    2    1    2    0  503 -0.62713891268E+02  0.13644455095E+03 -0.40221896986E+03  0.46175646269E+03  0.16996700704E+03 0.  0.
        -24    2    3    3    0    0 -0.94470399788E+02  0.98930296914E+02 -0.36948350028E+03  0.40251546289E+03  0.82394058049E+02 0.  0.
          6    2    1    2  501    0  0.62713891268E+02 -0.13644455095E+03 -0.15070886521E+02  0.22895132984E+03  0.17216687304E+03 0.  0.
         24    2    5    5    0    0 -0.31964869680E+02 -0.81097919792E+02 -0.20197330137E+02  0.11906189550E+03  0.78544110708E+02 0.  0.
          5    1    5    5  501    0  0.94678760948E+02 -0.55346631154E+02  0.51264436154E+01  0.10988943434E+03  0.47000000000E+01 0. -1.
        -11    1    6    6    0    0  0.42230015331E+01 -0.79849083097E+02 -0.60582214828E+01  0.80189848865E+02  0.00000000000E+00 0.  1.
         12    1    6    6    0    0 -0.36187871213E+02 -0.12488366947E+01 -0.14139108654E+02  0.38872046634E+02  0.00000000000E+00 0. -1.
         -5    1    3    3    0  503  0.31756508520E+02  0.37514254033E+02 -0.32735469580E+02  0.59240999803E+02  0.47000000000E+01 0.  1.
         11    1    4    4    0    0 -0.98894714573E+02  0.10922820089E+03 -0.32860049775E+03  0.36012393917E+03  0.00000000000E+00 0. -1.
        -12    1    4    4    0    0  0.44243147850E+01 -0.10297903974E+02 -0.40883002528E+02  0.42391523720E+02  0.00000000000E+00 0.  1.
</event>
<event>
12    1  0.8331241E-002  0.1820016E+03  0.7818608E-02  0.1167978E+00
         21   -1    0    0  501  502  0.00000000000E+00  0.00000000000E+00  0.33211435244E+03  0.33211435244E+03  0.00000000000E+00 0.  1.
         21   -1    0    0  502  503 -0.00000000000E+00 -0.00000000000E+00 -0.13399833212E+03  0.13399833212E+03  0.00000000000E+00 0.  1.
         -6    2    1    2    0  503 -0.14266542987E+02 -0.13989021899E+02 -0.24795058883E+02  0.18368280697E+03  0.18090149709E+03 0.  0.
        -24    2    3    3    0    0  0.47831019097E+02 -0.50561067997E+02  0.45744869523E+01  0.10571946947E+03  0.79444649341E+02 0.  0.
          6    2    1    2  501    0  0.14266542987E+02  0.13989021899E+02  0.22291107921E+03  0.28242987759E+03  0.17227321191E+03 0.  0.
         24    2    5    5    0    0 -0.19998739672E+02  0.40251962341E+01  0.32250818129E+02  0.88402012139E+02  0.79741135476E+02 0.  0.
          5    1    5    5  501    0  0.34265282659E+02  0.99638256649E+01  0.19066026108E+03  0.19402786545E+03  0.47000000000E+01 0. -1.
        -13    1    6    6    0    0 -0.47345931614E+02  0.13371966183E+02  0.63730408878E+01  0.49609095639E+02  0.00000000000E+00 0.  1.
         14    1    6    6    0    0  0.27347191942E+02 -0.93467699493E+01  0.25877777242E+02  0.38792916500E+02  0.00000000000E+00 0. -1.
         -5    1    3    3    0  503 -0.62097562084E+02  0.36572046098E+02 -0.29369545835E+02  0.77963337507E+02  0.47000000000E+01 0.  1.
         13    1    4    4    0    0 -0.83596138231E+00  0.19273109307E+02  0.71171905247E+01  0.20562246345E+02  0.00000000000E+00 0. -1.
        -14    1    4    4    0    0  0.48666980480E+02 -0.69834177303E+02 -0.25427035724E+01  0.85157223123E+02  0.00000000000E+00 0.  1.
</event>
<event>
12    1  0.8331241E-002  0.2117840E+03  0.7818608E-02  0.1140337E+00
         21   -1    0    0  501  502  0.00000000000E+00  0.00000000000E+00  0.34702771841E+03  0.34702771841E+03  0.00000000000E+00 0.  1.
         21   -1    0    0  502  503 -0.00000000000E+00 -0.00000000000E+00 -0.15789136823E+03  0.15789136823E+03  0.00000000000E+00 0.  1.
         -6    2    1    2    0  503 -0.19523692392E+02 -0.12093990893E+03 -0.13817463742E+02  0.21223425260E+03  0.17275653254E+03 0.  0.
        -24    2    3    3    0    0 -0.16060075992E+02  0.18980472649E+01  0.22153070791E+02  0.84104905941E+02  0.79506905572E+02 0.  0.
          6    2    1    2  501    0  0.19523692392E+02  0.12093990893E+03  0.20295381392E+03  0.29268483404E+03  0.17165816425E+03 0.  0.
         24    2    5    5    0    0 -0.22787064983E+02  0.19987425426E+02  0.14817745461E+03  0.17019343166E+03  0.78041646716E+02 0.  0.
          5    1    5    5  501    0  0.42310757375E+02  0.10095248351E+03  0.54776359309E+02  0.12249140237E+03  0.47000000000E+01 0. -1.
        -13    1    6    6    0    0 -0.99816052452E+01  0.32902390504E+02  0.14806611841E+03  0.15200583925E+03  0.00000000000E+00 0.  1.
         14    1    6    6    0    0 -0.12805459738E+02 -0.12914965078E+02  0.11133619372E+00  0.18187592414E+02  0.00000000000E+00 0. -1.
         -5    1    3    3    0  503 -0.34636164005E+01 -0.12283795620E+03 -0.35970534533E+02  0.12812934666E+03  0.47000000000E+01 0.  1.
         13    1    4    4    0    0 -0.35376314965E+02  0.29754874026E+02  0.19277427155E+02  0.50084482492E+02  0.00000000000E+00 0. -1.
        -14    1    4    4    0    0  0.19316238974E+02 -0.27856826761E+02  0.28756436363E+01  0.34020423448E+02  0.00000000000E+00 0.  1.
</event>
<event>
12    1  0.8331241E-002  0.2939039E+03  0.7818608E-02  0.1088467E+00
         21   -1    0    0  501  502  0.00000000000E+00  0.00000000000E+00  0.84243411045E+03  0.84243411045E+03  0.00000000000E+00 0. -1.
         21   -1    0    0  502  503 -0.00000000000E+00 -0.00000000000E+00 -0.22252495054E+03  0.22252495054E+03  0.00000000000E+00 0.  1.
         -6    2    1    2    0  503  0.45814854225E+02 -0.23244799773E+03 -0.81402886523E+02  0.30496875212E+03  0.17392077885E+03 0.  0.
        -24    2    3    3    0    0  0.45203070397E+02 -0.13877310237E+03 -0.11803533974E+03  0.20427422929E+03  0.80587392358E+02 0.  0.
          6    2    1    2  501    0 -0.45814854225E+02  0.23244799773E+03  0.70131204644E+03  0.75999030887E+03  0.17209186668E+03 0.  0.
         24    2    5    5    0    0  0.26629443040E+02  0.19007578245E+03  0.48369946134E+03  0.52670741617E+03  0.81348651085E+02 0.  0.
          5    1    5    5  501    0 -0.72444297265E+02  0.42372215280E+02  0.21761258510E+03  0.23328289270E+03  0.47000000000E+01 0. -1.
        -13    1    6    6    0    0  0.19233035855E+02  0.19182503357E+03  0.41505325961E+03  0.45764173924E+03  0.00000000000E+00 0.  1.
         14    1    6    6    0    0  0.73964071849E+01 -0.17492511205E+01  0.68646201728E+02  0.69065676934E+02  0.00000000000E+00 0. -1.
         -5    1    3    3    0  503  0.61178382840E+00 -0.93674895358E+02  0.36632453218E+02  0.10069452283E+03  0.47000000000E+01 0.  1.
         13    1    4    4    0    0 -0.10673522209E+02 -0.34166031927E+01 -0.33196303877E+02  0.35037006790E+02  0.00000000000E+00 0. -1.
        -14    1    4    4    0    0  0.55876592606E+02 -0.13535649918E+03 -0.84839035864E+02  0.16923722250E+03  0.00000000000E+00 0.  1.
</event>
<event>
12    1  0.8331241E-002  0.2125568E+03  0.7818608E-02  0.1139716E+00
         21   -1    0    0  503  502  0.00000000000E+00  0.00000000000E+00  0.56518999899E+03  0.56518999899E+03  0.00000000000E+00 0.  1.
         21   -1    0    0  501  503 -0.00000000000E+00 -0.00000000000E+00 -0.15079632995E+03  0.15079632995E+03  0.00000000000E+00 0.  1.
          6    2    1    2  501    0 -0.77517400848E+02 -0.98527397435E+02 -0.38521333543E+02  0.21601915975E+03  0.17165019301E+03 0.  0.
         24    2    3    3    0    0 -0.39405155009E+02 -0.94167961990E+02 -0.91152746088E+02  0.15072211887E+03  0.63150318222E+02 0.  0.
         -6    2    1    2    0  502  0.77517400848E+02  0.98527397435E+02  0.45291500258E+03  0.49996716920E+03  0.17064165739E+03 0.  0.
        -24    2    5    5    0    0  0.49616401981E+02  0.13506476894E+03  0.35935250974E+03  0.39561452035E+03  0.81684412868E+02 0.  0.
          5    1    3    3  501    0 -0.38112245839E+02 -0.43594354454E+01  0.52631412545E+02  0.65297040873E+02  0.47000000000E+01 0. -1.
        -11    1    4    4    0    0 -0.27609788126E+02 -0.11523135712E+02 -0.48473357636E+02  0.56962702337E+02  0.00000000000E+00 0.  1.
         12    1    4    4    0    0 -0.11795366882E+02 -0.82644826278E+02 -0.42679388452E+02  0.93759416535E+02  0.00000000000E+00 0. -1.
         -5    1    5    5    0  502  0.27900998867E+02 -0.36537371505E+02  0.93562492843E+02  0.10435264885E+03  0.47000000000E+01 0.  1.
         11    1    6    6    0    0 -0.15536296120E+02  0.35853351097E+01  0.17924480774E+02  0.23989959067E+02  0.00000000000E+00 0. -1.
        -12    1    6    6    0    0  0.65152698101E+02  0.13147943383E+03  0.34142802896E+03  0.37162456129E+03  0.00000000000E+00 0.  1.
</event>
<event>
12    1  0.8331241E-002  0.2058844E+03  0.7818608E-02  0.1145033E+00
         21   -1    0    0  501  502  0.00000000000E+00  0.00000000000E+00  0.23548573733E+03  0.23548573733E+03  0.00000000000E+00 0. -1.
         21   -1    0    0  502  503 -0.00000000000E+00 -0.00000000000E+00 -0.17951576865E+03  0.17951576865E+03  0.00000000000E+00 0. -1.
         -6    2    1    2    0  503 -0.82221996413E+02  0.77474617346E+02  0.35379740220E+02  0.20890214126E+03  0.17212090395E+03 0.  0.
        -24    2    3    3    0    0 -0.10385623670E+03  0.22452670926E+02  0.54538265516E+02  0.14657562979E+03  0.84969126805E+02 0.  0.
          6    2    1    2  501    0  0.82221996413E+02 -0.77474617346E+02  0.20590228455E+02  0.20609936472E+03  0.17114385061E+03 0.  0.
         24    2    5    5    0    0 -0.77248134793E+01 -0.19546808153E+02  0.48104647247E+02  0.95531770330E+02  0.79815484735E+02 0.  0.
          5    1    5    5  501    0  0.89946809892E+02 -0.57927809193E+02 -0.27514418791E+02  0.11056759439E+03  0.47000000000E+01 0. -1.
        -13    1    6    6    0    0  0.26251874335E+02  0.18047818554E+02  0.19129943319E+02  0.37159647362E+02  0.00000000000E+00 0.  1.
         14    1    6    6    0    0 -0.33976687815E+02 -0.37594626708E+02  0.28974703928E+02  0.58372122968E+02  0.00000000000E+00 0. -1.
         -5    1    3    3    0  503  0.21634240284E+02  0.55021946420E+02 -0.19158525296E+02  0.62326511470E+02  0.47000000000E+01 0.  1.
         11    1    4    4    0    0 -0.65723034875E+02  0.54988440049E+02  0.38512054150E+02  0.93949050911E+02  0.00000000000E+00 0. -1.
        -12    1    4    4    0    0 -0.38133201823E+02 -0.32535769124E+02  0.16026211366E+02  0.52626578879E+02  0.00000000000E+00 0.  1.
</event>
<event>
12    1  0.8331241E-002  0.1908380E+03  0.7818608E-02  0.1157848E+00
         21   -1    0    0  503  502  0.00000000000E+00  0.00000000000E+00  0.21158471032E+04  0.21158471032E+04  0.00000000000E+00 0.  1.
         21   -1    0    0  501  503 -0.00000000000E+00 -0.00000000000E+00 -0.24514830978E+02  0.24514830978E+02  0.00000000000E+00 0.  1.
          6    2    1    2  501    0 -0.69771972751E+02 -0.40455302778E+02  0.46053708530E+03  0.49851133702E+03  0.17295775927E+03 0.  0.
         24    2    3    3    0    0  0.55749633993E+01 -0.23348672150E+02  0.37251250265E+03  0.38129267489E+03  0.77732223632E+02 0.  0.
         -6    2    1    2    0  502  0.69771972751E+02  0.40455302778E+02  0.16307951869E+04  0.16418505971E+04  0.17226631129E+03 0.  0.
        -24    2    5    5    0    0  0.99097851629E+02  0.48947696046E+02  0.89332151987E+03  0.90373026313E+03  0.80553022842E+02 0.  0.
          5    1    3    3  501    0 -0.75346936150E+02 -0.17106630628E+02  0.88024582653E+02  0.11721866212E+03  0.47000000000E+01 0. -1.
        -13    1    4    4    0    0  0.38387469798E+02  0.40351425638E+01  0.17283652732E+03  0.17709417096E+03  0.00000000000E+00 0.  1.
         14    1    4    4    0    0 -0.32812506399E+02 -0.27383814714E+02  0.19967597533E+03  0.20419850393E+03  0.00000000000E+00 0. -1.
         -5    1    5    5    0  502 -0.29325878878E+02 -0.84923932679E+01  0.73747366700E+03  0.73812033398E+03  0.47000000000E+01 0.  1.
         11    1    6    6    0    0  0.56260867042E+02  0.53429933293E+02  0.75197317204E+03  0.75596540555E+03  0.00000000000E+00 0. -1.
        -12    1    6    6    0    0  0.42836984587E+02 -0.44822372473E+01  0.14134834784E+03  0.14776485758E+03  0.00000000000E+00 0.  1.
</event>
<event>
12    1  0.8331241E-002  0.1824681E+03  0.7818608E-02  0.1166232E+00
         21   -1    0    0  503  502  0.00000000000E+00  0.00000000000E+00  0.29601724224E+02  0.29601724224E+02  0.00000000000E+00 0. -1.
         21   -1    0    0  501  503 -0.00000000000E+00 -0.00000000000E+00 -0.12540804436E+04  0.12540804436E+04  0.00000000000E+00 0. -1.
          6    2    1    2  501    0  0.11890491371E+02 -0.60624746449E+02 -0.38555391682E+03  0.42514304571E+03  0.16816076497E+03 0.  0.
         24    2    3    3    0    0 -0.31823565698E+02  0.22856867701E+01 -0.11285947588E+03  0.14185345975E+03  0.79794605393E+02 0.  0.
         -6    2    1    2    0  502 -0.11890491371E+02  0.60624746449E+02 -0.83892480256E+03  0.85853912212E+03  0.17169116514E+03 0.  0.
        -24    2    5    5    0    0  0.42587263264E+02  0.83947927663E+02 -0.58806091404E+03  0.60072799533E+03  0.78724559067E+02 0.  0.
          5    1    3    3  501    0  0.43714057069E+02 -0.62910433219E+02 -0.27269444094E+03  0.28328958596E+03  0.47000000000E+01 0. -1.
        -11    1    4    4    0    0  0.22318695277E+02  0.36963892066E+01 -0.67556516600E+02  0.71243739284E+02  0.00000000000E+00 0.  1.
         12    1    4    4    0    0 -0.54142260976E+02 -0.14107024365E+01 -0.45302959278E+02  0.70609720466E+02  0.00000000000E+00 0. -1.
         -5    1    5    5    0  502 -0.54477754635E+02 -0.23323181214E+02 -0.25086388852E+03  0.25781112679E+03  0.47000000000E+01 0.  1.
         11    1    6    6    0    0  0.33096830145E+02  0.74740890028E+02 -0.57889882561E+03  0.58464130123E+03  0.00000000000E+00 0. -1.
        -12    1    6    6    0    0  0.94904331189E+01  0.92070376347E+01 -0.91620884326E+01  0.16086694105E+02  0.00000000000E+00 0.  1.
</event>
<event>
12    1  0.8331241E-002  0.1806175E+03  0.7818608E-02  0.1167511E+00
         21   -1    0    0  501  502  0.00000000000E+00  0.00000000000E+00  0.23080076423E+03  0.23080076423E+03  0.00000000000E+00 0. -1.
         21   -1    0    0  502  503 -0.00000000000E+00 -0.00000000000E+00 -0.23251542471E+03  0.23251542471E+03  0.00000000000E+00 0. -1.
         -6    2    1    2    0  503 -0.52424270321E+02 -0.83531161868E+01  0.14498391354E+03  0.23062937765E+03  0.17132278301E+03 0.  0.
        -24    2    3    3    0    0 -0.63099300571E+02 -0.52346612218E+02  0.49566346450E+02  0.12491284122E+03  0.80154261639E+02 0.  0.
          6    2    1    2  501    0  0.52424270321E+02  0.83531161868E+01 -0.14669857403E+03  0.23268681129E+03  0.17264009343E+03 0.  0.
         24    2    5    5    0    0 -0.11677408697E+02 -0.33455445985E+02 -0.25930254787E+02  0.89634170436E+02  0.78142675002E+02 0.  0.
          5    1    5    5  501    0  0.64101679019E+02  0.41808562172E+02 -0.12076831924E+03  0.14305264086E+03  0.47000000000E+01 0. -1.
        -13    1    6    6    0    0  0.17755361380E+02 -0.48976219838E+02 -0.11413145968E+02  0.53330881000E+02  0.00000000000E+00 0.  1.
         14    1    6    6    0    0 -0.29432770077E+02  0.15520773853E+02 -0.14517108819E+02  0.36303289436E+02  0.00000000000E+00 0. -1.
         -5    1    3    3    0  503  0.10675030250E+02  0.43993496031E+02  0.95417567094E+02  0.10571653643E+03  0.47000000000E+01 0.  1.
         13    1    4    4    0    0 -0.13319808337E+02 -0.19722734963E+02  0.59945714347E+02  0.64497226585E+02  0.00000000000E+00 0. -1.
        -14    1    4    4    0    0 -0.49779492234E+02 -0.32623877254E+02 -0.10379367897E+02  0.60415614638E+02  0.00000000000E+00 0.  1.
</event>
<event>
12    1  0.8331241E-002  0.2066565E+03  0.7818608E-02  0.1144357E+00
         21   -1    0    0  503  502  0.00000000000E+00  0.00000000000E+00  0.71063810868E+03  0.71063810868E+03  0.00000000000E+00 0. -1.
         21   -1    0    0  501  503 -0.00000000000E+00 -0.00000000000E+00 -0.17450233890E+03  0.17450233890E+03  0.00000000000E+00 0. -1.
          6    2    1    2  501    0 -0.11477529206E+03  0.96826036258E+01 -0.90412649412E+02  0.22556898579E+03  0.17158030101E+03 0.  0.
         24    2    3    3    0    0 -0.47810976927E+02  0.11211112224E+02  0.18552790160E+02  0.97576357638E+02  0.82251814541E+02 0.  0.
         -6    2    1    2    0  502  0.11477529206E+03 -0.96826036258E+01  0.62654841920E+03  0.65957146179E+03  0.17089315707E+03 0.  0.
        -24    2    5    5    0    0  0.25895027673E+02 -0.50521994209E+02  0.41100504722E+03  0.42282562250E+03  0.81445281278E+02 0.  0.
          5    1    3    3  501    0 -0.66964315132E+02 -0.15285085978E+01 -0.10896543957E+03  0.12799262815E+03  0.47000000000E+01 0. -1.
        -11    1    4    4    0    0  0.12194095454E+02  0.30434156555E+02  0.61220045393E+01  0.33352852782E+02  0.00000000000E+00 0.  1.
         12    1    4    4    0    0 -0.60005072381E+02 -0.19223044331E+02  0.12430785621E+02  0.64223504856E+02  0.00000000000E+00 0. -1.
         -5    1    5    5    0  502  0.88880264385E+02  0.40839390583E+02  0.21554337198E+03  0.23674583930E+03  0.47000000000E+01 0.  1.
         11    1    6    6    0    0  0.54289379323E+02 -0.40624464149E+02  0.31526957929E+03  0.32247882321E+03  0.00000000000E+00 0. -1.
        -12    1    6    6    0    0 -0.28394351649E+02 -0.98975300598E+01  0.95735467929E+02  0.10034679928E+03  0.00000000000E+00 0.  1.
</event>
<event>
12    1  0.8331241E-002  0.1726859E+03  0.7818608E-02  0.1175376E+00
         21   -1    0    0  501  502  0.00000000000E+00  0.00000000000E+00  0.51863485317E+02  0.51863485317E+02  0.00000000000E+00 0. -1.
         21   -1    0    0  502  503 -0.00000000000E+00 -0.00000000000E+00 -0.58151879874E+03  0.58151879874E+03  0.00000000000E+00 0. -1.
         -6    2    1    2    0  503  0.82112142785E+01  0.15277219240E+02 -0.22153018858E+03  0.28016630446E+03  0.17063621021E+03 0.  0.
        -24    2    3    3    0    0 -0.52682592318E+02  0.16282716407E+02 -0.18534063987E+03  0.20916743023E+03  0.79745085709E+02 0.  0.
          6    2    1    2  501    0 -0.82112142785E+01 -0.15277219240E+02 -0.30812512484E+03  0.35321597959E+03  0.17181274171E+03 0.  0.
         24    2    5    5    0    0 -0.63549306467E+02 -0.64270671293E+01 -0.11165445589E+03  0.14885491824E+03  0.74908261362E+02 0.  0.
          5    1    5    5  501    0  0.55338092188E+02 -0.88501521111E+01 -0.19647066895E+03  0.20436106135E+03  0.47000000000E+01 0. -1.
        -13    1    6    6    0    0 -0.53970735699E+02  0.29329924745E+02 -0.69753994763E+02  0.92944631813E+02  0.00000000000E+00 0.  1.
         14    1    6    6    0    0 -0.95785707672E+01 -0.35756991874E+02 -0.41900461130E+02  0.55910286431E+02  0.00000000000E+00 0. -1.
         -5    1    3    3    0  503  0.60893806596E+02 -0.10054971670E+01 -0.36189548714E+02  0.70998874234E+02  0.47000000000E+01 0.  1.
         13    1    4    4    0    0 -0.32639887251E+02  0.17741140892E+02 -0.19204133615E+02  0.41819960161E+02  0.00000000000E+00 0. -1.
        -14    1    4    4    0    0 -0.20042705067E+02 -0.14584244850E+01 -0.16613650625E+03  0.16734747007E+03  0.00000000000E+00 0.  1.
</event>
<event>
12    1  0.8331241E-002  0.1728837E+03  0.7818608E-02  0.1175018E+00
         21   -1    0    0  501  502  0.00000000000E+00  0.00000000000E+00  0.10146300250E+03  0.10146300250E+03  0.00000000000E+00 0.  1.
         21   -1    0    0  502  503 -0.00000000000E+00 -0.00000000000E+00 -0.35061886254E+03  0.35061886254E+03  0.00000000000E+00 0.  1.
         -6    2    1    2    0  503 -0.86904308978E+01 -0.89647148629E+01 -0.21589340144E+03  0.27658402382E+03  0.17243222363E+03 0.  0.
        -24    2    3    3    0    0  0.71894506511E+01 -0.46126274492E+02 -0.45862700095E+02  0.10175358725E+03  0.77917160234E+02 0.  0.
          6    2    1    2  501    0  0.86904308978E+01  0.89647148629E+01 -0.33262458601E+02  0.17549784121E+03  0.17186393286E+03 0.  0.
         24    2    5    5    0    0  0.39352786277E+02  0.58457835495E+02  0.50197016452E+01  0.10565972254E+03  0.78567291179E+02 0.  0.
          5    1    5    5  501    0 -0.30662355379E+02 -0.49493120632E+02 -0.38282160247E+02  0.69838118678E+02  0.47000000000E+01 0. -1.
        -11    1    6    6    0    0 -0.84917285950E+01  0.23231632574E+02 -0.28263601134E+02  0.37558612270E+02  0.00000000000E+00 0.  1.
         12    1    6    6    0    0  0.47844514872E+02  0.35226202921E+02  0.33283302779E+02  0.68101110266E+02  0.00000000000E+00 0. -1.
         -5    1    3    3    0  503 -0.15879881549E+02  0.37161559629E+02 -0.17003070134E+03  0.17483043657E+03  0.47000000000E+01 0.  1.
         11    1    4    4    0    0 -0.25722943186E+02 -0.96570582776E+01  0.82313066615E+01  0.28682450907E+02  0.00000000000E+00 0. -1.
        -12    1    4    4    0    0  0.32912393837E+02 -0.36469216215E+02 -0.54094006757E+02  0.73071136342E+02  0.00000000000E+00 0.  1.
</event>
<event>
12    1  0.8331241E-002  0.1860464E+03  0.7818608E-02  0.1162297E+00
         21   -1    0    0  503  502  0.00000000000E+00  0.00000000000E+00  0.86032355492E+02  0.86032355492E+02  0.00000000000E+00 0.  1.
         21   -1    0    0  501  503 -0.00000000000E+00 -0.00000000000E+00 -0.90145475196E+03  0.90145475196E+03  0.00000000000E+00 0. -1.
          6    2    1    2  501    0 -0.14712522849E+02  0.71855536964E+02 -0.77539817595E+03  0.79718422771E+03  0.16994318207E+03 0.  0.
         24    2    3    3    0    0  0.10119398976E+02  0.12127412094E+02 -0.66157180093E+03  0.66617809468E+03  0.76593274445E+02 0.  0.
         -6    2    1    2    0  502  0.14712522849E+02 -0.71855536964E+02 -0.40024220518E+02  0.19030287974E+03  0.17097827724E+03 0.  0.
        -24    2    5    5    0    0  0.73035475729E+02 -0.49464549423E+02 -0.50669406967E+02  0.12675499897E+03  0.75620887302E+02 0.  0.
          5    1    3    3  501    0 -0.24831921825E+02  0.59728124870E+02 -0.11382637502E+03  0.13100613303E+03  0.47000000000E+01 0. -1.
        -13    1    4    4    0    0 -0.41891368737E-01 -0.27935117825E+02 -0.12824843420E+03  0.13125560345E+03  0.00000000000E+00 0.  1.
         14    1    4    4    0    0  0.10161290345E+02  0.40062529919E+02 -0.53332336672E+03  0.53492249122E+03  0.00000000000E+00 0. -1.
         -5    1    5    5    0  502 -0.58322952880E+02 -0.22390987541E+02  0.10645186449E+02  0.63547880769E+02  0.47000000000E+01 0.  1.
         11    1    6    6    0    0  0.29082737900E+02 -0.63384109939E+02 -0.35252236358E+02  0.78141353999E+02  0.00000000000E+00 0. -1.
        -12    1    6    6    0    0  0.43952737829E+02  0.13919560515E+02 -0.15417170609E+02  0.48613644970E+02  0.00000000000E+00 0.  1.
</event>
<event>
12    1  0.8331241E-002  0.2408759E+03  0.7818608E-02  0.1119248E+00
         21   -1    0    0  501  502  0.00000000000E+00  0.00000000000E+00  0.11939815150E+04  0.11939815150E+04  0.00000000000E+00 0. -1.
         21   -1    0    0  502  503 -0.00000000000E+00 -0.00000000000E+00 -0.61718774382E+02  0.61718774382E+02  0.00000000000E+00 0.  1.
         -6    2    1    2    0  503  0.13503517154E+03  0.98539945375E+02  0.85594282662E+03  0.88912980979E+03  0.17311579310E+03 0.  0.
        -24    2    3    3    0    0  0.71970763999E+02  0.11023771805E+03  0.74964283946E+03  0.76488917773E+03  0.75887562229E+02 0.  0.
          6    2    1    2  501    0 -0.13503517154E+03 -0.98539945375E+02  0.27631991397E+03  0.36657047957E+03  0.17342607430E+03 0.  0.
         24    2    5    5    0    0 -0.25159802058E+02 -0.53964113826E+02  0.55889550975E+02  0.11622824081E+03  0.82705627575E+02 0.  0.
          5    1    5    5  501    0 -0.10987536948E+03 -0.44575831549E+02  0.22043036300E+03  0.25034223876E+03  0.47000000000E+01 0. -1.
        -13    1    6    6    0    0 -0.49050160420E+02 -0.19264699092E+02  0.51813397399E+02  0.73903146201E+02  0.00000000000E+00 0.  1.
         14    1    6    6    0    0  0.23890358362E+02 -0.34699414734E+02  0.40761535765E+01  0.42325094608E+02  0.00000000000E+00 0. -1.
         -5    1    3    3    0  503  0.63064407540E+02 -0.11697772672E+02  0.10629998716E+03  0.12424063206E+03  0.47000000000E+01 0.  1.
         13    1    4    4    0    0  0.69124167177E+02  0.42766149222E+02  0.33099233804E+03  0.34082696761E+03  0.00000000000E+00 0. -1.
        -14    1    4    4    0    0  0.28465968215E+01  0.67471568824E+02  0.41865050142E+03  0.42406221012E+03  0.00000000000E+00 0.  1.
</event>
<event>
12    1  0.8331241E-002  0.1739537E+03  0.7818608E-02  0.1174466E+00
         21   -1    0    0  503  502  0.00000000000E+00  0.00000000000E+00  0.81118934511E+02  0.81118934511E+02  0.00000000000E+00 0.  1.
         21   -1    0    0  501  503 -0.00000000000E+00 -0.00000000000E+00 -0.36903445771E+03  0.36903445771E+03  0.00000000000E+00 0.  1.
          6    2    1    2  501    0  0.18871632873E+02  0.21636999064E+01 -0.12982555577E+03  0.21705890164E+03  0.17291348047E+03 0.  0.
         24    2    3    3    0    0 -0.54396622522E+00  0.37185414570E+02 -0.80735222557E+01  0.88804725684E+02  0.80237438806E+02 0.  0.
         -6    2    1    2    0  502 -0.18871632873E+02 -0.21636999064E+01 -0.15808996744E+03  0.23309449058E+03  0.17023449595E+03 0.  0.
        -24    2    5    5    0    0 -0.43242776221E+02 -0.53762697103E+02 -0.62860081302E+02  0.12197639866E+03  0.78526980800E+02 0.  0.
          5    1    3    3  501    0  0.19415599098E+02 -0.35021714663E+02 -0.12175203351E+03  0.12825417596E+03  0.47000000000E+01 0. -1.
        -13    1    4    4    0    0 -0.36330393395E+02  0.26101662150E+02  0.11980798616E+02  0.46311270623E+02  0.00000000000E+00 0.  1.
         14    1    4    4    0    0  0.35786427170E+02  0.11083752419E+02 -0.20054320872E+02  0.42493455060E+02  0.00000000000E+00 0. -1.
         -5    1    5    5    0  502  0.24371143348E+02  0.51598997197E+02 -0.95229886133E+02  0.11111809192E+03  0.47000000000E+01 0.  1.
         11    1    6    6    0    0  0.19069865927E+02 -0.42114253321E+01  0.15221354445E+01  0.19588588161E+02  0.00000000000E+00 0. -1.
        -12    1    6    6    0    0 -0.62312642149E+02 -0.49551271771E+02 -0.64382216747E+02  0.10238781050E+03  0.00000000000E+00 0.  1.
</event>
<event>
12    1  0.8331241E-002  0.2220785E+03  0.7818608E-02  0.1132671E+00
         21   -1    0    0  503  502  0.00000000000E+00  0.00000000000E+00  0.91190418341E+03  0.91190418341E+03  0.00000000000E+00 0.  1.
         21   -1    0    0  501  503 -0.00000000000E+00 -0.00000000000E+00 -0.16321261558E+03  0.16321261558E+03  0.00000000000E+00 0.  1.
          6    2    1    2  501    0  0.10104093593E+03 -0.96118971856E+02 -0.65588575684E+02  0.23156148978E+03  0.17283152144E+03 0.  0.
         24    2    3    3    0    0  0.13842097488E+03 -0.91930169187E+02 -0.56868089006E+02  0.19266482838E+03  0.79210064089E+02 0.  0.
         -6    2    1    2    0  502 -0.10104093593E+03  0.96118971856E+02  0.81428014352E+03  0.84355530921E+03  0.17054407080E+03 0.  0.
        -24    2    5    5    0    0 -0.10410872769E+03  0.12216733866E+03  0.56161998426E+03  0.58949394883E+03  0.79514924224E+02 0.  0.
          5    1    3    3  501    0 -0.37380038956E+02 -0.41888026694E+01 -0.87204866781E+01  0.38896661400E+02  0.47000000000E+01 0. -1.
        -13    1    4    4    0    0  0.56462947306E+02 -0.27779569437E+02 -0.62160223210E+02  0.88451468309E+02  0.00000000000E+00 0.  1.
         14    1    4    4    0    0  0.81958027577E+02 -0.64150599750E+02  0.52921342043E+01  0.10421336007E+03  0.00000000000E+00 0. -1.
         -5    1    5    5    0  502  0.30677917663E+01 -0.26048366807E+02  0.25266015926E+03  0.25406136038E+03  0.47000000000E+01 0.  1.
         13    1    6    6    0    0 -0.19190842686E+02 -0.99355851340E+01  0.55041214949E+02  0.59131545202E+02  0.00000000000E+00 0. -1.
        -14    1    6    6    0    0 -0.84917885007E+02  0.13210292380E+03  0.50657876931E+03  0.53036240363E+03  0.00000000000E+00 0.  1.
</event>
<event>
12    1  0.8331241E-002  0.1913693E+03  0.7818608E-02  0.1157306E+00
         21   -1    0    0  503  502  0.00000000000E+00  0.00000000000E+00  0.50958522225E+02  0.50958522225E+02  0.00000000000E+00 0. -1.
         21   -1    0    0  501  503 -0.00000000000E+00 -0.00000000000E+00 -0.78343186285E+03  0.78343186285E+03  0.00000000000E+00 0. -1.
          6    2    1    2  501    0 -0.44071675604E+01 -0.82461290221E+02 -0.48763130917E+03  0.52383825815E+03  0.17263527885E+03 0.  0.
         24    2    3    3    0    0  0.15467307389E+02 -0.69572253104E+02 -0.48870369335E+03  0.49966467670E+03  0.75854816877E+02 0.  0.
         -6    2    1    2    0  502  0.44071675604E+01  0.82461290221E+02 -0.24484203145E+03  0.31055212693E+03  0.17226640898E+03 0.  0.
        -24    2    5    5    0    0  0.29231452499E+02 -0.19931159023E+02 -0.11740627391E+03  0.14513622356E+03  0.77643810583E+02 0.  0.
          5    1    3    3  501    0 -0.19874474949E+02 -0.12889037117E+02  0.10723841793E+01  0.24173581451E+02  0.47000000000E+01 0. -1.
        -11    1    4    4    0    0  0.10667844112E+02  0.76664413582E+01 -0.16159639212E+02  0.20825733134E+02  0.00000000000E+00 0.  1.
         12    1    4    4    0    0  0.47994632766E+01 -0.77238694462E+02 -0.47254405414E+03  0.47883894356E+03  0.00000000000E+00 0. -1.
         -5    1    5    5    0  502 -0.24824284939E+02  0.10239244924E+03 -0.12743575754E+03  0.16541590336E+03  0.47000000000E+01 0.  1.
         13    1    6    6    0    0  0.74253510282E+01  0.10954568328E+02  0.70984829963E+01  0.15017551931E+02  0.00000000000E+00 0. -1.
        -14    1    6    6    0    0  0.21806101471E+02 -0.30885727351E+02 -0.12450475690E+03  0.13011867163E+03  0.00000000000E+00 0.  1.
</event>
<event>
12    1  0.8331241E-002  0.2916718E+03  0.7818608E-02  0.1089602E+00
         21   -1    0    0  503  502  0.00000000000E+00  0.00000000000E+00  0.91581085000E+02  0.91581085000E+02  0.00000000000E+00 0.  1.
         21   -1    0    0  501  503 -0.00000000000E+00 -0.00000000000E+00 -0.92618547649E+03  0.92618547649E+03  0.00000000000E+00 0. -1.
          6    2    1    2  501    0 -0.99880637077E+02  0.21061238439E+03 -0.40951680592E+03  0.50276876803E+03  0.17532456092E+03 0.  0.
         24    2    3    3    0    0 -0.10875565490E+03  0.22537485118E+03 -0.32731403315E+03  0.41864931596E+03  0.74237170194E+02 0.  0.
         -6    2    1    2    0  502  0.99880637077E+02 -0.21061238439E+03 -0.42508758557E+03  0.51499779346E+03  0.17375141363E+03 0.  0.
        -24    2    5    5    0    0  0.99859237678E+02 -0.71703745260E+02 -0.26331126673E+03  0.30171563804E+03  0.81155459553E+02 0.  0.
          5    1    3    3  501    0  0.88750178214E+01 -0.14762466792E+02 -0.82202772764E+02  0.84119452074E+02  0.47000000000E+01 0. -1.
        -13    1    4    4    0    0 -0.52187161257E+02  0.66754436888E+02 -0.64415878532E+02  0.10643805734E+03  0.00000000000E+00 0.  1.
         14    1    4    4    0    0 -0.56568493641E+02  0.15862041429E+03 -0.26289815462E+03  0.31221125861E+03  0.00000000000E+00 0. -1.
         -5    1    5    5    0  502  0.21399399055E-01 -0.13890863913E+03 -0.16177631884E+03  0.21328215542E+03  0.47000000000E+01 0.  1.
         11    1    6    6    0    0  0.15124221369E+02 -0.51626107450E+02 -0.14615119268E+03  0.15573749762E+03  0.00000000000E+00 0. -1.
        -12    1    6    6    0    0  0.84735016309E+02 -0.20077637810E+02 -0.11716007405E+03  0.14597814042E+03  0.00000000000E+00 0.  1.
</event>
<event>
12    1  0.8331241E-002  0.1817528E+03  0.7818608E-02  0.1167421E+00
         21   -1    0    0  503  502  0.00000000000E+00  0.00000000000E+00  0.12308759723E+03  0.12308759723E+03  0.00000000000E+00 0.  1.
         21   -1    0    0  501  503 -0.00000000000E+00 -0.00000000000E+00 -0.36814522554E+03  0.36814522554E+03  0.00000000000E+00 0.  1.
          6    2    1    2  501    0  0.47885267188E+02  0.36761500531E+02 -0.25402627982E+03  0.30925882868E+03  0.16573251201E+03 0.  0.
         24    2    3    3    0    0  0.30950165173E+01 -0.35269487190E+02 -0.15924027643E+03  0.18197526263E+03  0.80647471854E+02 0.  0.
         -6    2    1    2    0  502 -0.47885267188E+02 -0.36761500531E+02  0.89686515125E+01  0.18197399410E+03  0.17143421795E+03 0.  0.
        -24    2    5    5    0    0 -0.82602483204E+02 -0.14964422463E+02  0.47548601892E+02  0.12548593987E+03  0.80241805755E+02 0.  0.
          5    1    3    3  501    0  0.44790250670E+02  0.72030987720E+02 -0.94786003389E+02  0.12728356605E+03  0.47000000000E+01 0. -1.
        -13    1    4    4    0    0  0.36697097362E+02 -0.39402217242E+02 -0.89419777691E+02  0.10437963557E+03  0.00000000000E+00 0.  1.
         14    1    4    4    0    0 -0.33602080845E+02  0.41327300526E+01 -0.69820498742E+02  0.77595627064E+02  0.00000000000E+00 0. -1.
         -5    1    5    5    0  502  0.34717216016E+02 -0.21797078068E+02 -0.38579950379E+02  0.56488054237E+02  0.47000000000E+01 0.  1.
         11    1    6    6    0    0 -0.36083534600E+02 -0.20654478302E+01 -0.20882011611E+02  0.41741417715E+02  0.00000000000E+00 0. -1.
        -12    1    6    6    0    0 -0.46518948604E+02 -0.12898974633E+02  0.68430613503E+02  0.83744522150E+02  0.00000000000E+00 0.  1.
</event>
<event>
12    1  0.8331241E-002  0.2677903E+03  0.7818608E-02  0.1103510E+00
         21   -1    0    0  501  502  0.00000000000E+00  0.00000000000E+00  0.98394054436E+03  0.98394054436E+03  0.00000000000E+00 0. -1.
         21   -1    0    0  502  503 -0.00000000000E+00 -0.00000000000E+00 -0.71330834411E+02  0.71330834411E+02  0.00000000000E+00 0. -1.
         -6    2    1    2    0  503 -0.18841452972E+03 -0.64521149341E+02  0.47989547165E+03  0.54639685348E+03  0.16907644441E+03 0.  0.
        -24    2    3    3    0    0 -0.19536225902E+03 -0.20136845234E+02  0.35673563675E+03  0.41521502422E+03  0.81063536995E+02 0.  0.
          6    2    1    2  501    0  0.18841452972E+03  0.64521149341E+02  0.43271423830E+03  0.50887452529E+03  0.17902138628E+03 0.  0.
         24    2    5    5    0    0  0.28385188627E+02 -0.23170712649E+02  0.89719709539E+02  0.12033033292E+03  0.71324342844E+02 0.  0.
          5    1    5    5  501    0  0.16002934110E+03  0.87691861990E+02  0.34299452876E+03  0.38854419238E+03  0.47000000000E+01 0. -1.
        -13    1    6    6    0    0 -0.15863717584E+02 -0.23745720092E+01  0.62179587620E+02  0.64215241527E+02  0.00000000000E+00 0.  1.
         14    1    6    6    0    0  0.44248906211E+02 -0.20796140640E+02  0.27540121919E+02  0.56115091390E+02  0.00000000000E+00 0. -1.
         -5    1    3    3    0  503  0.69477292917E+01 -0.44384304107E+02  0.12315983490E+03  0.13118182925E+03  0.47000000000E+01 0.  1.
         13    1    4    4    0    0 -0.12704355886E+03 -0.39556616457E+02  0.17315957701E+03  0.21837818313E+03  0.00000000000E+00 0. -1.
        -14    1    4    4    0    0 -0.68318700152E+02  0.19419771222E+02  0.18357605974E+03  0.19683684110E+03  0.00000000000E+00 0.  1.
</event>
<event>
12    1  0.8331241E-002  0.1744975E+03  0.7818608E-02  0.1173451E+00
         21   -1    0    0  501  502  0.00000000000E+00  0.00000000000E+00  0.93656550839E+02  0.93656550839E+02  0.00000000000E+00 0. -1.
         21   -1    0    0  502  503 -0.00000000000E+00 -0.00000000000E+00 -0.33777442741E+03  0.33777442741E+03  0.00000000000E+00 0. -1.
         -6    2    1    2    0  503  0.16813318409E+02 -0.13741143616E+02 -0.78059163046E+02  0.19116121281E+03  0.17314118414E+03 0.  0.
        -24    2    3    3    0    0  0.70144082026E+02 -0.20635818664E+01 -0.76580743307E+02  0.13634505168E+03  0.88322773161E+02 0.  0.
          6    2    1    2  501    0 -0.16813318409E+02  0.13741143616E+02 -0.16605871353E+03  0.24026976544E+03  0.17228626510E+03 0.  0.
         24    2    5    5    0    0 -0.14977087209E+02 -0.18348520579E+02 -0.13622907816E+02  0.84411229723E+02  0.79866706063E+02 0.  0.
          5    1    5    5  501    0 -0.18362312007E+01  0.32089664194E+02 -0.15243580571E+03  0.15585853572E+03  0.47000000000E+01 0. -1.
        -11    1    6    6    0    0  0.11171278803E+02 -0.19944703668E+01 -0.41386535865E+02  0.42914108788E+02  0.00000000000E+00 0.  1.
         12    1    6    6    0    0 -0.26148366012E+02 -0.16354050212E+02  0.27763628049E+02  0.41497120935E+02  0.00000000000E+00 0. -1.
         -5    1    3    3    0  503 -0.53330763616E+02 -0.11677561749E+02 -0.14784197393E+01  0.54816161132E+02  0.47000000000E+01 0.  1.
         13    1    4    4    0    0  0.45208198968E+02  0.32148735041E+02 -0.75891023676E+02  0.94004095088E+02  0.00000000000E+00 0. -1.
        -14    1    4    4    0    0  0.24935883058E+02 -0.34212316907E+02 -0.68971963101E+00  0.42340956593E+02  0.00000000000E+00 0.  1.
</event>
<event>
12    1  0.8331241E-002  0.1901654E+03  0.7818608E-02  0.1158552E+00
         21   -1    0    0  503  502  0.00000000000E+00  0.00000000000E+00  0.51409982258E+03  0.51409982258E+03  0.00000000000E+00 0. -1.
         21   -1    0    0  501  503 -0.00000000000E+00 -0.00000000000E+00 -0.70001792760E+02  0.70001792760E+02  0.00000000000E+00 0. -1.
          6    2    1    2  501    0  0.23486603935E+02  0.78025008141E+02  0.21477507340E+03  0.28686445817E+03  0.17182363851E+03 0.  0.
         24    2    3    3    0    0 -0.86505997302E+01  0.34162804559E+02  0.28277002827E+02  0.92544327747E+02  0.80764680513E+02 0.  0.
         -6    2    1    2    0  502 -0.23486603935E+02 -0.78025008141E+02  0.22932295642E+03  0.29723715717E+03  0.17064989540E+03 0.  0.
        -24    2    5    5    0    0 -0.17538241994E+02 -0.12052330892E+03  0.15454053196E+03  0.21088908489E+03  0.75881303236E+02 0.  0.
          5    1    3    3  501    0  0.32137203665E+02  0.43862203582E+02  0.18649807057E+03  0.19432013043E+03  0.47000000000E+01 0. -1.
        -11    1    4    4    0    0 -0.17580205593E+02  0.50943080557E+02 -0.51022804162E+01  0.54132193294E+02  0.00000000000E+00 0.  1.
         12    1    4    4    0    0  0.89296058630E+01 -0.16780275998E+02  0.33379283243E+02  0.38412134454E+02  0.00000000000E+00 0. -1.
         -5    1    5    5    0  502 -0.59483619414E+01  0.42498300774E+02  0.74782424460E+02  0.86348072281E+02  0.47000000000E+01 0.  1.
         11    1    6    6    0    0 -0.31944183327E+01 -0.28655685632E+02 -0.19075381751E+01  0.28896216524E+02  0.00000000000E+00 0. -1.
        -12    1    6    6    0    0 -0.14343823661E+02 -0.91867623283E+02  0.15644807014E+03  0.18199286836E+03  0.00000000000E+00 0.  1.
</event>
<event>
12    1  0.8331241E-002  0.1914316E+03  0.7818608E-02  0.1157585E+00
         21   -1    0    0  503  502  0.00000000000E+00  0.00000000000E+00  0.18859667807E+03  0.18859667807E+03  0.00000000000E+00 0.  1.
         21   -1    0    0  501  503 -0.00000000000E+00 -0.00000000000E+00 -0.20859283843E+03  0.20859283843E+03  0.00000000000E+00 0.  1.
          6    2    1    2  501    0  0.47084711640E+02  0.67484990536E+02 -0.65259930396E+02  0.20224966875E+03  0.17284350140E+03 0.  0.
         24    2    3    3    0    0  0.58213386947E+02  0.69052005837E+02  0.15180187829E+02  0.12089239759E+03  0.78914864011E+02 0.  0.
         -6    2    1    2    0  502 -0.47084711640E+02 -0.67484990536E+02  0.45263770036E+02  0.19493984776E+03  0.17082605582E+03 0.  0.
        -24    2    5    5    0    0 -0.38140907697E+02 -0.13555636975E+02 -0.36484470333E+02  0.96485637039E+02  0.79623347366E+02 0.  0.
          5    1    3    3  501    0 -0.11128675307E+02 -0.15670153018E+01 -0.80440118225E+02  0.81357271163E+02  0.47000000000E+01 0. -1.
        -13    1    4    4    0    0  0.71817912298E+02  0.56927088418E+02 -0.73232610662E+01  0.91935499538E+02  0.00000000000E+00 0.  1.
         14    1    4    4    0    0 -0.13604525351E+02  0.12124917420E+02  0.22503448895E+02  0.28956898049E+02  0.00000000000E+00 0. -1.
         -5    1    5    5    0  502 -0.89438039424E+01 -0.53929353561E+02  0.81748240369E+02  0.98454210717E+02  0.47000000000E+01 0.  1.
         11    1    6    6    0    0  0.12696717602E+02 -0.27046561819E+02  0.39554416674E+01  0.30139154979E+02  0.00000000000E+00 0. -1.
        -12    1    6    6    0    0 -0.50837625299E+02  0.13490924844E+02 -0.40439912000E+02  0.66346482060E+02  0.00000000000E+00 0.  1.
</event>
<event>
12    1  0.8331241E-002  0.2067665E+03  0.7818608E-02  0.1144190E+00
         21   -1    0    0  501  502  0.00000000000E+00  0.00000000000E+00  0.99496384265E+02  0.99496384265E+02  0.00000000000E+00 0. -1.
         21   -1    0    0  502  503 -0.00000000000E+00 -0.00000000000E+00 -0.51716587307E+03  0.51716587307E+03  0.00000000000E+00 0. -1.
         -6    2    1    2    0  503 -0.18259710404E+02 -0.11219859471E+03 -0.33584643182E+03  0.39429455715E+03  0.17249182692E+03 0.  0.
        -24    2    3    3    0    0  0.37675492179E+00 -0.70567559311E+01 -0.62995861438E+02  0.10125591147E+03  0.78957845093E+02 0.  0.
          6    2    1    2  501    0  0.18259710404E+02  0.11219859471E+03 -0.81823056979E+02  0.22236770018E+03  0.17271490888E+03 0.  0.
         24    2    5    5    0    0 -0.11129776340E+02  0.26554139509E+01 -0.71575459602E+02  0.10839159026E+03  0.80590118974E+02 0.  0.
          5    1    5    5  501    0  0.29389486744E+02  0.10954318076E+03 -0.10247597377E+02  0.11397610992E+03  0.47000000000E+01 0. -1.
        -11    1    6    6    0    0 -0.17036985438E+02 -0.18546134027E+02 -0.80720786784E+02  0.84558047395E+02  0.00000000000E+00 0.  1.
         12    1    6    6    0    0  0.59072090988E+01  0.21201547978E+02  0.91453271821E+01  0.23833542860E+02  0.00000000000E+00 0. -1.
         -5    1    3    3    0  503 -0.18636465326E+02 -0.10514183878E+03 -0.27285057039E+03  0.29303864568E+03  0.47000000000E+01 0.  1.
         13    1    4    4    0    0  0.26727842712E+02 -0.31270490721E+02 -0.45769012114E+02  0.61538797810E+02  0.00000000000E+00 0. -1.
        -14    1    4    4    0    0 -0.26351087790E+02  0.24213734790E+02 -0.17226849325E+02  0.39717113665E+02  0.00000000000E+00 0.  1.
</event>
<event>
12    1  0.8331241E-002  0.2440078E+03  0.7818608E-02  0.1117152E+00
         21   -1    0    0  501  502  0.00000000000E+00  0.00000000000E+00  0.10937871066E+03  0.10937871066E+03  0.00000000000E+00 0. -1.
         21   -1    0    0  502  503 -0.00000000000E+00 -0.00000000000E+00 -0.55182837185E+03  0.55182837185E+03  0.00000000000E+00 0.  1.
         -6    2    1    2    0  503  0.17582503714E+03 -0.13001100140E+02 -0.18271875104E+03  0.30483656668E+03  0.16868822756E+03 0.  0.
        -24    2    3    3    0    0  0.86396258506E+02 -0.64137208820E+02 -0.13931438079E+03  0.19295074356E+03  0.79016439467E+02 0.  0.
          6    2    1    2  501    0 -0.17582503714E+03  0.13001100140E+02 -0.25973091015E+03  0.35637051583E+03  0.16869003105E+03 0.  0.
         24    2    5    5    0    0 -0.11994148995E+03 -0.30471133839E+02 -0.24154426160E+03  0.28311991748E+03  0.80615174437E+02 0.  0.
          5    1    5    5  501    0 -0.55883547189E+02  0.43472233978E+02 -0.18186648546E+02  0.73250598351E+02  0.47000000000E+01 0. -1.
        -11    1    6    6    0    0 -0.12745708156E+03 -0.16462591424E+02 -0.19162364566E+03  0.23072916186E+03  0.00000000000E+00 0.  1.
         12    1    6    6    0    0  0.75155916107E+01 -0.14008542415E+02 -0.49920615948E+02  0.52390755620E+02  0.00000000000E+00 0. -1.
         -5    1    3    3    0  503  0.89428778636E+02  0.51136108680E+02 -0.43404370244E+02  0.11188582312E+03  0.47000000000E+01 0.  1.
         13    1    4    4    0    0 -0.15407918004E+01 -0.41900257041E+02 -0.34172828095E+02  0.54090551481E+02  0.00000000000E+00 0. -1.
        -14    1    4    4    0    0  0.87937050306E+02 -0.22236951779E+02 -0.10514155270E+03  0.13886019208E+03  0.00000000000E+00 0.  1.
</event>
<event>
12    1  0.8331241E-002  0.2249902E+03  0.7818608E-02  0.1130311E+00
         21   -1    0    0  501  502  0.00000000000E+00  0.00000000000E+00  0.14669724745E+03  0.14669724745E+03  0.00000000000E+00 0.  1.
         21   -1    0    0  502  503 -0.00000000000E+00 -0.00000000000E+00 -0.98504059320E+03  0.98504059320E+03  0.00000000000E+00 0. -1.
         -6    2    1    2    0  503  0.98076398359E+02  0.10583621374E+03 -0.87539560973E+03  0.90371704868E+03  0.17194983716E+03 0.  0.
        -24    2    3    3    0    0  0.17170121705E+02  0.98980367733E+01 -0.53430807611E+03  0.54024386536E+03  0.77366204891E+02 0.  0.
          6    2    1    2  501    0 -0.98076398359E+02 -0.10583621374E+03  0.37052263977E+02  0.22802079196E+03  0.17262771286E+03 0.  0.
         24    2    5    5    0    0 -0.28107318313E+02 -0.80335938455E+02 -0.38183444213E+02  0.12205646783E+03  0.78714176464E+02 0.  0.
          5    1    5    5  501    0 -0.69969080046E+02 -0.25500275281E+02  0.75235708190E+02  0.10596432413E+03  0.47000000000E+01 0. -1.
        -11    1    6    6    0    0 -0.28638902185E+02 -0.89384351848E+02 -0.12337984241E+02  0.94667707952E+02  0.00000000000E+00 0.  1.
         12    1    6    6    0    0  0.53158387229E+00  0.90484133932E+01 -0.25845459972E+02  0.27388759876E+02  0.00000000000E+00 0. -1.
         -5    1    3    3    0  503  0.80906276654E+02  0.95938176963E+02 -0.34108753362E+03  0.36347318332E+03  0.47000000000E+01 0.  1.
         13    1    4    4    0    0  0.73579531472E+01  0.43878363221E+02 -0.29476045376E+03  0.29809927094E+03  0.00000000000E+00 0. -1.
        -14    1    4    4    0    0  0.98121685577E+01 -0.33980326448E+02 -0.23954762234E+03  0.24214459442E+03  0.00000000000E+00 0.  1.
</event>
<event>
12    1  0.8331241E-002  0.1747704E+03  0.7818608E-02  0.1173123E+00
         21   -1    0    0  503  502  0.00000000000E+00  0.00000000000E+00  0.11616497377E+03  0.11616497377E+03  0.00000000000E+00 0. -1.
         21   -1    0    0  501  503 -0.00000000000E+00 -0.00000000000E+00 -0.28090459076E+03  0.28090459076E+03  0.00000000000E+00 0. -1.
          6    2    1    2  501    0  0.27448597241E+02 -0.14681947760E+02 -0.13403873602E+03  0.22025227305E+03  0.17197585862E+03 0.  0.
         24    2    3    3    0    0 -0.44557962813E+02 -0.18793836307E+02 -0.35508709718E+02  0.98055266531E+02  0.77558664864E+02 0.  0.
         -6    2    1    2    0  502 -0.27448597241E+02  0.14681947760E+02 -0.30700880969E+02  0.17681729148E+03  0.17132666283E+03 0.  0.
        -24    2    5    5    0    0  0.85532256530E+01 -0.43423933940E+02  0.13420703761E+02  0.95323555658E+02  0.83352680016E+02 0.  0.
          5    1    3    3  501    0  0.72006560054E+02  0.41118885472E+01 -0.98530026300E+02  0.12219700651E+03  0.47000000000E+01 0. -1.
        -13    1    4    4    0    0  0.54461435186E+01  0.23663708963E+02 -0.19197441960E+01  0.24358099657E+02  0.00000000000E+00 0.  1.
         14    1    4    4    0    0 -0.50004106332E+02 -0.42457545271E+02 -0.33588965522E+02  0.73697166874E+02  0.00000000000E+00 0. -1.
         -5    1    5    5    0  502 -0.36001822894E+02  0.58105881700E+02 -0.44121584730E+02  0.81493735827E+02  0.47000000000E+01 0.  1.
         11    1    6    6    0    0 -0.27153098081E+02  0.96540333083E+01  0.12326497877E+02  0.31343797543E+02  0.00000000000E+00 0. -1.
        -12    1    6    6    0    0  0.35706323734E+02 -0.53077967249E+02  0.10942058849E+01  0.63979758115E+02  0.00000000000E+00 0.  1.
</event>
<event>
12    1  0.8331241E-002  0.1944919E+03  0.7818608E-02  0.1154865E+00
         21   -1    0    0  501  502  0.00000000000E+00  0.00000000000E+00  0.11876962977E+04  0.11876962977E+04  0.00000000000E+00 0.  1.
         21   -1    0    0  502  503 -0.00000000000E+00 -0.00000000000E+00 -0.41924877294E+02  0.41924877294E+02  0.00000000000E+00 0. -1.
         -6    2    1    2    0  503  0.55975982061E+01 -0.90028142170E+02  0.26913597089E+03  0.33205610789E+03  0.17230986179E+03 0.  0.
        -24    2    3    3    0    0  0.76835834998E+01 -0.32248127023E+01  0.51746823039E+02  0.97920888530E+02  0.82712331870E+02 0.  0.
          6    2    1    2  501    0 -0.55975982061E+01  0.90028142170E+02  0.87663544953E+03  0.89756506712E+03  0.17028487558E+03 0.  0.
         24    2    5    5    0    0 -0.67412357170E+02  0.74314196387E+02  0.54397037434E+03  0.55880831844E+03  0.79346978039E+02 0.  0.
          5    1    5    5  501    0  0.61814758964E+02  0.15713945783E+02  0.33266507520E+03  0.33875674867E+03  0.47000000000E+01 0. -1.
        -11    1    6    6    0    0 -0.70937464949E+02  0.22509752183E+02  0.36220216996E+03  0.36976915069E+03  0.00000000000E+00 0.  1.
         12    1    6    6    0    0  0.35251077782E+01  0.51804444204E+02  0.18176820437E+03  0.18903916775E+03  0.00000000000E+00 0. -1.
         -5    1    3    3    0  503 -0.20859852937E+01 -0.86803329468E+02  0.21738914785E+03  0.23413521936E+03  0.47000000000E+01 0.  1.
         13    1    4    4    0    0 -0.20235413307E+02 -0.30199111479E+02  0.42836497985E+01  0.36603387021E+02  0.00000000000E+00 0. -1.
        -14    1    4    4    0    0  0.27918996807E+02  0.26974298776E+02  0.47463173241E+02  0.61317501509E+02  0.00000000000E+00 0.  1.
</event>
<event>
12    1  0.8331241E-002  0.2156138E+03  0.7818608E-02  0.1137525E+00
         21   -1    0    0  503  502  0.00000000000E+00  0.00000000000E+00  0.52429763686E+03  0.52429763686E+03  0.00000000000E+00 0. -1.
         21   -1    0    0  501  503 -0.00000000000E+00 -0.00000000000E+00 -0.12460338190E+03  0.12460338190E+03  0.00000000000E+00 0.  1.
          6    2    1    2  501    0  0.76888781319E+02  0.10442021637E+03  0.23356484103E+02  0.21517365175E+03  0.17011381125E+03 0.  0.
         24    2    3    3    0    0  0.10524966670E+03  0.57145618937E+02 -0.15495287853E+02  0.14756612579E+03  0.84808864107E+02 0.  0.
         -6    2    1    2    0  502 -0.76888781319E+02 -0.10442021637E+03  0.37633777085E+03  0.43372736701E+03  0.17226097887E+03 0.  0.
        -24    2    5    5    0    0 -0.62504769086E+01 -0.11909888616E+03  0.25072529257E+03  0.28879352660E+03  0.79466442749E+02 0.  0.
          5    1    3    3  501    0 -0.28360885380E+02  0.47274597435E+02  0.38851771956E+02  0.67607525959E+02  0.47000000000E+01 0. -1.
        -13    1    4    4    0    0  0.13667725893E+02 -0.10826089373E+02 -0.27840698551E+02  0.32849892511E+02  0.00000000000E+00 0.  1.
         14    1    4    4    0    0  0.91581940806E+02  0.67971708311E+02  0.12345410697E+02  0.11471623328E+03  0.00000000000E+00 0. -1.
         -5    1    5    5    0  502 -0.70638304410E+02  0.14678669785E+02  0.12561247828E+03  0.14493384041E+03  0.47000000000E+01 0.  1.
         13    1    6    6    0    0 -0.59014366375E+01  0.90569976054E+01  0.46086714237E+02  0.47337526226E+02  0.00000000000E+00 0. -1.
        -14    1    6    6    0    0 -0.34904027109E+00 -0.12815588376E+03  0.20463857834E+03  0.24145600037E+03  0.00000000000E+00 0.  1.
</event>
<event>
12    1  0.8331241E-002  0.2283228E+03  0.7818608E-02  0.1128001E+00
         21   -1    0    0  501  502  0.00000000000E+00  0.00000000000E+00  0.81089732663E+02  0.81089732663E+02  0.00000000000E+00 0. -1.
         21   -1    0    0  502  503 -0.00000000000E+00 -0.00000000000E+00 -0.89657606898E+03  0.89657606898E+03  0.00000000000E+00 0. -1.
         -6    2    1    2    0  503  0.14522915927E+03  0.34462673553E+02 -0.66855545381E+03  0.70615154655E+03  0.17147719177E+03 0.  0.
        -24    2    3    3    0    0  0.16619663177E+02 -0.21162680967E+02 -0.30374729398E+03  0.31532976359E+03  0.80289282832E+02 0.  0.
          6    2    1    2  501    0 -0.14522915927E+03 -0.34462673553E+02 -0.14693088250E+03  0.27151425509E+03  0.17277766613E+03 0.  0.
         24    2    5    5    0    0 -0.10551477767E+03 -0.35846109933E+02 -0.19575125482E+02  0.13801996739E+03  0.79044379673E+02 0.  0.
          5    1    5    5  501    0 -0.39714381608E+02  0.13834363800E+01 -0.12735575702E+03  0.13349428770E+03  0.47000000000E+01 0. -1.
        -13    1    6    6    0    0 -0.32399209210E+02 -0.32390382912E+02  0.25127778510E+02  0.52251802987E+02  0.00000000000E+00 0.  1.
         14    1    6    6    0    0 -0.73115568456E+02 -0.34557270210E+01 -0.44702903992E+02  0.85768164404E+02  0.00000000000E+00 0. -1.
         -5    1    3    3    0  503  0.12860949610E+03  0.55625354520E+02 -0.36480815984E+03  0.39082178296E+03  0.47000000000E+01 0.  1.
         13    1    4    4    0    0 -0.21448539477E+02 -0.26688267280E+02 -0.64640438569E+02  0.73148409104E+02  0.00000000000E+00 0. -1.
        -14    1    4    4    0    0  0.38068202654E+02  0.55255863129E+01 -0.23910685541E+03  0.24218135448E+03  0.00000000000E+00 0.  1.
</event>
<event>
12    1  0.8331241E-002  0.1822258E+03  0.7818608E-02  0.1165717E+00
         21   -1    0    0  503  502  0.00000000000E+00  0.00000000000E+00  0.83048998469E+02  0.83048998469E+02  0.00000000000E+00 0.  1.
         21   -1    0    0  501  503 -0.00000000000E+00 -0.00000000000E+00 -0.59115994577E+03  0.59115994577E+03  0.00000000000E+00 0.  1.
          6    2    1    2  501    0 -0.27149620469E+02 -0.54080338113E+02 -0.44596402379E+03  0.48167713815E+03  0.17166004207E+03 0.  0.
         24    2    3    3    0    0  0.30986883715E+02 -0.18675254461E+02 -0.36732472423E+03  0.37756372642E+03  0.79485611193E+02 0.  0.
         -6    2    1    2    0  502  0.27149620469E+02  0.54080338113E+02 -0.62146923518E+02  0.19253180609E+03  0.17188505285E+03 0.  0.
        -24    2    5    5    0    0 -0.18476952054E+02 -0.27292242571E+02 -0.19270032045E+02  0.89751463467E+02  0.81226392249E+02 0.  0.
          5    1    3    3  501    0 -0.58136504184E+02 -0.35405083652E+02 -0.78639299554E+02  0.10411341173E+03  0.47000000000E+01 0. -1.
        -13    1    4    4    0    0  0.35065299948E+02 -0.47041814073E+02 -0.24766237735E+03  0.25451750566E+03  0.00000000000E+00 0.  1.
         14    1    4    4    0    0 -0.40784162327E+01  0.28366559612E+02 -0.11966234688E+03  0.12304622077E+03  0.00000000000E+00 0. -1.
         -5    1    5    5    0  502  0.45626572523E+02  0.81372580684E+02 -0.42876891473E+02  0.10278034262E+03  0.47000000000E+01 0.  1.
         11    1    6    6    0    0 -0.66458340835E+01  0.19595456711E+02 -0.33472439439E+02  0.39351661164E+02  0.00000000000E+00 0. -1.
        -12    1    6    6    0    0 -0.11831117971E+02 -0.46887699282E+02  0.14202407394E+02  0.50399802303E+02  0.00000000000E+00 0.  1.
</event>
<event>
12    1  0.8331241E-002  0.2462679E+03  0.7818608E-02  0.1115776E+00
         21   -1    0    0  501  502  0.00000000000E+00  0.00000000000E+00  0.13622387582E+03  0.13622387582E+03  0.00000000000E+00 0. -1.
         21   -1    0    0  502  503 -0.00000000000E+00 -0.00000000000E+00 -0.52805506565E+03  0.52805506565E+03  0.00000000000E+00 0.  1.
         -6    2    1    2    0  503  0.16085781063E+03 -0.71123498945E+02 -0.32845804522E+03  0.41052716258E+03  0.17237771437E+03 0.  0.
        -24    2    3    3    0    0  0.55920720651E+02 -0.73319220624E+02 -0.94135689983E+02  0.15372827199E+03  0.79170817670E+02 0.  0.
          6    2    1    2  501    0 -0.16085781063E+03  0.71123498945E+02 -0.63373144614E+02  0.25375177889E+03  0.17158095026E+03 0.  0.
         24    2    5    5    0    0 -0.61685135468E+02  0.96769897373E+02 -0.57914156185E+02  0.15106366953E+03  0.79351835446E+02 0.  0.
          5    1    5    5  501    0 -0.99172675160E+02 -0.25646398427E+02 -0.54589884290E+01  0.10268810937E+03  0.47000000000E+01 0. -1.
        -13    1    6    6    0    0 -0.16713985481E+01 -0.12571007149E+02 -0.13854989266E+02  0.18782558968E+02  0.00000000000E+00 0.  1.
         14    1    6    6    0    0 -0.60013736920E+02  0.10934090452E+03 -0.44059166919E+02  0.13228111056E+03  0.00000000000E+00 0. -1.
         -5    1    3    3    0  503  0.10493708998E+03  0.21957216785E+01 -0.23432235523E+03  0.25679889059E+03  0.47000000000E+01 0.  1.
         13    1    4    4    0    0  0.75795206911E+02 -0.58953598594E+02 -0.82448066134E+02  0.12656272669E+03  0.00000000000E+00 0. -1.
        -14    1    4    4    0    0 -0.19874486260E+02 -0.14365622030E+02 -0.11687623849E+02  0.27165545304E+02  0.00000000000E+00 0.  1.
</event>
<event>
12    1  0.8331241E-002  0.1873476E+03  0.7818608E-02  0.1161199E+00
         21   -1    0    0  501  502  0.00000000000E+00  0.00000000000E+00  0.19941271661E+03  0.19941271661E+03  0.00000000000E+00 0. -1.
         21   -1    0    0  502  503 -0.00000000000E+00 -0.00000000000E+00 -0.19334622523E+03  0.19334622523E+03  0.00000000000E+00 0. -1.
         -6    2    1    2    0  503 -0.72126769725E+02  0.31263132984E+02 -0.57947201960E+02  0.19610453570E+03  0.17005721482E+03 0.  0.
        -24    2    3    3    0    0 -0.45217457117E+02  0.70662680592E+01 -0.10284260321E+03  0.13824879761E+03  0.80259444518E+02 0.  0.
          6    2    1    2  501    0  0.72126769725E+02 -0.31263132984E+02  0.64013693341E+02  0.19665440614E+03  0.16850978643E+03 0.  0.
         24    2    5    5    0    0  0.55019749685E+02  0.19313869785E+02 -0.18640155413E+02  0.98143330325E+02  0.76710230556E+02 0.  0.
          5    1    5    5  501    0  0.17107020040E+02 -0.50577002769E+02  0.82653848754E+02  0.98511075812E+02  0.47000000000E+01 0. -1.
        -11    1    6    6    0    0 -0.14615595839E+02  0.19783427583E+02 -0.14116223353E+02  0.28359608784E+02  0.00000000000E+00 0.  1.
         12    1    6    6    0    0  0.69635345524E+02 -0.46955779740E+00 -0.45239320595E+01  0.69783721540E+02  0.00000000000E+00 0. -1.
         -5    1    3    3    0  503 -0.26909312607E+02  0.24196864925E+02  0.44895401246E+02  0.57855738092E+02  0.47000000000E+01 0.  1.
         11    1    4    4    0    0  0.13416582366E+02 -0.10602564428E+02 -0.62786351235E+02  0.65073381318E+02  0.00000000000E+00 0. -1.
        -12    1    4    4    0    0 -0.58634039483E+02  0.17668832487E+02 -0.40056251971E+02  0.73175416292E+02  0.00000000000E+00 0.  1.
</event>
<event>
12    1  0.8331241E-002  0.1750108E+03  0.7818608E-02  0.1178210E+00
         21   -1    0    0  503  502  0.00000000000E+00  0.00000000000E+00  0.44952352447E+03  0.44952352447E+03  0.00000000000E+00 0. -1.
         21   -1    0    0  501  503 -0.00000000000E+00 -0.00000000000E+00 -0.60490007061E+02  0.60490007061E+02  0.00000000000E+00 0. -1.
          6    2    1    2  501    0 -0.11118095691E+02  0.31654228865E+02  0.21635247582E+03  0.27827534803E+03  0.17176487787E+03 0.  0.
         24    2    3    3    0    0 -0.74461863748E+02  0.18097177800E+02  0.13228302763E+03  0.17203981394E+03  0.78910209619E+02 0.  0.
         -6    2    1    2    0  502  0.11118095691E+02 -0.31654228865E+02  0.17268104158E+03  0.23173818350E+03  0.15085834850E+03 0.  0.
        -24    2    5    5    0    0  0.44088948198E+02 -0.60369060243E+02  0.13637514888E+03  0.17471339502E+03  0.79613631866E+02 0.  0.
          5    1    3    3  501    0  0.63343768057E+02  0.13557051066E+02  0.84069448185E+02  0.10623553409E+03  0.47000000000E+01 0. -1.
        -13    1    4    4    0    0 -0.60120404516E+02  0.25107697400E+02  0.13991890814E+03  0.15434429165E+03  0.00000000000E+00 0.  1.
         14    1    4    4    0    0 -0.14341459232E+02 -0.70105196008E+01 -0.76358805086E+01  0.17695522290E+02  0.00000000000E+00 0. -1.
         -5    1    5    5    0  502 -0.32970852507E+02  0.28714831378E+02  0.36305892700E+02  0.57024788477E+02  0.47000000000E+01 0.  1.
         11    1    6    6    0    0  0.30355105825E+02 -0.41802422361E+02  0.14186250140E+03  0.15097630366E+03  0.00000000000E+00 0. -1.
        -12    1    6    6    0    0  0.13733842373E+02 -0.18566637882E+02 -0.54873525131E+01  0.23737091359E+02  0.00000000000E+00 0.  1.
</event>
<event>
12    1  0.8331241E-002  0.1750715E+03  0.7818608E-02  0.1173282E+00
         21   -1    0    0  503  502  0.00000000000E+00  0.00000000000E+00  0.39019271226E+02  0.39019271226E+02  0.00000000000E+00 0.  1.
         21   -1    0    0  501  503 -0.00000000000E+00 -0.00000000000E+00 -0.77718315164E+03  0.77718315164E+03  0.00000000000E+00 0.  1.
          6    2    1    2  501    0 -0.19538229803E+02  0.25761553822E+02 -0.39563411768E+03  0.43263888020E+03  0.17206000555E+03 0.  0.
         24    2    3    3    0    0 -0.28381622099E+02  0.55757176980E+02 -0.13102416988E+03  0.16614599573E+03  0.80763726682E+02 0.  0.
         -6    2    1    2    0  502  0.19538229803E+02 -0.25761553822E+02 -0.34252976273E+03  0.38356354266E+03  0.16955516160E+03 0.  0.
        -24    2    5    5    0    0  0.57865094034E+02 -0.35444273702E+02 -0.12805556045E+03  0.16542602405E+03  0.79767645212E+02 0.  0.
          5    1    3    3  501    0  0.88433922962E+01 -0.29995623158E+02 -0.26460994781E+03  0.26649288447E+03  0.47000000000E+01 0. -1.
        -13    1    4    4    0    0  0.20483537295E+02  0.96797694255E+01 -0.47898087653E+01  0.23156327520E+02  0.00000000000E+00 0.  1.
         14    1    4    4    0    0 -0.48865159394E+02  0.46077407555E+02 -0.12623436111E+03  0.14298966821E+03  0.00000000000E+00 0. -1.
         -5    1    5    5    0  502 -0.38326864231E+02  0.96827198800E+01 -0.21447420228E+03  0.21813751862E+03  0.47000000000E+01 0.  1.
         13    1    6    6    0    0  0.74484879068E+02 -0.13186095462E+02 -0.10450258240E+03  0.12900643415E+03  0.00000000000E+00 0. -1.
        -14    1    6    6    0    0 -0.16619785034E+02 -0.22258178241E+02 -0.23552978055E+02  0.36419589899E+02  0.00000000000E+00 0.  1.
</event>
<event>
12    1  0.8331241E-002  0.1947893E+03  0.7818608E-02  0.1154266E+00
         21   -1    0    0  503  502  0.00000000000E+00  0.00000000000E+00  0.97108777547E+03  0.97108777547E+03  0.00000000000E+00 0. -1.
         21   -1    0    0  501  503 -0.00000000000E+00 -0.00000000000E+00 -0.79306010640E+02  0.79306010640E+02  0.00000000000E+00 0.  1.
          6    2    1    2  501    0  0.91853056418E+02  0.34248643551E+01  0.71720426448E+02  0.20757337933E+03  0.17173868105E+03 0.  0.
         24    2    3    3    0    0  0.88211290690E+02 -0.37480162106E+02  0.13252148437E+00  0.12490898685E+03  0.80101454903E+02 0.  0.
         -6    2    1    2    0  502 -0.91853056418E+02 -0.34248643551E+01  0.82006133839E+03  0.84282040678E+03  0.17145531692E+03 0.  0.
        -24    2    5    5    0    0 -0.21861052661E+00  0.36590132608E+02  0.49348322526E+03  0.50124548729E+03  0.79890295501E+02 0.  0.
          5    1    3    3  501    0  0.36417657290E+01  0.40905026461E+02  0.71587904963E+02  0.82664392482E+02  0.47000000000E+01 0. -1.
        -13    1    4    4    0    0  0.36884386362E+02 -0.55594818980E+02  0.15210341169E+02  0.68429498999E+02  0.00000000000E+00 0.  1.
         14    1    4    4    0    0  0.51326904328E+02  0.18114656874E+02 -0.15077819685E+02  0.56479487852E+02  0.00000000000E+00 0. -1.
         -5    1    5    5    0  502 -0.91634445892E+02 -0.40014996963E+02  0.32657811312E+03  0.34157491949E+03  0.47000000000E+01 0.  1.
         13    1    6    6    0    0 -0.20463639722E+02  0.84780589888E+01  0.41336628068E+03  0.41395932172E+03  0.00000000000E+00 0. -1.
        -14    1    6    6    0    0  0.20245029195E+02  0.28112073619E+02  0.80116944580E+02  0.87286165565E+02  0.00000000000E+00 0.  1.
</event>
<event>
12    1  0.8331241E-002  0.2309914E+03  0.7818608E-02  0.1126235E+00
         21   -1    0    0  501  502  0.00000000000E+00  0.00000000000E+00  0.17541043621E+03  0.17541043621E+03  0.00000000000E+00 0.  1.
         21   -1    0    0  502  503 -0.00000000000E+00 -0.00000000000E+00 -0.66381623780E+03  0.66381623780E+03  0.00000000000E+00 0. -1.
         -6    2    1    2    0  503  0.80999799082E+02  0.12878707248E+03 -0.55359167624E+03  0.59921367153E+03  0.17159895876E+03 0.  0.
        -24    2    3    3    0    0  0.12076545474E+03  0.10526171543E+03 -0.47875247550E+03  0.51113560523E+03  0.79945921365E+02 0.  0.
          6    2    1    2  501    0 -0.80999799082E+02 -0.12878707248E+03  0.65185874654E+02  0.24001300248E+03  0.17381014244E+03 0.  0.
         24    2    5    5    0    0  0.25343997992E+02 -0.65330375311E+02  0.45365893985E+02  0.11451130040E+03  0.78386206756E+02 0.  0.
          5    1    5    5  501    0 -0.10634379707E+03 -0.63456697172E+02  0.19819980669E+02  0.12550170208E+03  0.47000000000E+01 0. -1.
        -11    1    6    6    0    0  0.20753209635E+02 -0.69459507916E+02  0.39109033703E+01  0.72598995278E+02  0.00000000000E+00 0.  1.
         12    1    6    6    0    0  0.45907883564E+01  0.41291326051E+01  0.41454990614E+02  0.41912305122E+02  0.00000000000E+00 0. -1.
         -5    1    3    3    0  503 -0.39765655658E+02  0.23525357051E+02 -0.74839200743E+02  0.88078066294E+02  0.47000000000E+01 0.  1.
         11    1    4    4    0    0  0.38265073826E+02  0.18109060381E+02 -0.24231833878E+03  0.24598847789E+03  0.00000000000E+00 0. -1.
        -12    1    4    4    0    0  0.82500380913E+02  0.87152655051E+02 -0.23643413672E+03  0.26514712735E+03  0.00000000000E+00 0.  1.
</event>
<event>
12    1  0.8331241E-002  0.2031973E+03  0.7818608E-02  0.1147307E+00
         21   -1    0    0  503  502  0.00000000000E+00  0.00000000000E+00  0.20123990895E+03  0.20123990895E+03  0.00000000000E+00 0. -1.
         21   -1    0    0  501  503 -0.00000000000E+00 -0.00000000000E+00 -0.32731532563E+03  0.32731532563E+03  0.00000000000E+00 0.  1.
          6    2    1    2  501    0  0.80165744995E+02 -0.69891578443E+02 -0.22535210681E+03  0.30343489429E+03  0.17314093572E+03 0.  0.
         24    2    3    3    0    0  0.72976716397E+02 -0.15275305076E+02 -0.22419576230E+03  0.24813528687E+03  0.75818498246E+02 0.  0.
         -6    2    1    2    0  502 -0.80165744995E+02  0.69891578443E+02  0.99276690130E+02  0.22512034028E+03  0.17179035770E+03 0.  0.
        -24    2    5    5    0    0 -0.12708096923E+02  0.22840559317E+02  0.11333538849E+03  0.14154959371E+03  0.80673355683E+02 0.  0.
          5    1    3    3  501    0  0.71890285988E+01 -0.54616273367E+02 -0.11563445145E+01  0.55299607425E+02  0.47000000000E+01 0. -1.
        -13    1    4    4    0    0  0.16458034143E+01  0.78298891021E+01 -0.11725663542E+03  0.11752929159E+03  0.00000000000E+00 0.  1.
         14    1    4    4    0    0  0.71330912982E+02 -0.23105194178E+02 -0.10693912688E+03  0.13060599528E+03  0.00000000000E+00 0. -1.
         -5    1    5    5    0  502 -0.67457648072E+02  0.47051019126E+02 -0.14058698358E+02  0.83570746579E+02  0.47000000000E+01 0.  1.
         13    1    6    6    0    0  0.29435531476E+02  0.10545297072E+02  0.81583084636E+02  0.87369637188E+02  0.00000000000E+00 0. -1.
        -14    1    6    6    0    0 -0.42143628399E+02  0.12295262244E+02  0.31752303851E+02  0.54179956517E+02  0.00000000000E+00 0.  1.
</event>
<event>
12    1  0.8331241E-002  0.2806789E+03  0.7818608E-02  0.1095338E+00
         21   -1    0    0  501  502  0.00000000000E+00  0.00000000000E+00  0.72935758011E+03  0.72935758011E+03  0.00000000000E+00 0.  1.
         21   -1    0    0  502  503 -0.00000000000E+00 -0.00000000000E+00 -0.14112747494E+03  0.14112747494E+03  0.00000000000E+00 0. -1.
         -6    2    1    2    0  503  0.18394189169E+03  0.12393471077E+03  0.83052611554E+02  0.29257074043E+03  0.17177156288E+03 0.  0.
        -24    2    3    3    0    0  0.56100868795E+02  0.60848177237E+01  0.65634560836E+02  0.11776398164E+03  0.79850656285E+02 0.  0.
          6    2    1    2  501    0 -0.18394189169E+03 -0.12393471077E+03  0.50517749361E+03  0.57791431462E+03  0.17200646191E+03 0.  0.
         24    2    5    5    0    0 -0.20845681524E+03 -0.95518444908E+02  0.43829326643E+03  0.50107646270E+03  0.79991355383E+02 0.  0.
          5    1    5    5  501    0  0.24514923548E+02 -0.28416265867E+02  0.66884227183E+02  0.76837851924E+02  0.47000000000E+01 0. -1.
        -11    1    6    6    0    0 -0.10596465260E+03 -0.44566614860E+02  0.30175352343E+03  0.32290846948E+03  0.00000000000E+00 0.  1.
         12    1    6    6    0    0 -0.10249216265E+03 -0.50951830048E+02  0.13653974300E+03  0.17816799322E+03  0.00000000000E+00 0. -1.
         -5    1    3    3    0  503  0.12784102290E+03  0.11784989305E+03  0.17418050719E+02  0.17480675879E+03  0.47000000000E+01 0.  1.
         13    1    4    4    0    0 -0.16290782352E+02 -0.89458383923E+01 -0.46216288990E+00  0.18591159423E+02  0.00000000000E+00 0. -1.
        -14    1    4    4    0    0  0.72391651146E+02  0.15030656116E+02  0.66096723726E+02  0.99172822216E+02  0.00000000000E+00 0.  1.
</event>
<event>
12    1  0.8331241E-002  0.1988612E+03  0.7818608E-02  0.1150735E+00
         21   -1    0    0  503  502  0.00000000000E+00  0.00000000000E+00  0.93145572151E+03  0.93145572151E+03  0.00000000000E+00 0. -1.
         21   -1    0    0  501  503 -0.00000000000E+00 -0.00000000000E+00 -0.54296815208E+02  0.54296815208E+02  0.00000000000E+00 0. -1.
          6    2    1    2  501    0  0.62992126683E+02  0.77846457277E+02  0.66892673254E+03  0.69781781034E+03  0.17163520612E+03 0.  0.
         24    2    3    3    0    0  0.56836158546E+02 -0.19344697502E+02  0.28296794864E+03  0.29973454093E+03  0.78519862645E+02 0.  0.
         -6    2    1    2    0  502 -0.62992126683E+02 -0.77846457277E+02  0.20823217376E+03  0.28793472638E+03  0.17180712887E+03 0.  0.
        -24    2    5    5    0    0 -0.53654115986E+02  0.85491770637E+01  0.16268636230E+03  0.18971092571E+03  0.81064975565E+02 0.  0.
          5    1    3    3  501    0  0.61559681369E+01  0.97191154779E+02  0.38595878390E+03  0.39808326940E+03  0.47000000000E+01 0. -1.
        -13    1    4    4    0    0 -0.14911214930E+02  0.13261179082E+02  0.52490795898E+02  0.56155915586E+02  0.00000000000E+00 0.  1.
         14    1    4    4    0    0  0.71747373476E+02 -0.32605876585E+02  0.23047715274E+03  0.24357862535E+03  0.00000000000E+00 0. -1.
         -5    1    5    5    0  502 -0.93380106967E+01 -0.86395634341E+02  0.45545811460E+02  0.98223800672E+02  0.47000000000E+01 0.  1.
         13    1    6    6    0    0 -0.71855666551E+02 -0.72472945079E+01  0.13418803891E+03  0.15238828656E+03  0.00000000000E+00 0. -1.
        -14    1    6    6    0    0  0.18201550565E+02  0.15796471572E+02  0.28498323391E+02  0.37322639151E+02  0.00000000000E+00 0.  1.
</event>
<event>
12    1  0.8331241E-002  0.2957703E+03  0.7818608E-02  0.1087395E+00
         21   -1    0    0  501  502  0.00000000000E+00  0.00000000000E+00  0.16709381439E+03  0.16709381439E+03  0.00000000000E+00 0. -1.
         21   -1    0    0  502  503 -0.00000000000E+00 -0.00000000000E+00 -0.59458634220E+03  0.59458634220E+03  0.00000000000E+00 0.  1.
         -6    2    1    2    0  503 -0.18122714589E+03  0.15817620685E+03 -0.81885732056E+02  0.30689628737E+03  0.17209609892E+03 0.  0.
        -24    2    3    3    0    0 -0.17500682184E+03  0.17035731475E+03 -0.36766064270E+02  0.25951542370E+03  0.79671257519E+02 0.  0.
          6    2    1    2  501    0  0.18122714589E+03 -0.15817620685E+03 -0.34560679575E+03  0.45478386923E+03  0.17181769297E+03 0.  0.
         24    2    5    5    0    0  0.13871689742E+03 -0.12568642654E+03 -0.15175792433E+03  0.25363173277E+03  0.79114681486E+02 0.  0.
          5    1    5    5  501    0  0.42510248471E+02 -0.32489780315E+02 -0.19384887142E+03  0.20115213646E+03  0.47000000000E+01 0. -1.
        -13    1    6    6    0    0 -0.73928088009E+01  0.12311702433E+01 -0.14634722962E+02  0.16442156741E+02  0.00000000000E+00 0.  1.
         14    1    6    6    0    0  0.14610970622E+03 -0.12691759678E+03 -0.13712320137E+03  0.23718957603E+03  0.00000000000E+00 0. -1.
         -5    1    3    3    0  503 -0.62203240510E+01 -0.12181107900E+02 -0.45119667786E+02  0.47380863670E+02  0.47000000000E+01 0.  1.
         13    1    4    4    0    0 -0.98147463274E+02  0.13985018735E+03 -0.44232413823E+02  0.17648656006E+03  0.00000000000E+00 0. -1.
        -14    1    4    4    0    0 -0.76859358564E+02  0.30507127404E+02  0.74663495530E+01  0.83028863638E+02  0.00000000000E+00 0.  1.
</event>
<event>
12    1  0.8331241E-002  0.1778257E+03  0.7818608E-02  0.1174036E+00
         21   -1    0    0  503  502  0.00000000000E+00  0.00000000000E+00  0.22586149170E+03  0.22586149170E+03  0.00000000000E+00 0.  1.
         21   -1    0    0  501  503 -0.00000000000E+00 -0.00000000000E+00 -0.12797135154E+03  0.12797135154E+03  0.00000000000E+00 0.  1.
          6    2    1    2  501    0  0.46388940056E+02 -0.34366921788E+01  0.39473741467E+02  0.16665789866E+03  0.15509008449E+03 0.  0.
         24    2    3    3    0    0  0.66841857653E+02  0.42451168863E+02  0.30620550390E+02  0.11542815513E+03  0.78205531897E+02 0.  0.
         -6    2    1    2    0  502 -0.46388940056E+02  0.34366921788E+01  0.58416398688E+02  0.18717494458E+03  0.17163402818E+03 0.  0.
        -24    2    5    5    0    0 -0.19294128610E+02  0.69405199816E+02  0.32218474340E+02  0.11105402730E+03  0.78138477915E+02 0.  0.
          5    1    3    3  501    0 -0.20452917597E+02 -0.45887861042E+02  0.88531910773E+01  0.51229743523E+02  0.47000000000E+01 0. -1.
        -13    1    4    4    0    0  0.42837882004E+02 -0.43856316641E+00  0.47024757967E+02  0.63612925841E+02  0.00000000000E+00 0.  1.
         14    1    4    4    0    0  0.24003975649E+02  0.42889732030E+02 -0.16404207577E+02  0.51815229293E+02  0.00000000000E+00 0. -1.
         -5    1    5    5    0  502 -0.27094811446E+02 -0.65968507637E+02  0.26197924348E+02  0.76120917279E+02  0.47000000000E+01 0.  1.
         13    1    6    6    0    0 -0.41951425478E+01 -0.13070149790E+02 -0.10187558251E+02  0.17094279149E+02  0.00000000000E+00 0. -1.
        -14    1    6    6    0    0 -0.15098986062E+02  0.82475349606E+02  0.42406032591E+02  0.93959748152E+02  0.00000000000E+00 0.  1.
</event>
<event>
12    1  0.8331241E-002  0.2250446E+03  0.7818608E-02  0.1130302E+00
         21   -1    0    0  503  502  0.00000000000E+00  0.00000000000E+00  0.19446627500E+03  0.19446627500E+03  0.00000000000E+00 0. -1.
         21   -1    0    0  501  503 -0.00000000000E+00 -0.00000000000E+00 -0.28029911294E+03  0.28029911294E+03  0.00000000000E+00 0. -1.
          6    2    1    2  501    0 -0.14513876336E+03  0.42055675659E+01 -0.10731473787E+03  0.24869781770E+03  0.17102983406E+03 0.  0.
         24    2    3    3    0    0 -0.64602210833E+02  0.65602103035E+02 -0.61735700210E+02  0.13754382752E+03  0.81424359009E+02 0.  0.
         -6    2    1    2    0  502  0.14513876336E+03 -0.42055675659E+01  0.21481899925E+02  0.22606757023E+03  0.17193640353E+03 0.  0.
        -24    2    5    5    0    0  0.13008291128E+03  0.17877848210E+02 -0.39932834980E+02  0.15892432338E+03  0.80131941123E+02 0.  0.
          5    1    3    3  501    0 -0.80536552530E+02 -0.61396535469E+02 -0.45579037657E+02  0.11115399019E+03  0.47000000000E+01 0. -1.
        -13    1    4    4    0    0 -0.19652399524E+02  0.58697426265E+02 -0.13059789165E+01  0.61913732225E+02  0.00000000000E+00 0.  1.
         14    1    4    4    0    0 -0.44949811309E+02  0.69046767706E+01 -0.60429721293E+02  0.75630095290E+02  0.00000000000E+00 0. -1.
         -5    1    5    5    0  502  0.15055852079E+02 -0.22083415776E+02  0.61414734905E+02  0.67143246850E+02  0.47000000000E+01 0.  1.
         13    1    6    6    0    0  0.70263964588E+02 -0.27077024899E+02 -0.37342254487E+02  0.84051376950E+02  0.00000000000E+00 0. -1.
        -14    1    6    6    0    0  0.59818946696E+02  0.44954873109E+02 -0.25905804926E+01  0.74872946432E+02  0.00000000000E+00 0.  1.
</event>
<event>
12    1  0.8331241E-002  0.2036256E+03  0.7818608E-02  0.1147875E+00
         21   -1    0    0  503  502  0.00000000000E+00  0.00000000000E+00  0.23865754554E+03  0.23865754554E+03  0.00000000000E+00 0.  1.
         21   -1    0    0  501  503 -0.00000000000E+00 -0.00000000000E+00 -0.17244217355E+03  0.17244217355E+03  0.00000000000E+00 0.  1.
          6    2    1    2  501    0  0.98252000507E+02  0.40361032334E+02  0.46704574568E+01  0.20367914362E+03  0.17372654327E+03 0.  0.
         24    2    3    3    0    0  0.15830879694E+02  0.77422844932E+02 -0.97248900418E+01  0.11204871669E+03  0.78837984226E+02 0.  0.
         -6    2    1    2    0  502 -0.98252000507E+02 -0.40361032334E+02  0.61544914532E+02  0.20742057548E+03  0.16719165676E+03 0.  0.
        -24    2    5    5    0    0 -0.26102559680E+02  0.32478925967E+02  0.33102469630E+02  0.10092050971E+03  0.85749352944E+02 0.  0.
          5    1    3    3  501    0  0.82421120813E+02 -0.37061812599E+02  0.14395347499E+02  0.91630426927E+02  0.47000000000E+01 0. -1.
        -11    1    4    4    0    0  0.36439072492E+02  0.76919210716E+02  0.71424873216E+01  0.85413032415E+02  0.00000000000E+00 0.  1.
         12    1    4    4    0    0 -0.20608192798E+02  0.50363421622E+00 -0.16867377363E+02  0.26635684277E+02  0.00000000000E+00 0. -1.
         -5    1    5    5    0  502 -0.72149440827E+02 -0.72839958300E+02  0.28442444902E+02  0.10650006577E+03  0.47000000000E+01 0.  1.
         13    1    6    6    0    0  0.31203129274E+02  0.97919951318E+01  0.46338656974E+01  0.33030155260E+02  0.00000000000E+00 0. -1.
        -14    1    6    6    0    0 -0.57305688954E+02  0.22686930835E+02  0.28468603933E+02  0.67890354448E+02  0.00000000000E+00 0.  1.
</event>
<event>
12    1  0.8331241E-002  0.2278115E+03  0.7818608E-02  0.1129152E+00
         21   -1    0    0  503  502  0.00000000000E+00  0.00000000000E+00  0.15359356857E+03  0.15359356857E+03  0.00000000000E+00 0. -1.
         21   -1    0    0  501  503 -0.00000000000E+00 -0.00000000000E+00 -0.53795020734E+03  0.53795020734E+03  0.00000000000E+00 0. -1.
          6    2    1    2  501    0 -0.74035591243E+01 -0.14030249209E+03 -0.40573872946E+03  0.46273101224E+03  0.17250064096E+03 0.  0.
         24    2    3    3    0    0  0.55663657793E+02 -0.46713231607E+02 -0.16307357029E+03  0.19506537567E+03  0.78593528053E+02 0.  0.
         -6    2    1    2    0  502  0.74035591243E+01  0.14030249209E+03  0.21382090692E+02  0.22881276367E+03  0.17932787023E+03 0.  0.
        -24    2    5    5    0    0 -0.34404516478E+01  0.48717913161E+02 -0.55524192014E+02  0.10863791611E+03  0.79586362822E+02 0.  0.
          5    1    3    3  501    0 -0.63067216917E+02 -0.93589260483E+02 -0.24266515916E+03  0.26766563657E+03  0.47000000000E+01 0. -1.
        -11    1    4    4    0    0  0.26659362729E+02 -0.39625918356E+02 -0.25207601314E+02  0.54003316478E+02  0.00000000000E+00 0.  1.
         12    1    4    4    0    0  0.29004295064E+02 -0.70873132507E+01 -0.13786596898E+03  0.14106205919E+03  0.00000000000E+00 0. -1.
         -5    1    5    5    0  502  0.10844010772E+02  0.91584578928E+02  0.76906282706E+02  0.12017484756E+03  0.47000000000E+01 0.  1.
         11    1    6    6    0    0  0.26270162789E+02  0.54965392108E+01  0.62950722167E+01  0.27567396150E+02  0.00000000000E+00 0. -1.
        -12    1    6    6    0    0 -0.29710614437E+02  0.43221373950E+02 -0.61819264231E+02  0.81070519959E+02  0.00000000000E+00 0.  1.
</event>
<event>
12    1  0.8331241E-002  0.2043153E+03  0.7818608E-02  0.1146493E+00
         21   -1    0    0  501  502  0.00000000000E+00  0.00000000000E+00  0.22869505989E+03  0.22869505989E+03  0.00000000000E+00 0. -1.
         21   -1    0    0  502  503 -0.00000000000E+00 -0.00000000000E+00 -0.35206740617E+03  0.35206740617E+03  0.00000000000E+00 0.  1.
         -6    2    1    2    0  503 -0.42561943588E+02 -0.96846802162E+02 -0.26420354603E+03  0.33398842482E+03  0.17479683077E+03 0.  0.
        -24    2    3    3    0    0 -0.23798042994E+02  0.13051473548E+02 -0.65879792134E+02  0.10642718838E+03  0.79056382434E+02 0.  0.
          6    2    1    2  501    0  0.42561943588E+02  0.96846802162E+02  0.14083119975E+03  0.24677404124E+03  0.17283859082E+03 0.  0.
         24    2    5    5    0    0  0.72347440764E+02  0.11341435322E+03  0.72604059239E+02  0.17036270509E+03  0.75200626099E+02 0.  0.
          5    1    5    5  501    0 -0.29785497177E+02 -0.16567551062E+02  0.68227140509E+02  0.76411336150E+02  0.47000000000E+01 0. -1.
        -13    1    6    6    0    0  0.10303122581E+02  0.32486736019E+01 -0.13575923090E+02  0.17349752242E+02  0.00000000000E+00 0.  1.
         14    1    6    6    0    0  0.62044318183E+02  0.11016567962E+03  0.86179982329E+02  0.15301295285E+03  0.00000000000E+00 0. -1.
         -5    1    3    3    0  503 -0.18763900594E+02 -0.10989827571E+03 -0.19832375389E+03  0.22756123644E+03  0.47000000000E+01 0.  1.
         13    1    4    4    0    0 -0.28803804426E+02 -0.83467941612E+01  0.65851313154E+01  0.30703290974E+02  0.00000000000E+00 0. -1.
        -14    1    4    4    0    0  0.50057614315E+01  0.21398267709E+02 -0.72464923450E+02  0.75723897410E+02  0.00000000000E+00 0.  1.
</event>
<event>
12    1  0.8331241E-002  0.1942072E+03  0.7818608E-02  0.1156981E+00
         21   -1    0    0  501  502  0.00000000000E+00  0.00000000000E+00  0.53731042733E+02  0.53731042733E+02  0.00000000000E+00 0.  1.
         21   -1    0    0  502  503 -0.00000000000E+00 -0.00000000000E+00 -0.87172697267E+03  0.87172697267E+03  0.00000000000E+00 0.  1.
         -6    2    1    2    0  503 -0.67202771171E+02 -0.14361867600E+02 -0.62535391177E+03  0.65191203979E+03  0.17087807629E+03 0.  0.
        -24    2    3    3    0    0 -0.53253572670E+02 -0.22851117608E+01 -0.16975439468E+03  0.19591484885E+03  0.82005540959E+02 0.  0.
          6    2    1    2  501    0  0.67202771171E+02  0.14361867600E+02 -0.19264201817E+03  0.27354597562E+03  0.18164244526E+03 0.  0.
         24    2    5    5    0    0 -0.32361989572E+02  0.29259389119E+02 -0.77221805337E+02  0.12031741020E+03  0.81299826309E+02 0.  0.
          5    1    5    5  501    0  0.99564760743E+02 -0.14897521518E+02 -0.11542021283E+03  0.15322856542E+03  0.47000000000E+01 0. -1.
        -11    1    6    6    0    0  0.12749181766E+02  0.34589801054E+02 -0.83240376135E+01  0.37792665622E+02  0.00000000000E+00 0.  1.
         12    1    6    6    0    0 -0.45111171338E+02 -0.53304119347E+01 -0.68897767723E+02  0.82524744581E+02  0.00000000000E+00 0. -1.
         -5    1    3    3    0  503 -0.13949198501E+02 -0.12076755840E+02 -0.45559951709E+03  0.45599719093E+03  0.47000000000E+01 0.  1.
         11    1    4    4    0    0  0.37168585153E+00  0.90392644584E+01  0.66268882085E+01  0.11214370230E+02  0.00000000000E+00 0. -1.
        -12    1    4    4    0    0 -0.53625258522E+02 -0.11324376219E+02 -0.17638128289E+03  0.18470047862E+03  0.00000000000E+00 0.  1.
</event>
<event>
12    1  0.8331241E-002  0.1731920E+03  0.7818608E-02  0.1174637E+00
         21   -1    0    0  503  502  0.00000000000E+00  0.00000000000E+00  0.36222290280E+03  0.36222290280E+03  0.00000000000E+00 0.  1.
         21   -1    0    0  501  503 -0.00000000000E+00 -0.00000000000E+00 -0.10715434287E+03  0.10715434287E+03  0.00000000000E+00 0.  1.
          6    2    1    2  501    0 -0.90801613892E+01 -0.16222986975E+02  0.15421618765E+02  0.17387727179E+03  0.17219130258E+03 0.  0.
         24    2    3    3    0    0 -0.72441764711E+02  0.43047199874E+01  0.15516888013E+02  0.10710767838E+03  0.77233030922E+02 0.  0.
         -6    2    1    2    0  502  0.90801613892E+01  0.16222986975E+02  0.23964694117E+03  0.29549997387E+03  0.17188351728E+03 0.  0.
        -24    2    5    5    0    0 -0.20268866543E+02 -0.50192818602E+02  0.10473817760E+03  0.14221954735E+03  0.79537210216E+02 0.  0.
          5    1    3    3  501    0  0.63361603322E+02 -0.20527706963E+02 -0.95269247737E-01  0.66769593416E+02  0.47000000000E+01 0. -1.
        -13    1    4    4    0    0 -0.51914102831E+02 -0.19358772181E+02  0.39170638037E+02  0.67854071486E+02  0.00000000000E+00 0.  1.
         14    1    4    4    0    0 -0.20527661880E+02  0.23663492168E+02 -0.23653750023E+02  0.39253606892E+02  0.00000000000E+00 0. -1.
         -5    1    5    5    0  502  0.29349027932E+02  0.66415805578E+02  0.13490876356E+03  0.15328042653E+03  0.47000000000E+01 0.  1.
         13    1    6    6    0    0  0.61937447328E+01  0.15422342625E+02  0.99704636999E+00  0.16649481293E+02  0.00000000000E+00 0. -1.
        -14    1    6    6    0    0 -0.26462611276E+02 -0.65615161227E+02  0.10374113123E+03  0.12557006605E+03  0.00000000000E+00 0.  1.
</event>
<event>
12    1  0.8331241E-002  0.2322892E+03  0.7818608E-02  0.1125348E+00
         21   -1    0    0  503  502  0.00000000000E+00  0.00000000000E+00  0.44108320417E+03  0.44108320417E+03  0.00000000000E+00 0.  1.
         21   -1    0    0  501  503 -0.00000000000E+00 -0.00000000000E+00 -0.18136827047E+03  0.18136827047E+03  0.00000000000E+00 0. -1.
          6    2    1    2  501    0  0.11496392638E+03 -0.10396864422E+03  0.30915022924E+03  0.38669383517E+03  0.17300888581E+03 0.  0.
         24    2    3    3    0    0  0.12635044178E+03 -0.12790943777E+03  0.23426365371E+03  0.30711429304E+03  0.84347324420E+02 0.  0.
         -6    2    1    2    0  502 -0.11496392638E+03  0.10396864422E+03 -0.49435295545E+02  0.23575763947E+03  0.17062131395E+03 0.  0.
        -24    2    5    5    0    0 -0.10824309223E+03  0.82496737484E+01 -0.27764032981E+02  0.13727401372E+03  0.79301255867E+02 0.  0.
          5    1    3    3  501    0 -0.11386515401E+02  0.23940793553E+02  0.74886575538E+02  0.79579542124E+02  0.47000000000E+01 0. -1.
        -13    1    4    4    0    0 -0.75915718982E+01  0.17107405671E+01  0.45972141314E-01  0.77820762404E+01  0.00000000000E+00 0.  1.
         14    1    4    4    0    0  0.13394201368E+03 -0.12962017834E+03  0.23421768156E+03  0.29933221680E+03  0.00000000000E+00 0. -1.
         -5    1    5    5    0  502 -0.67208341442E+01  0.95718970468E+02 -0.21671262564E+02  0.98483625747E+02  0.47000000000E+01 0.  1.
         13    1    6    6    0    0 -0.76665997958E+02  0.42632587800E+02 -0.16699155812E+02  0.89297674048E+02  0.00000000000E+00 0. -1.
        -14    1    6    6    0    0 -0.31577094274E+02 -0.34382914052E+02 -0.11064877168E+02  0.47976339671E+02  0.00000000000E+00 0.  1.
</event>
<event>
12    1  0.8331241E-002  0.2154845E+03  0.7818608E-02  0.1137323E+00
         21   -1    0    0  503  502  0.00000000000E+00  0.00000000000E+00  0.17004692924E+03  0.17004692924E+03  0.00000000000E+00 0.  1.
         21   -1    0    0  501  503 -0.00000000000E+00 -0.00000000000E+00 -0.61370685737E+03  0.61370685737E+03  0.00000000000E+00 0. -1.
          6    2    1    2  501    0  0.10143953072E+03 -0.83546290992E+02 -0.51383314895E+03  0.55713111094E+03  0.17058900519E+03 0.  0.
         24    2    3    3    0    0  0.23090607759E+02  0.20374275764E+02 -0.18134030617E+03  0.20004342084E+03  0.78643348738E+02 0.  0.
         -6    2    1    2    0  502 -0.10143953072E+03  0.83546290992E+02  0.70173220828E+02  0.22662267567E+03  0.17077351983E+03 0.  0.
        -24    2    5    5    0    0 -0.56437211193E+02  0.12081389502E+03  0.36339061532E+02  0.15894015645E+03  0.78487514306E+02 0.  0.
          5    1    3    3  501    0  0.78348922956E+02 -0.10392056676E+03 -0.33249284278E+03  0.35708769010E+03  0.47000000000E+01 0. -1.
        -13    1    4    4    0    0  0.17459919935E+02 -0.41772534051E+01 -0.10299908581E+01  0.17982189280E+02  0.00000000000E+00 0.  1.
         14    1    4    4    0    0  0.56306878246E+01  0.24551529169E+02 -0.18031031531E+03  0.18206123156E+03  0.00000000000E+00 0. -1.
         -5    1    5    5    0  502 -0.45002319522E+02 -0.37267604028E+02  0.33834159296E+02  0.67682519218E+02  0.47000000000E+01 0.  1.
         13    1    6    6    0    0  0.57146667657E+01 -0.79381889497E+01  0.91813255043E+01  0.13415252441E+02  0.00000000000E+00 0. -1.
        -14    1    6    6    0    0 -0.62151877959E+02  0.12875208397E+03  0.27157736028E+02  0.14552490401E+03  0.00000000000E+00 0.  1.
</event>
<event>
12    1  0.8331241E-002  0.2069591E+03  0.7818608E-02  0.1144030E+00
         21   -1    0    0  503  502  0.00000000000E+00  0.00000000000E+00  0.60652788118E+03  0.60652788118E+03  0.00000000000E+00 0.  1.
         21   -1    0    0  501  503 -0.00000000000E+00 -0.00000000000E+00 -0.73915760031E+02  0.73915760031E+02  0.00000000000E+00 0.  1.
          6    2    1    2  501    0 -0.11253718864E+03 -0.34032084161E+02  0.19374627671E+03  0.28337672285E+03  0.17012332507E+03 0.  0.
         24    2    3    3    0    0 -0.73430109944E+02  0.35765203525E+02  0.63220996367E+02  0.13021026509E+03  0.79288636794E+02 0.  0.
         -6    2    1    2    0  502  0.11253718864E+03  0.34032084161E+02  0.33886584444E+03  0.39706691837E+03  0.17032109543E+03 0.  0.
        -24    2    5    5    0    0 -0.65462205396E+01  0.92189021810E+01  0.17442599148E+03  0.19247193411E+03  0.80580256594E+02 0.  0.
          5    1    3    3  501    0 -0.39107078701E+02 -0.69797287685E+02  0.13052528034E+03  0.15316645775E+03  0.47000000000E+01 0. -1.
        -11    1    4    4    0    0  0.25210839479E+01  0.21874492883E+02 -0.96508038509E+01  0.24041366810E+02  0.00000000000E+00 0.  1.
         12    1    4    4    0    0 -0.75951193892E+02  0.13890710642E+02  0.72871800218E+02  0.10616889828E+03  0.00000000000E+00 0. -1.
         -5    1    5    5    0  502  0.11908340918E+03  0.24813181980E+02  0.16443985296E+03  0.20459498426E+03  0.47000000000E+01 0.  1.
         11    1    6    6    0    0  0.13793280181E+02  0.35036522133E+02  0.43732865978E+02  0.57709410220E+02  0.00000000000E+00 0. -1.
        -12    1    6    6    0    0 -0.20339500721E+02 -0.25817619952E+02  0.13069312551E+03  0.13476252389E+03  0.00000000000E+00 0.  1.
</event>
<event>
12    1  0.8331241E-002  0.2151285E+03  0.7818608E-02  0.1139185E+00
         21   -1    0    0  501  502  0.00000000000E+00  0.00000000000E+00  0.36569460725E+03  0.36569460725E+03  0.00000000000E+00 0. -1.
         21   -1    0    0  502  503 -0.00000000000E+00 -0.00000000000E+00 -0.26582839381E+03  0.26582839381E+03  0.00000000000E+00 0.  1.
         -6    2    1    2    0  503 -0.11535193376E+03  0.16279831007E+02 -0.18296161528E+03  0.27617551636E+03  0.17095865480E+03 0.  0.
        -24    2    3    3    0    0 -0.12580940122E+03 -0.94262247974E+01 -0.19437008837E+03  0.24580442503E+03  0.81995274025E+02 0.  0.
          6    2    1    2  501    0  0.11535193376E+03 -0.16279831007E+02  0.28282782872E+03  0.35534748470E+03  0.18085671859E+03 0.  0.
         24    2    5    5    0    0  0.11650130609E+03 -0.68415785320E+02  0.24526087634E+03  0.29090491569E+03  0.78863797193E+02 0.  0.
          5    1    5    5  501    0 -0.11493723274E+01  0.52135954313E+02  0.37566952379E+02  0.64442569005E+02  0.47000000000E+01 0. -1.
        -13    1    6    6    0    0  0.39101661996E+02  0.14015970780E+02  0.47501576921E+02  0.63101404245E+02  0.00000000000E+00 0.  1.
         14    1    6    6    0    0  0.77399644096E+02 -0.82431756100E+02  0.19775929942E+03  0.22780351145E+03  0.00000000000E+00 0. -1.
         -5    1    3    3    0  503  0.10457467452E+02  0.25706055804E+02  0.11408473089E+02  0.30371091333E+02  0.47000000000E+01 0.  1.
         13    1    4    4    0    0 -0.31017890505E+02 -0.30213829522E+02 -0.23417017147E+02  0.49227448825E+02  0.00000000000E+00 0. -1.
        -14    1    4    4    0    0 -0.94791510712E+02  0.20787604724E+02 -0.17095307122E+03  0.19657697620E+03  0.00000000000E+00 0.  1.
</event>
<event>
12    1  0.8331241E-002  0.1930310E+03  0.7818608E-02  0.1156345E+00
         21   -1    0    0  501  502  0.00000000000E+00  0.00000000000E+00  0.28402155251E+03  0.28402155251E+03  0.00000000000E+00 0. -1.
         21   -1    0    0  502  503 -0.00000000000E+00 -0.00000000000E+00 -0.14636762111E+03  0.14636762111E+03  0.00000000000E+00 0. -1.
         -6    2    1    2    0  503 -0.52735095861E+02  0.62365937435E+02 -0.48658420585E+01  0.19044571476E+03  0.17197497889E+03 0.  0.
        -24    2    3    3    0    0 -0.51768439157E+02  0.65308163106E+02 -0.64247572726E+02  0.13079782247E+03  0.77686500126E+02 0.  0.
          6    2    1    2  501    0  0.52735095861E+02 -0.62365937435E+02  0.14251977346E+03  0.23994345887E+03  0.17490133544E+03 0.  0.
         24    2    5    5    0    0 -0.13369097202E+02 -0.69676465281E+02  0.34735026970E+02  0.11320416057E+03  0.81087096984E+02 0.  0.
          5    1    5    5  501    0  0.66104193063E+02  0.73105278462E+01  0.10778474649E+03  0.12673929830E+03  0.47000000000E+01 0. -1.
        -11    1    6    6    0    0  0.60558181528E+01 -0.73648051418E+02  0.49098989091E+02  0.88721018597E+02  0.00000000000E+00 0.  1.
         12    1    6    6    0    0 -0.19424915354E+02  0.39715861372E+01 -0.14363962120E+02  0.24483141971E+02  0.00000000000E+00 0. -1.
         -5    1    3    3    0  503 -0.96665670384E+00 -0.29422256711E+01  0.59381730667E+02  0.59647892285E+02  0.47000000000E+01 0.  1.
         11    1    4    4    0    0 -0.51667763210E+02  0.17167294262E+02 -0.53181554755E+01  0.54704264231E+02  0.00000000000E+00 0. -1.
        -12    1    4    4    0    0 -0.10067594761E+00  0.48140868844E+02 -0.58929417250E+02  0.76093558243E+02  0.00000000000E+00 0.  1.
</event>
<event>
12    1  0.8331241E-002  0.2653882E+03  0.7818608E-02  0.1104183E+00
         21   -1    0    0  503  502  0.00000000000E+00  0.00000000000E+00  0.79817085560E+02  0.79817085560E+02  0.00000000000E+00 0.  1.
         21   -1    0    0  501  503 -0.00000000000E+00 -0.00000000000E+00 -0.10439269713E+04  0.10439269713E+04  0.00000000000E+00 0. -1.
          6    2    1    2  501    0  0.27247053674E+02  0.19953318188E+03 -0.70544096870E+03  0.75314923994E+03  0.17038463751E+03 0.  0.
         24    2    3    3    0    0 -0.31595758939E+02  0.11486236127E+03 -0.22013840500E+03  0.25699171173E+03  0.58242325903E+02 0.  0.
         -6    2    1    2    0  502 -0.27247053674E+02 -0.19953318188E+03 -0.25866891700E+03  0.37059481688E+03  0.17284390956E+03 0.  0.
        -24    2    5    5    0    0  0.44053438178E+02 -0.12540485963E+03 -0.11332216515E+03  0.19247537221E+03  0.80856487413E+02 0.  0.
          5    1    3    3  501    0  0.58842812613E+02  0.84670820612E+02 -0.48530256371E+03  0.49615752821E+03  0.47000000000E+01 0. -1.
        -11    1    4    4    0    0  0.34548129172E+01  0.52186673955E+02 -0.50159185413E+02  0.72466051031E+02  0.00000000000E+00 0.  1.
         12    1    4    4    0    0 -0.35050571856E+02  0.62675687312E+02 -0.16997921958E+03  0.18452566070E+03  0.00000000000E+00 0. -1.
         -5    1    5    5    0  502 -0.71300491852E+02 -0.74128322244E+02 -0.14534675184E+03  0.17811944467E+03  0.47000000000E+01 0.  1.
         11    1    6    6    0    0  0.37951545427E+01 -0.56857166935E+02 -0.95183149884E+02  0.11093679575E+03  0.00000000000E+00 0. -1.
        -12    1    6    6    0    0  0.40258283635E+02 -0.68547692700E+02 -0.18139015269E+02  0.81538576457E+02  0.00000000000E+00 0.  1.
</event>
<event>
12    1  0.8331241E-002  0.1807078E+03  0.7818608E-02  0.1167148E+00
         21   -1    0    0  501  502  0.00000000000E+00  0.00000000000E+00  0.94528784849E+03  0.94528784849E+03  0.00000000000E+00 0.  1.
         21   -1    0    0  502  503 -0.00000000000E+00 -0.00000000000E+00 -0.94636941740E+02  0.94636941740E+02  0.00000000000E+00 0.  1.
         -6    2    1    2    0  503 -0.42334612064E+02  0.31883709822E+02  0.10866428039E+02  0.18091764981E+03  0.17263929571E+03 0.  0.
        -24    2    3    3    0    0  0.34625157788E+02 -0.13919738697E+02 -0.79860355302E+01  0.89275588207E+02  0.80707454482E+02 0.  0.
          6    2    1    2  501    0  0.42334612064E+02 -0.31883709822E+02  0.83978447871E+03  0.85900714042E+03  0.17276141433E+03 0.  0.
         24    2    5    5    0    0 -0.44280261488E+02 -0.14226530528E+02  0.41214353231E+03  0.42230039518E+03  0.79449334899E+02 0.  0.
          5    1    5    5  501    0  0.86614873552E+02 -0.17657179294E+02  0.42764094640E+03  0.43670674524E+03  0.47000000000E+01 0. -1.
        -11    1    6    6    0    0 -0.17166588172E+01 -0.36700947972E+02  0.26372804306E+03  0.26627502173E+03  0.00000000000E+00 0.  1.
         12    1    6    6    0    0 -0.42563602671E+02  0.22474417444E+02  0.14841548925E+03  0.15602537345E+03  0.00000000000E+00 0. -1.
         -5    1    3    3    0  503 -0.76959769852E+02  0.45803448519E+02  0.18852463569E+02  0.91642061601E+02  0.47000000000E+01 0.  1.
         11    1    4    4    0    0  0.59232463773E+01  0.24279195047E+02  0.21637884051E+02  0.33056953671E+02  0.00000000000E+00 0. -1.
        -12    1    4    4    0    0  0.28701911410E+02 -0.38198933744E+02 -0.29623919581E+02  0.56218634536E+02  0.00000000000E+00 0.  1.
</event>
<event>
12    1  0.8331241E-002  0.1764435E+03  0.7818608E-02  0.1171728E+00
         21   -1    0    0  503  502  0.00000000000E+00  0.00000000000E+00  0.98141519714E+02  0.98141519714E+02  0.00000000000E+00 0. -1.
         21   -1    0    0  501  503 -0.00000000000E+00 -0.00000000000E+00 -0.55398398347E+03  0.55398398347E+03  0.00000000000E+00 0. -1.
          6    2    1    2  501    0 -0.22564036052E+02  0.28730887148E+02 -0.13994495913E+02  0.17699762597E+03  0.17262014391E+03 0.  0.
         24    2    3    3    0    0 -0.23944860326E+02 -0.40443296775E+02  0.27457096805E+02  0.96205925063E+02  0.79326359189E+02 0.  0.
         -6    2    1    2    0  502  0.22564036052E+02 -0.28730887148E+02 -0.44184796784E+03  0.47512787721E+03  0.17082819854E+03 0.  0.
        -24    2    5    5    0    0  0.71823039242E+02  0.62999270980E+01 -0.22647592311E+03  0.25138513433E+03  0.81883477963E+02 0.  0.
          5    1    3    3  501    0  0.13808242739E+01  0.69174183922E+02 -0.41451592718E+02  0.80791700909E+02  0.47000000000E+01 0. -1.
        -13    1    4    4    0    0 -0.48071568704E+02 -0.97853671919E+01  0.99926959537E+00  0.49067582664E+02  0.00000000000E+00 0.  1.
         14    1    4    4    0    0  0.24126708378E+02 -0.30657929583E+02  0.26457827210E+02  0.47138342399E+02  0.00000000000E+00 0. -1.
         -5    1    5    5    0  502 -0.49259003190E+02 -0.35030814246E+02 -0.21537204473E+03  0.22374274288E+03  0.47000000000E+01 0.  1.
         13    1    6    6    0    0  0.46198477530E+02 -0.12836761819E+02 -0.21000864926E+03  0.21541289317E+03  0.00000000000E+00 0. -1.
        -14    1    6    6    0    0  0.25624561712E+02  0.19136688917E+02 -0.16467273852E+02  0.35972241155E+02  0.00000000000E+00 0.  1.
</event>
<event>
12    1  0.8331241E-002  0.2401782E+03  0.7818608E-02  0.1119716E+00
         21   -1    0    0  503  502  0.00000000000E+00  0.00000000000E+00  0.26787424215E+03  0.26787424215E+03  0.00000000000E+00 0.  1.
         21   -1    0    0  501  503 -0.00000000000E+00 -0.00000000000E+00 -0.23005795394E+03  0.23005795394E+03  0.00000000000E+00 0.  1.
          6    2    1    2  501    0  0.64136982227E+02 -0.15434705316E+03  0.82359622293E+02  0.25390686633E+03  0.17247905402E+03 0.  0.
         24    2    3    3    0    0  0.58381113401E+02 -0.15555769698E+02  0.42356785602E+02  0.10927468687E+03  0.80601014457E+02 0.  0.
         -6    2    1    2    0  502 -0.64136982227E+02  0.15434705316E+03 -0.44543334082E+02  0.24402532976E+03  0.17212695212E+03 0.  0.
        -24    2    5    5    0    0  0.50799276934E+01  0.42249490109E+02 -0.36570688565E+02  0.11195528268E+03  0.96880054589E+02 0.  0.
          5    1    3    3  501    0  0.57558688261E+01 -0.13879128346E+03  0.40002836691E+02  0.14463217946E+03  0.47000000000E+01 0. -1.
        -13    1    4    4    0    0  0.63495005830E+02 -0.39415004656E+02  0.23199969003E+02  0.78252136835E+02  0.00000000000E+00 0.  1.
         14    1    4    4    0    0 -0.51138924293E+01  0.23859234958E+02  0.19156816600E+02  0.31022550037E+02  0.00000000000E+00 0. -1.
         -5    1    5    5    0  502 -0.69216909921E+02  0.11209756305E+03 -0.79726455165E+01  0.13207004709E+03  0.47000000000E+01 0.  1.
         11    1    6    6    0    0  0.31236546348E+02  0.26935789983E+02  0.21453213685E+02  0.46491923892E+02  0.00000000000E+00 0. -1.
        -12    1    6    6    0    0 -0.26156618654E+02  0.15313700126E+02 -0.58023902251E+02  0.65463358785E+02  0.00000000000E+00 0.  1.
</event>
<event>
12    1  0.8331241E-002  0.2033173E+03  0.7818608E-02  0.1147006E+00
         21   -1    0    0  501  502  0.00000000000E+00  0.00000000000E+00  0.19336958448E+03  0.19336958448E+03  0.00000000000E+00 0. -1.
         21   -1    0    0  502  503 -0.00000000000E+00 -0.00000000000E+00 -0.38974156997E+03  0.38974156997E+03  0.00000000000E+00 0. -1.
         -6    2    1    2    0  503 -0.41004361863E+01 -0.10805331049E+03 -0.29421794413E+03  0.35763407668E+03  0.17217898442E+03 0.  0.
        -24    2    3    3    0    0 -0.54454496108E+02 -0.11692328248E+03 -0.21403841585E+03  0.26242349688E+03  0.80108065251E+02 0.  0.
          6    2    1    2  501    0  0.41004361863E+01  0.10805331049E+03  0.97845958641E+02  0.22547707776E+03  0.17197019942E+03 0.  0.
         24    2    5    5    0    0 -0.34514998755E+02  0.12282934051E+03  0.40969527635E+02  0.15500366942E+03  0.77905733492E+02 0.  0.
          5    1    5    5  501    0  0.38615434941E+02 -0.14776030022E+02  0.56876431006E+02  0.70473408339E+02  0.47000000000E+01 0. -1.
        -11    1    6    6    0    0 -0.37725760998E+02  0.19721306166E+02 -0.34069841036E+01  0.42705626098E+02  0.00000000000E+00 0.  1.
         12    1    6    6    0    0  0.32107622433E+01  0.10310803434E+03  0.44376511738E+02  0.11229804332E+03  0.00000000000E+00 0. -1.
         -5    1    3    3    0  503  0.50354059922E+02  0.88699719948E+01 -0.80179528271E+02  0.95210579809E+02  0.47000000000E+01 0.  1.
         13    1    4    4    0    0  0.83774550551E+01 -0.61859248666E+02 -0.12847026468E+03  0.14283332001E+03  0.00000000000E+00 0. -1.
        -14    1    4    4    0    0 -0.62831951163E+02 -0.55064033816E+02 -0.85568151179E+02  0.11959017687E+03  0.00000000000E+00 0.  1.
</event>
<event>
12    1  0.8331241E-002  0.2509290E+03  0.7818608E-02  0.1113285E+00
         21   -1    0    0  503  502  0.00000000000E+00  0.00000000000E+00  0.36829908821E+03  0.36829908821E+03  0.00000000000E+00 0. -1.
         21   -1    0    0  501  503 -0.00000000000E+00 -0.00000000000E+00 -0.33333126018E+03  0.33333126018E+03  0.00000000000E+00 0.  1.
          6    2    1    2  501    0 -0.48594162403E+02  0.17642638973E+03 -0.22924205306E+03  0.33725108681E+03  0.16642930344E+03 0.  0.
         24    2    3    3    0    0 -0.32860923300E+02  0.19857488145E+03 -0.21888438026E+03  0.30779838092E+03  0.79483630689E+02 0.  0.
         -6    2    1    2    0  502  0.48594162403E+02 -0.17642638973E+03  0.26420988109E+03  0.36437926158E+03  0.17169077258E+03 0.  0.
        -24    2    5    5    0    0 -0.20230333970E+02 -0.34391977047E+02  0.62361588542E+02  0.10810712323E+03  0.78778854210E+02 0.  0.
          5    1    3    3  501    0 -0.15733239102E+02 -0.22148491723E+02 -0.10357672802E+02  0.29452705888E+02  0.47000000000E+01 0. -1.
        -11    1    4    4    0    0  0.49900856185E+01  0.15920530071E+03 -0.18219666187E+03  0.24200589316E+03  0.00000000000E+00 0.  1.
         12    1    4    4    0    0 -0.37851008919E+02  0.39369580747E+02 -0.36687718393E+02  0.65792487757E+02  0.00000000000E+00 0. -1.
         -5    1    5    5    0  502  0.68824496373E+02 -0.14203441268E+03  0.20184829255E+03  0.25627213835E+03  0.47000000000E+01 0.  1.
         11    1    6    6    0    0  0.24986304971E+02 -0.29539177995E+02  0.45207816245E+02  0.59503152205E+02  0.00000000000E+00 0. -1.
        -12    1    6    6    0    0 -0.45216638941E+02 -0.48527990517E+01  0.17153772297E+02  0.48603971028E+02  0.00000000000E+00 0.  1.
</event>
<event>
12    1  0.8331241E-002  0.2109264E+03  0.7818608E-02  0.1141203E+00
         21   -1    0    0  501  502  0.00000000000E+00  0.00000000000E+00  0.13192665937E+04  0.13192665937E+04  0.00000000000E+00 0.  1.
         21   -1    0    0  502  503 -0.00000000000E+00 -0.00000000000E+00 -0.38733969503E+02  0.38733969503E+02  0.00000000000E+00 0.  1.
         -6    2    1    2    0  503 -0.10426075130E+03 -0.55137579756E+02  0.39136380240E+03  0.44458471617E+03  0.17486991469E+03 0.  0.
        -24    2    3    3    0    0 -0.38096715231E+02  0.27691971818E+02  0.11202216564E+03  0.14576662049E+03  0.80503025026E+02 0.  0.
          6    2    1    2  501    0  0.10426075130E+03  0.55137579756E+02  0.88916882181E+03  0.91341584704E+03  0.17261766707E+03 0.  0.
         24    2    5    5    0    0  0.59975485783E+02 -0.36189457048E+02  0.39546398238E+03  0.40936389450E+03  0.79248350504E+02 0.  0.
          5    1    5    5  501    0  0.44285265521E+02  0.91327036804E+02  0.49370483942E+03  0.50405195255E+03  0.47000000000E+01 0. -1.
        -13    1    6    6    0    0  0.56244364288E+01  0.11215638856E+02  0.20994745259E+03  0.21032203330E+03  0.00000000000E+00 0.  1.
         14    1    6    6    0    0  0.54351049354E+02 -0.47405095905E+02  0.18551652979E+03  0.19904186120E+03  0.00000000000E+00 0. -1.
         -5    1    3    3    0  503 -0.66164036072E+02 -0.82829551573E+02  0.27934163676E+03  0.29881809568E+03  0.47000000000E+01 0.  1.
         11    1    4    4    0    0 -0.49650476607E+02  0.48416653873E+02  0.79285987199E+02  0.10533570129E+03  0.00000000000E+00 0. -1.
        -12    1    4    4    0    0  0.11553761376E+02 -0.20724682055E+02  0.32736178445E+02  0.40430919201E+02  0.00000000000E+00 0.  1.
</event>
<event>
12    1  0.8331241E-002  0.1788701E+03  0.7818608E-02  0.1168976E+00
         21   -1    0    0  501  502  0.00000000000E+00  0.00000000000E+00  0.68101054031E+02  0.68101054031E+02  0.00000000000E+00 0. -1.
         21   -1    0    0  502  503 -0.00000000000E+00 -0.00000000000E+00 -0.10198067464E+04  0.10198067464E+04  0.00000000000E+00 0. -1.
         -6    2    1    2    0  503  0.29008309783E+01 -0.48032114456E+02 -0.87542613614E+03  0.89345192988E+03  0.17195910075E+03 0.  0.
        -24    2    3    3    0    0  0.67896137143E+01 -0.41679333667E+02 -0.22147809601E+03  0.23944458310E+03  0.80609525826E+02 0.  0.
          6    2    1    2  501    0 -0.29008309783E+01  0.48032114456E+02 -0.76279556189E+02  0.19445587051E+03  0.17227598801E+03 0.  0.
         24    2    5    5    0    0 -0.60771277618E+02  0.29666662853E+02 -0.82519215147E+02  0.13324066202E+03  0.79814748501E+02 0.  0.
          5    1    5    5  501    0  0.57870446640E+02  0.18365451603E+02  0.62396589588E+01  0.61215208492E+02  0.47000000000E+01 0. -1.
        -13    1    6    6    0    0 -0.29096790569E+02 -0.26779742560E+02 -0.26142283173E+02  0.47404607398E+02  0.00000000000E+00 0.  1.
         14    1    6    6    0    0 -0.31674487049E+02  0.56446405414E+02 -0.56376931974E+02  0.85836054620E+02  0.00000000000E+00 0. -1.
         -5    1    3    3    0  503 -0.38887827359E+01 -0.63527807894E+01 -0.65394804013E+03  0.65400734679E+03  0.47000000000E+01 0.  1.
         11    1    4    4    0    0 -0.36513672458E+02 -0.16191324588E+02 -0.11415435785E+03  0.12094058328E+03  0.00000000000E+00 0. -1.
        -12    1    4    4    0    0  0.43303286172E+02 -0.25488009078E+02 -0.10732373816E+03  0.11850399981E+03  0.00000000000E+00 0.  1.
</event>
<event>
12    1  0.8331241E-002  0.2095325E+03  0.7818608E-02  0.1142061E+00
         21   -1    0    0  503  502  0.00000000000E+00  0.00000000000E+00  0.10547159171E+03  0.10547159171E+03  0.00000000000E+00 0.  1.
         21   -1    0    0  501  503 -0.00000000000E+00 -0.00000000000E+00 -0.61726657652E+03  0.61726657652E+03  0.00000000000E+00 0.  1.
          6    2    1    2  501    0  0.97150090833E-01  0.12000192377E+03 -0.46248959604E+03  0.50748272067E+03  0.17100179587E+03 0.  0.
         24    2    3    3    0    0  0.58784820691E+02  0.51432018655E+02 -0.20144517627E+03  0.23123581361E+03  0.82394992369E+02 0.  0.
         -6    2    1    2    0  502 -0.97150090833E-01 -0.12000192377E+03 -0.49305388766E+02  0.21525544756E+03  0.17176558211E+03 0.  0.
        -24    2    5    5    0    0  0.30077036003E+01  0.10974680260E+02 -0.20750785597E+02  0.81084041214E+02  0.77553444469E+02 0.  0.
          5    1    3    3  501    0 -0.58687670600E+02  0.68569905114E+02 -0.26104441977E+03  0.27624690706E+03  0.47000000000E+01 0. -1.
        -13    1    4    4    0    0 -0.16269205302E+02  0.24856745316E+02 -0.30079612951E+02  0.42276801489E+02  0.00000000000E+00 0.  1.
         14    1    4    4    0    0  0.75054025992E+02  0.26575273339E+02 -0.17136556331E+03  0.18895901212E+03  0.00000000000E+00 0. -1.
         -5    1    5    5    0  502 -0.31048536911E+01 -0.13097660403E+03 -0.28554603169E+02  0.13417140635E+03  0.47000000000E+01 0.  1.
         11    1    6    6    0    0 -0.34136765506E+02  0.20588791805E+02 -0.13082450106E+02  0.41956734954E+02  0.00000000000E+00 0. -1.
        -12    1    6    6    0    0  0.37144469106E+02 -0.96141115455E+01 -0.76683354910E+01  0.39127306260E+02  0.00000000000E+00 0.  1.
</event>
<event>
12    1  0.8331241E-002  0.1995168E+03  0.7818608E-02  0.1150340E+00
         21   -1    0    0  501  502  0.00000000000E+00  0.00000000000E+00  0.49333028945E+03  0.49333028945E+03  0.00000000000E+00 0. -1.
         21   -1    0    0  502  503 -0.00000000000E+00 -0.00000000000E+00 -0.12871391693E+03  0.12871391693E+03  0.00000000000E+00 0. -1.
         -6    2    1    2    0  503  0.10138927926E+03 -0.95918959637E+01  0.37275163955E+03  0.42236156974E+03  0.17051017678E+03 0.  0.
        -24    2    3    3    0    0 -0.15516119550E+02 -0.24555320016E+01  0.13501419007E+03  0.15729745514E+03  0.79163617087E+02 0.  0.
          6    2    1    2  501    0 -0.10138927926E+03  0.95918959637E+01 -0.81352670311E+01  0.19968263663E+03  0.17156684524E+03 0.  0.
         24    2    5    5    0    0  0.89892224799E+01  0.29499010217E+02 -0.54065787052E+01  0.87391752834E+02  0.81590989978E+02 0.  0.
          5    1    5    5  501    0 -0.11037850174E+03 -0.19907114253E+02 -0.27286883259E+01  0.11229088380E+03  0.47000000000E+01 0. -1.
        -11    1    6    6    0    0  0.32949801695E+02 -0.88682508964E+01  0.15597993973E+02  0.37518431759E+02  0.00000000000E+00 0.  1.
         12    1    6    6    0    0 -0.23960579215E+02  0.38367261113E+02 -0.21004572679E+02  0.49873321075E+02  0.00000000000E+00 0. -1.
         -5    1    3    3    0  503  0.11690539881E+03 -0.71363639621E+01  0.23773744948E+03  0.26506411460E+03  0.47000000000E+01 0.  1.
         11    1    4    4    0    0  0.29524013198E+02 -0.93476577655E+01  0.31375149299E+02  0.44084533054E+02  0.00000000000E+00 0. -1.
        -12    1    4    4    0    0 -0.45040132748E+02  0.68921257639E+01  0.10363904077E+03  0.11321292209E+03  0.00000000000E+00 0.  1.
</event>
<event>
12    1  0.8331241E-002  0.2038924E+03  0.7818608E-02  0.1146711E+00
         21   -1    0    0  503  502  0.00000000000E+00  0.00000000000E+00  0.66735975847E+03  0.66735975847E+03  0.00000000000E+00 0.  1.
         21   -1    0    0  501  503 -0.00000000000E+00 -0.00000000000E+00 -0.13744937088E+03  0.13744937088E+03  0.00000000000E+00 0.  1.
          6    2    1    2  501    0  0.50006029913E+01 -0.10515394670E+03 -0.32926983893E+02  0.20653403065E+03  0.17461317536E+03 0.  0.
         24    2    3    3    0    0  0.66482048179E+00 -0.14489024293E+03 -0.65422817892E+01  0.15840903970E+03  0.63694567461E+02 0.  0.
         -6    2    1    2    0  502 -0.50006029913E+01  0.10515394670E+03  0.56283737148E+03  0.59827509870E+03  0.17339212339E+03 0.  0.
        -24    2    5    5    0    0  0.16959298333E+02  0.62551695240E+02  0.15124236409E+03  0.18387224012E+03  0.82063485253E+02 0.  0.
          5    1    3    3  501    0  0.43357825095E+01  0.39736296233E+02 -0.26384702104E+02  0.48124990945E+02  0.47000000000E+01 0. -1.
        -13    1    4    4    0    0 -0.20437486007E+02 -0.12165353801E+02 -0.29772386641E+01  0.23969785511E+02  0.00000000000E+00 0.  1.
         14    1    4    4    0    0  0.21102306489E+02 -0.13272488913E+03 -0.35650431251E+01  0.13443925419E+03  0.00000000000E+00 0. -1.
         -5    1    5    5    0  502 -0.21959901325E+02  0.42602251462E+02  0.41159500739E+03  0.41440285858E+03  0.47000000000E+01 0.  1.
         11    1    6    6    0    0  0.38937467035E+01 -0.15040316949E+02  0.26890446796E+01  0.15767160766E+02  0.00000000000E+00 0. -1.
        -12    1    6    6    0    0  0.13065551630E+02  0.77592012189E+02  0.14855331941E+03  0.16810507935E+03  0.00000000000E+00 0.  1.
</event>
<event>
12    1  0.8331241E-002  0.3217118E+03  0.7818608E-02  0.1074989E+00
         21   -1    0    0  503  502  0.00000000000E+00  0.00000000000E+00  0.13612307632E+04  0.13612307632E+04  0.00000000000E+00 0.  1.
         21   -1    0    0  501  503 -0.00000000000E+00 -0.00000000000E+00 -0.24451692697E+03  0.24451692697E+03  0.00000000000E+00 0.  1.
          6    2    1    2  501    0 -0.22527822112E+03 -0.15155886005E+03 -0.10890000713E+03  0.33861401053E+03  0.17052821352E+03 0.  0.
         24    2    3    3    0    0 -0.19687604212E+03 -0.18126160664E+03 -0.91713119042E+02  0.29382097482E+03  0.79394729273E+02 0.  0.
         -6    2    1    2    0  502  0.22527822112E+03  0.15155886005E+03  0.12256138434E+04  0.12671336797E+04  0.17256333351E+03 0.  0.
        -24    2    5    5    0    0  0.41702526333E+02  0.89898589627E+02  0.44955146761E+03  0.46726061113E+03  0.80094316703E+02 0.  0.
          5    1    3    3  501    0 -0.28402178998E+02  0.29702746588E+02 -0.17186888084E+02  0.44793035717E+02  0.47000000000E+01 0. -1.
        -11    1    4    4    0    0 -0.20127354385E+03 -0.16879553985E+03 -0.76352752974E+02  0.27355569198E+03  0.00000000000E+00 0.  1.
         12    1    4    4    0    0  0.43975017338E+01 -0.12466066785E+02 -0.15360366069E+02  0.20265282834E+02  0.00000000000E+00 0. -1.
         -5    1    5    5    0  502  0.18357569478E+03  0.61660270421E+02  0.77606237577E+03  0.79987306852E+03  0.47000000000E+01 0.  1.
         13    1    6    6    0    0  0.32499136340E+02  0.63802617610E+01  0.57952538710E+02  0.66748770370E+02  0.00000000000E+00 0. -1.
        -14    1    6    6    0    0  0.92033899923E+01  0.83518327866E+02  0.39159892890E+03  0.40051184076E+03  0.00000000000E+00 0.  1.
</event>
<event>
12    1  0.8331241E-002  0.1903217E+03  0.7818608E-02  0.1158231E+00
         21   -1    0    0  501  502  0.00000000000E+00  0.00000000000E+00  0.11372522750E+03  0.11372522750E+03  0.00000000000E+00 0. -1.
         21   -1    0    0  502  503 -0.00000000000E+00 -0.00000000000E+00 -0.69662624391E+03  0.69662624391E+03  0.00000000000E+00 0.  1.
         -6    2    1    2    0  503 -0.83059691228E+02  0.11413584519E+02 -0.59022615564E+03  0.62015261817E+03  0.17086009717E+03 0.  0.
        -24    2    3    3    0    0 -0.12248005136E+02 -0.41604243019E+02 -0.40009287616E+03  0.41039576157E+03  0.80432859555E+02 0.  0.
          6    2    1    2  501    0  0.83059691228E+02 -0.11413584519E+02  0.73251392223E+01  0.19019885325E+03  0.17056601037E+03 0.  0.
         24    2    5    5    0    0 -0.25797251125E+01 -0.44366641699E+02 -0.15876198393E+02  0.95433850867E+02  0.82948853751E+02 0.  0.
          5    1    5    5  501    0  0.85639416341E+02  0.32953057180E+02  0.23201337616E+02  0.94765002379E+02  0.47000000000E+01 0. -1.
        -13    1    6    6    0    0 -0.40880362663E+01 -0.60152209416E+02  0.13742487638E+02  0.61837337464E+02  0.00000000000E+00 0.  1.
         14    1    6    6    0    0  0.15083111537E+01  0.15785567717E+02 -0.29618686031E+02  0.33596513403E+02  0.00000000000E+00 0. -1.
         -5    1    3    3    0  503 -0.70811686092E+02  0.53017827539E+02 -0.19013327948E+03  0.20975685660E+03  0.47000000000E+01 0.  1.
         13    1    4    4    0    0 -0.67310752292E+01 -0.65762967547E+02 -0.27103881940E+03  0.27898408000E+03  0.00000000000E+00 0. -1.
        -14    1    4    4    0    0 -0.55169299067E+01  0.24158724528E+02 -0.12905405676E+03  0.13141168157E+03  0.00000000000E+00 0.  1.
</event>
<event>
12    1  0.8331241E-002  0.2061062E+03  0.7818608E-02  0.1144755E+00
         21   -1    0    0  503  502  0.00000000000E+00  0.00000000000E+00  0.28094841750E+03  0.28094841750E+03  0.00000000000E+00 0. -1.
         21   -1    0    0  501  503 -0.00000000000E+00 -0.00000000000E+00 -0.63971580600E+03  0.63971580600E+03  0.00000000000E+00 0. -1.
          6    2    1    2  501    0  0.60393010646E+02 -0.95787923595E+02 -0.58171918488E+03  0.61704068435E+03  0.17181197293E+03 0.  0.
         24    2    3    3    0    0  0.14519694472E+02 -0.12668848083E+03 -0.39510449148E+03  0.42234518012E+03  0.77505479028E+02 0.  0.
         -6    2    1    2    0  502 -0.60393010646E+02  0.95787923595E+02  0.22295179637E+03  0.30362353915E+03  0.17221239206E+03 0.  0.
        -24    2    5    5    0    0 -0.14251038973E+02  0.47686375373E+01  0.16863459019E+03  0.18792548009E+03  0.81563037226E+02 0.  0.
          5    1    3    3  501    0  0.45873316174E+02  0.30900557234E+02 -0.18661469340E+03  0.19469550423E+03  0.47000000000E+01 0. -1.
        -11    1    4    4    0    0 -0.28907586674E+02 -0.23587736914E+02 -0.10314609770E+03  0.10968658701E+03  0.00000000000E+00 0.  1.
         12    1    4    4    0    0  0.43427281146E+02 -0.10310074392E+03 -0.29195839378E+03  0.31265859310E+03  0.00000000000E+00 0. -1.
         -5    1    5    5    0  502 -0.46141971673E+02  0.91019286058E+02  0.54317206184E+02  0.11569805907E+03  0.47000000000E+01 0.  1.
         13    1    6    6    0    0  0.29772736005E+02  0.17689560066E+02  0.50873431697E+02  0.61542200133E+02  0.00000000000E+00 0. -1.
        -14    1    6    6    0    0 -0.44023774978E+02 -0.12920922529E+02  0.11776115849E+03  0.12638327995E+03  0.00000000000E+00 0.  1.
</event>
<event>
12    1  0.8331241E-002  0.1932352E+03  0.7818608E-02  0.1155837E+00
         21   -1    0    0  501  502  0.00000000000E+00  0.00000000000E+00  0.96210244031E+02  0.96210244031E+02  0.00000000000E+00 0. -1.
         21   -1    0    0  502  503 -0.00000000000E+00 -0.00000000000E+00 -0.48852654175E+03  0.48852654175E+03  0.00000000000E+00 0. -1.
         -6    2    1    2    0  503 -0.75779471679E+02 -0.44579246209E+02 -0.33074506905E+03  0.38305633108E+03  0.17207560712E+03 0.  0.
        -24    2    3    3    0    0 -0.98681565024E+02 -0.63713136856E+02 -0.18741406385E+03  0.23657602967E+03  0.83945049905E+02 0.  0.
          6    2    1    2  501    0  0.75779471679E+02  0.44579246209E+02 -0.61571228671E+02  0.20168045469E+03  0.17074586989E+03 0.  0.
         24    2    5    5    0    0  0.56232492289E+02 -0.35096909223E+02 -0.51775153258E+02  0.11892522984E+03  0.84075308924E+02 0.  0.
          5    1    5    5  501    0  0.19546979390E+02  0.79676155432E+02 -0.97960754122E+01  0.82755224857E+02  0.47000000000E+01 0. -1.
        -13    1    6    6    0    0 -0.86273804332E+01 -0.36026598450E+02 -0.37081077889E+02  0.52415206061E+02  0.00000000000E+00 0.  1.
         14    1    6    6    0    0  0.64859872722E+02  0.92968922742E+00 -0.14694075370E+02  0.66510023775E+02  0.00000000000E+00 0. -1.
         -5    1    3    3    0  503  0.22902093345E+02  0.19133890647E+02 -0.14333100520E+03  0.14648030141E+03  0.47000000000E+01 0.  1.
         13    1    4    4    0    0 -0.54214888614E+02 -0.74093767359E+02 -0.87985686353E+02  0.12716375864E+03  0.00000000000E+00 0. -1.
        -14    1    4    4    0    0 -0.44466676410E+02  0.10380630504E+02 -0.99428377493E+02  0.10941227103E+03  0.00000000000E+00 0.  1.
</event>
<event>
12    1  0.8331241E-002  0.1843127E+03  0.7818608E-02  0.1163796E+00
         21   -1    0    0  501  502  0.00000000000E+00  0.00000000000E+00  0.44635376830E+03  0.44635376830E+03  0.00000000000E+00 0. -1.
         21   -1    0    0  502  503 -0.00000000000E+00 -0.00000000000E+00 -0.13263333660E+03  0.13263333660E+03  0.00000000000E+00 0. -1.
         -6    2    1    2    0  503 -0.18116159595E+02  0.64662412910E+02 -0.32321591930E+02  0.18712521210E+03  0.17164421579E+03 0.  0.
        -24    2    3    3    0    0 -0.57764569994E+02  0.45794985254E+01 -0.52192751912E+02  0.11229937400E+03  0.80804385369E+02 0.  0.
          6    2    1    2  501    0  0.18116159595E+02 -0.64662412910E+02  0.34604202363E+03  0.39186189281E+03  0.17117604398E+03 0.  0.
         24    2    5    5    0    0 -0.16406639810E+02 -0.68210518281E+02  0.10510599282E+03  0.14839387915E+03  0.77792165470E+02 0.  0.
          5    1    5    5  501    0  0.34522799405E+02  0.35481053718E+01  0.24093603081E+03  0.24346801366E+03  0.47000000000E+01 0. -1.
        -13    1    6    6    0    0  0.13560124033E+02 -0.96363012447E+01 -0.72850982853E+01  0.18160614596E+02  0.00000000000E+00 0.  1.
         14    1    6    6    0    0 -0.29966763843E+02 -0.58574217037E+02  0.11239109110E+03  0.13023326455E+03  0.00000000000E+00 0. -1.
         -5    1    3    3    0  503  0.39648410398E+02  0.60082914384E+02  0.19871159981E+02  0.74825838098E+02  0.47000000000E+01 0.  1.
         13    1    4    4    0    0  0.24910147236E+01  0.32754802511E+02 -0.19202370930E+02  0.38050141803E+02  0.00000000000E+00 0. -1.
        -14    1    4    4    0    0 -0.60255584717E+02 -0.28175303985E+02 -0.32990380982E+02  0.74249232195E+02  0.00000000000E+00 0.  1.
</event>
<event>
12    1  0.8331241E-002  0.2101798E+03  0.7818608E-02  0.1141882E+00
         21   -1    0    0  501  502  0.00000000000E+00  0.00000000000E+00  0.95089420471E+03  0.95089420471E+03  0.00000000000E+00 0. -1.
         21   -1    0    0  502  503 -0.00000000000E+00 -0.00000000000E+00 -0.10799043001E+03  0.10799043001E+03  0.00000000000E+00 0. -1.
         -6    2    1    2    0  503  0.74138322231E+02  0.90176387252E+02  0.21145257542E+02  0.21124075713E+03  0.17477775578E+03 0.  0.
        -24    2    3    3    0    0  0.26032871838E+02  0.11057259758E+03 -0.25995259444E+02  0.14071091880E+03  0.78865704865E+02 0.  0.
          6    2    1    2  501    0 -0.74138322231E+02 -0.90176387252E+02  0.82175851716E+03  0.84764387758E+03  0.17200235764E+03 0.  0.
         24    2    5    5    0    0 -0.40163496486E+01 -0.10094386506E+03  0.53678161056E+03  0.55393150652E+03  0.92194476656E+02 0.  0.
          5    1    5    5  501    0 -0.70121972583E+02  0.10767477808E+02  0.28497690660E+03  0.29371237106E+03  0.47000000000E+01 0. -1.
        -11    1    6    6    0    0  0.35383118795E+02 -0.24849944785E+02  0.27773281928E+03  0.28107828760E+03  0.00000000000E+00 0.  1.
         12    1    6    6    0    0 -0.39399468443E+02 -0.76093920275E+02  0.25904879128E+03  0.27285321893E+03  0.00000000000E+00 0. -1.
         -5    1    3    3    0  503  0.48105450393E+02 -0.20396210332E+02  0.47140516986E+02  0.70529838332E+02  0.47000000000E+01 0.  1.
         13    1    4    4    0    0  0.15831280363E+01  0.18182353702E+02 -0.40144475423E+02  0.44098562193E+02  0.00000000000E+00 0. -1.
        -14    1    4    4    0    0  0.24449743802E+02  0.92390243883E+02  0.14149215979E+02  0.96612356609E+02  0.00000000000E+00 0.  1.
</event>
<event>
12    1  0.8331241E-002  0.2034236E+03  0.7818608E-02  0.1149213E+00
         21   -1    0    0  501  502  0.00000000000E+00  0.00000000000E+00  0.24160573043E+03  0.24160573043E+03  0.00000000000E+00 0.  1.
         21   -1    0    0  502  503 -0.00000000000E+00 -0.00000000000E+00 -0.17352193404E+03  0.17352193404E+03  0.00000000000E+00 0.  1.
         -6    2    1    2    0  503  0.53372077321E+02  0.66335136749E+02 -0.18151840156E+02  0.20423181748E+03  0.18474906486E+03 0.  0.
        -24    2    3    3    0    0  0.97561196690E+02  0.62160627469E+02  0.24121587575E+02  0.14275631431E+03  0.80096089667E+02 0.  0.
          6    2    1    2  501    0 -0.53372077321E+02 -0.66335136749E+02  0.86235636550E+02  0.21089584700E+03  0.17260227190E+03 0.  0.
         24    2    5    5    0    0 -0.46802812055E+02  0.18341540355E+02  0.82356579137E+02  0.12574637854E+03  0.80638888077E+02 0.  0.
          5    1    5    5  501    0 -0.65692652658E+01 -0.84676677104E+02  0.38790574133E+01  0.85149468454E+02  0.47000000000E+01 0. -1.
        -13    1    6    6    0    0  0.43011427587E+01 -0.12864499634E+02 -0.91697719731E+01  0.16373145633E+02  0.00000000000E+00 0.  1.
         14    1    6    6    0    0 -0.51103954814E+02  0.31206039989E+02  0.91526351110E+02  0.10937323291E+03  0.00000000000E+00 0. -1.
         -5    1    3    3    0  503 -0.44189119369E+02  0.41745092796E+01 -0.42273427731E+02  0.61475503174E+02  0.47000000000E+01 0.  1.
         11    1    4    4    0    0  0.74848299684E+02  0.31559263003E+01 -0.47187600746E+00  0.74916289973E+02  0.00000000000E+00 0. -1.
        -12    1    4    4    0    0  0.22712897006E+02  0.59004701169E+02  0.24593463582E+02  0.67840024333E+02  0.00000000000E+00 0.  1.
</event>
<event>
12    1  0.8331241E-002  0.1931899E+03  0.7818608E-02  0.1155933E+00
         21   -1    0    0  503  502  0.00000000000E+00  0.00000000000E+00  0.25311979735E+02  0.25311979735E+02  0.00000000000E+00 0. -1.
         21   -1    0    0  501  503 -0.00000000000E+00 -0.00000000000E+00 -0.15769468972E+04  0.15769468972E+04  0.00000000000E+00 0. -1.
          6    2    1    2  501    0  0.35698374272E+02  0.81115167235E+02 -0.55833994060E+03  0.59035114367E+03  0.17004981414E+03 0.  0.
         24    2    3    3    0    0 -0.30898017467E+02  0.84203042885E+02 -0.24998984322E+03  0.27484125964E+03  0.70696226020E+02 0.  0.
         -6    2    1    2    0  502 -0.35698374272E+02 -0.81115167235E+02 -0.99329497684E+03  0.10119077332E+04  0.17166334869E+03 0.  0.
        -24    2    5    5    0    0 -0.77543084355E+02 -0.13802598327E+02 -0.57614790422E+03  0.58727173394E+03  0.82086785198E+02 0.  0.
          5    1    3    3  501    0  0.66596391739E+02 -0.30878756500E+01 -0.30835009738E+03  0.31550988403E+03  0.47000000000E+01 0. -1.
        -11    1    4    4    0    0  0.38205109433E+01 -0.11648344785E+02 -0.26521730090E+02  0.29217843984E+02  0.00000000000E+00 0.  1.
         12    1    4    4    0    0 -0.34718528410E+02  0.95851387670E+02 -0.22346811313E+03  0.24562341565E+03  0.00000000000E+00 0. -1.
         -5    1    5    5    0  502  0.41844710084E+02 -0.67312568908E+02 -0.41714707263E+03  0.42463599929E+03  0.47000000000E+01 0.  1.
         11    1    6    6    0    0 -0.58695849146E+02 -0.21605827683E+02 -0.17922894897E+03  0.18982895102E+03  0.00000000000E+00 0. -1.
        -12    1    6    6    0    0 -0.18847235210E+02  0.78032293563E+01 -0.39691895524E+03  0.39744278292E+03  0.00000000000E+00 0.  1.
</event>
<event>
12    1  0.8331241E-002  0.2461231E+03  0.7818608E-02  0.1116175E+00
         21   -1    0    0  503  502  0.00000000000E+00  0.00000000000E+00  0.63033557226E+03  0.63033557226E+03  0.00000000000E+00 0.  1.
         21   -1    0    0  501  503 -0.00000000000E+00 -0.00000000000E+00 -0.95664153954E+02  0.95664153954E+02  0.00000000000E+00 0. -1.
          6    2    1    2  501    0 -0.10563627665E+03 -0.13794701366E+03  0.23944835655E+03  0.34163891943E+03  0.17086027710E+03 0.  0.
         24    2    3    3    0    0 -0.29349538821E+02 -0.13476605452E+03  0.13986615984E+03  0.21606627603E+03  0.89993378016E+02 0.  0.
         -6    2    1    2    0  502  0.10563627665E+03  0.13794701366E+03  0.29522306176E+03  0.38436080679E+03  0.17432203555E+03 0.  0.
        -24    2    5    5    0    0  0.12008196786E+03  0.13968318883E+03  0.18624971473E+03  0.27432002952E+03  0.81433716062E+02 0.  0.
          5    1    3    3  501    0 -0.76286737829E+02 -0.31809591392E+01  0.99582196704E+02  0.12557264340E+03  0.47000000000E+01 0. -1.
        -13    1    4    4    0    0 -0.35396920652E+01 -0.19016122248E+02  0.81735255087E+02  0.83992822606E+02  0.00000000000E+00 0.  1.
         14    1    4    4    0    0 -0.25809846756E+02 -0.11574993227E+03  0.58130904757E+02  0.13207345342E+03  0.00000000000E+00 0. -1.
         -5    1    5    5    0  502 -0.14445691214E+02 -0.17361751699E+01  0.10897334703E+03  0.11004077727E+03  0.47000000000E+01 0.  1.
         13    1    6    6    0    0  0.80307372629E+02  0.61699757912E+02  0.51458314840E+02  0.11359618123E+03  0.00000000000E+00 0. -1.
        -14    1    6    6    0    0  0.39774595235E+02  0.77983430917E+02  0.13479139989E+03  0.16072384828E+03  0.00000000000E+00 0.  1.
</event>
<event>
12    1  0.8331241E-002  0.2208155E+03  0.7818608E-02  0.1133299E+00
         21   -1    0    0  503  502  0.00000000000E+00  0.00000000000E+00  0.53037622839E+02  0.53037622839E+02  0.00000000000E+00 0. -1.
         21   -1    0    0  501  503 -0.00000000000E+00 -0.00000000000E+00 -0.15365325975E+04  0.15365325975E+04  0.00000000000E+00 0.  1.
          6    2    1    2  501    0  0.24684325943E+02 -0.13498668975E+03 -0.12457935932E+04  0.12652119076E+04  0.17299934064E+03 0.  0.
         24    2    3    3    0    0  0.21933797158E+02 -0.15012819398E+01 -0.33523056543E+03  0.34490052710E+03  0.78060849889E+02 0.  0.
         -6    2    1    2    0  502 -0.24684325943E+02  0.13498668975E+03 -0.23770138140E+03  0.32435831270E+03  0.17284572873E+03 0.  0.
        -24    2    5    5    0    0 -0.16067379204E+02  0.84680569341E+01 -0.37749715365E+02  0.87537758333E+02  0.76863186645E+02 0.  0.
          5    1    3    3  501    0  0.27505287848E+01 -0.13348540781E+03 -0.91056302780E+03  0.92031138051E+03  0.47000000000E+01 0. -1.
        -13    1    4    4    0    0 -0.25018413853E+02  0.17244891166E+02 -0.11566616352E+03  0.11959083864E+03  0.00000000000E+00 0.  1.
         14    1    4    4    0    0  0.46952211012E+02 -0.18746173105E+02 -0.21956440191E+03  0.22530968845E+03  0.00000000000E+00 0. -1.
         -5    1    5    5    0  502 -0.86169467395E+01  0.12651863282E+03 -0.19995166604E+03  0.23682055437E+03  0.47000000000E+01 0.  1.
         13    1    6    6    0    0 -0.24383876805E+02  0.38225252909E+02 -0.33446778609E+02  0.56342083803E+02  0.00000000000E+00 0. -1.
        -14    1    6    6    0    0  0.83164976012E+01 -0.29757195975E+02 -0.43029367565E+01  0.31195674530E+02  0.00000000000E+00 0.  1.
</event>
<event>
12    1  0.8331241E-002  0.2253401E+03  0.7818608E-02  0.1130058E+00
         21   -1    0    0  503  502  0.00000000000E+00  0.00000000000E+00  0.26363751306E+02  0.26363751306E+02  0.00000000000E+00 0.  1.
         21   -1    0    0  501  503 -0.00000000000E+00 -0.00000000000E+00 -0.19984981795E+04  0.19984981795E+04  0.00000000000E+00 0. -1.
          6    2    1    2  501    0 -0.12040512969E+03 -0.84001657135E+02 -0.78631803175E+03  0.81782478335E+03  0.17025761521E+03 0.  0.
         24    2    3    3    0    0 -0.44872190221E+02  0.16443574030E+02 -0.44463688931E+03  0.45373336281E+03  0.76733933861E+02 0.  0.
         -6    2    1    2    0  502  0.12040512969E+03  0.84001657135E+02 -0.11858163964E+04  0.12070371474E+04  0.17095167629E+03 0.  0.
        -24    2    5    5    0    0  0.93202648514E+02  0.14047042500E+02 -0.98103713950E+03  0.98888523442E+03  0.81093061841E+02 0.  0.
          5    1    3    3  501    0 -0.75532939471E+02 -0.10044523117E+03 -0.34168114244E+03  0.36409142054E+03  0.47000000000E+01 0. -1.
        -11    1    4    4    0    0 -0.40295526341E+02 -0.11420066538E+02 -0.10680386713E+03  0.11472233172E+03  0.00000000000E+00 0.  1.
         12    1    4    4    0    0 -0.45766638800E+01  0.27863640568E+02 -0.33783302219E+03  0.33901103109E+03  0.00000000000E+00 0. -1.
         -5    1    5    5    0  502  0.27202481178E+02  0.69954614635E+02 -0.20477925692E+03  0.21815191303E+03  0.47000000000E+01 0.  1.
         11    1    6    6    0    0  0.10578942953E+03  0.83138293331E+00 -0.85925034697E+03  0.86573855948E+03  0.00000000000E+00 0. -1.
        -12    1    6    6    0    0 -0.12586781017E+02  0.13215659567E+02 -0.12178679253E+03  0.12314667494E+03  0.00000000000E+00 0.  1.
</event>
<event>
12    1  0.8331241E-002  0.2277997E+03  0.7818608E-02  0.1128298E+00
         21   -1    0    0  501  502  0.00000000000E+00  0.00000000000E+00  0.15734784489E+03  0.15734784489E+03  0.00000000000E+00 0. -1.
         21   -1    0    0  502  503 -0.00000000000E+00 -0.00000000000E+00 -0.32903599410E+03  0.32903599410E+03  0.00000000000E+00 0. -1.
         -6    2    1    2    0  503  0.29920866445E+02 -0.14645617256E+03 -0.88685705907E+02  0.24393359104E+03  0.17115423942E+03 0.  0.
        -24    2    3    3    0    0 -0.14149152610E+02 -0.16187574697E+03 -0.70489207975E+02  0.19360335767E+03  0.78163774746E+02 0.  0.
          6    2    1    2  501    0 -0.29920866445E+02  0.14645617256E+03 -0.83002443300E+02  0.24245024795E+03  0.17189545778E+03 0.  0.
         24    2    5    5    0    0 -0.57857479730E+02  0.23708166316E+02 -0.30417258641E+02  0.10594083785E+03  0.79929258666E+02 0.  0.
          5    1    5    5  501    0  0.27936613285E+02  0.12274800625E+03 -0.52585184659E+02  0.13650941010E+03  0.47000000000E+01 0. -1.
        -11    1    6    6    0    0 -0.34475001074E+02  0.47817468595E+02  0.23803126646E+01  0.58997473592E+02  0.00000000000E+00 0.  1.
         12    1    6    6    0    0 -0.23382478656E+02 -0.24109302280E+02 -0.32797571306E+02  0.46943364260E+02  0.00000000000E+00 0. -1.
         -5    1    3    3    0  503  0.44070019055E+02  0.15419574402E+02 -0.18196497932E+02  0.50330233372E+02  0.47000000000E+01 0.  1.
         11    1    4    4    0    0  0.28992103884E+02 -0.96951196582E+02 -0.50679392779E+02  0.11317454422E+03  0.00000000000E+00 0. -1.
        -12    1    4    4    0    0 -0.43141256494E+02 -0.64924550385E+02 -0.19809815196E+02  0.80428813448E+02  0.00000000000E+00 0.  1.
</event>
<event>
12    1  0.8331241E-002  0.1944125E+03  0.7818608E-02  0.1154890E+00
         21   -1    0    0  503  502  0.00000000000E+00  0.00000000000E+00  0.16204776483E+03  0.16204776483E+03  0.00000000000E+00 0. -1.
         21   -1    0    0  501  503 -0.00000000000E+00 -0.00000000000E+00 -0.87097475644E+03  0.87097475644E+03  0.00000000000E+00 0.  1.
          6    2    1    2  501    0 -0.29848607633E+02  0.83193423644E+02 -0.79748101978E+03  0.82083627511E+03  0.17315925763E+03 0.  0.
         24    2    3    3    0    0 -0.61389526021E+02  0.35958645431E+02 -0.69140732607E+03  0.70042169001E+03  0.86514479774E+02 0.  0.
         -6    2    1    2    0  502  0.29848607633E+02 -0.83193423644E+02  0.88554028171E+02  0.21218624617E+03  0.17137415804E+03 0.  0.
        -24    2    5    5    0    0 -0.19591471551E+02 -0.62733861518E+02  0.11321296212E+03  0.15308406232E+03  0.79361150489E+02 0.  0.
          5    1    3    3  501    0  0.31540918388E+02  0.47234778213E+02 -0.10607369372E+03  0.12041458510E+03  0.47000000000E+01 0. -1.
        -11    1    4    4    0    0 -0.79874691287E+01  0.36933995229E+02 -0.10510278056E+03  0.11168936452E+03  0.00000000000E+00 0.  1.
         12    1    4    4    0    0 -0.53402056892E+02 -0.97534979826E+00 -0.58630454551E+03  0.58873232549E+03  0.00000000000E+00 0. -1.
         -5    1    5    5    0  502  0.49440079184E+02 -0.20459562126E+02 -0.24658933946E+02  0.59102183847E+02  0.47000000000E+01 0.  1.
         13    1    6    6    0    0  0.67886805197E+01 -0.67192292704E+02  0.10545736273E+03  0.12522837432E+03  0.00000000000E+00 0. -1.
        -14    1    6    6    0    0 -0.26380152071E+02  0.44584311857E+01  0.77555993878E+01  0.27855687997E+02  0.00000000000E+00 0.  1.
</event>
<event>
12    1  0.8331241E-002  0.2063550E+03  0.7818608E-02  0.1144718E+00
         21   -1    0    0  503  502  0.00000000000E+00  0.00000000000E+00  0.57925237532E+03  0.57925237532E+03  0.00000000000E+00 0. -1.
         21   -1    0    0  501  503 -0.00000000000E+00 -0.00000000000E+00 -0.14023713301E+03  0.14023713301E+03  0.00000000000E+00 0.  1.
          6    2    1    2  501    0 -0.90551925000E+02 -0.68715998862E+02 -0.29712325008E+02  0.20734896569E+03  0.17084856363E+03 0.  0.
         24    2    3    3    0    0 -0.83420179525E+02  0.13988808211E+02 -0.27651407761E+02  0.12417875296E+03  0.86609175193E+02 0.  0.
         -6    2    1    2    0  502  0.90551925000E+02  0.68715998862E+02  0.46872756732E+03  0.51214054264E+03  0.17222329525E+03 0.  0.
        -24    2    5    5    0    0  0.80576407984E+02 -0.21764164460E+02  0.24574312333E+03  0.27124570426E+03  0.78856280910E+02 0.  0.
          5    1    3    3  501    0 -0.71317454754E+01 -0.82704807073E+02 -0.20609172461E+01  0.83170212735E+02  0.47000000000E+01 0. -1.
        -11    1    4    4    0    0 -0.27034808766E+02  0.25645725441E+02 -0.50049272343E+02  0.62398027056E+02  0.00000000000E+00 0.  1.
         12    1    4    4    0    0 -0.56385370759E+02 -0.11656917230E+02  0.22397864582E+02  0.61780725900E+02  0.00000000000E+00 0. -1.
         -5    1    5    5    0  502  0.99755170159E+01  0.90480163322E+02  0.22298444399E+03  0.24089483838E+03  0.47000000000E+01 0.  1.
         13    1    6    6    0    0  0.56545500035E+02 -0.27419159944E+01  0.22985465882E+03  0.23672362759E+03  0.00000000000E+00 0. -1.
        -14    1    6    6    0    0  0.24030907949E+02 -0.19022248466E+02  0.15888464514E+02  0.34522076678E+02  0.00000000000E+00 0.  1.
</event>
<event>
12    1  0.8331241E-002  0.1912702E+03  0.7818608E-02  0.1157802E+00
         21   -1    0    0  503  502  0.00000000000E+00  0.00000000000E+00  0.20798776674E+02  0.20798776674E+02  0.00000000000E+00 0.  1.
         21   -1    0    0  501  503 -0.00000000000E+00 -0.00000000000E+00 -0.20942673149E+04  0.20942673149E+04  0.00000000000E+00 0.  1.
          6    2    1    2  501    0 -0.26826238894E+02  0.73997537417E+02 -0.14769406937E+04  0.14892743577E+04  0.17432445921E+03 0.  0.
         24    2    3    3    0    0 -0.49196279142E+02  0.10734342888E+03 -0.13009688778E+04  0.13087181692E+04  0.79248596093E+02 0.  0.
         -6    2    1    2    0  502  0.26826238894E+02 -0.73997537417E+02 -0.59652784448E+03  0.62579173386E+03  0.17197250444E+03 0.  0.
        -24    2    5    5    0    0  0.10026495733E+02 -0.10519048462E+03 -0.31201798167E+03  0.33904588234E+03  0.80195515928E+02 0.  0.
          5    1    3    3  501    0  0.22370040248E+02 -0.33345891461E+02 -0.17597181597E+03  0.18055618847E+03  0.47000000000E+01 0. -1.
        -11    1    4    4    0    0 -0.29501492907E+02  0.53615767571E+02 -0.30344415548E+03  0.30955345921E+03  0.00000000000E+00 0.  1.
         12    1    4    4    0    0 -0.19694786235E+02  0.53727661308E+02 -0.99752472228E+03  0.99916471002E+03  0.00000000000E+00 0. -1.
         -5    1    5    5    0  502  0.16799743161E+02  0.31192947200E+02 -0.28450986281E+03  0.28674585151E+03  0.47000000000E+01 0.  1.
         13    1    6    6    0    0  0.13012592165E+00 -0.10922942510E+03 -0.30929454436E+03  0.32801554751E+03  0.00000000000E+00 0. -1.
        -14    1    6    6    0    0  0.98963698116E+01  0.40389404798E+01 -0.27234373146E+01  0.11030334830E+02  0.00000000000E+00 0.  1.
</event>
<event>
12    1  0.8331241E-002  0.2428803E+03  0.7818608E-02  0.1117986E+00
         21   -1    0    0  501  502  0.00000000000E+00  0.00000000000E+00  0.44510412100E+03  0.44510412100E+03  0.00000000000E+00 0.  1.
         21   -1    0    0  502  503 -0.00000000000E+00 -0.00000000000E+00 -0.15390063891E+03  0.15390063891E+03  0.00000000000E+00 0.  1.
         -6    2    1    2    0  503  0.15862794492E+03  0.64339217738E+02  0.33013493442E+02  0.24452923070E+03  0.17147097150E+03 0.  0.
        -24    2    3    3    0    0  0.12687298028E+03  0.10693250713E+03  0.77433521508E+01  0.18551028356E+03  0.82600191256E+02 0.  0.
          6    2    1    2  501    0 -0.15862794492E+03 -0.64339217738E+02  0.25818998864E+03  0.35447552921E+03  0.17230342632E+03 0.  0.
         24    2    5    5    0    0 -0.57581565042E+02  0.32475961144E+02  0.10097046774E+03  0.14394377981E+03  0.78450313616E+02 0.  0.
          5    1    5    5  501    0 -0.10104637988E+03 -0.96815178882E+02  0.15721952090E+03  0.21053174939E+03  0.47000000000E+01 0. -1.
        -13    1    6    6    0    0 -0.34848771692E+02 -0.13707961262E+02  0.80056096025E+02  0.88381692681E+02  0.00000000000E+00 0.  1.
         14    1    6    6    0    0 -0.22732793350E+02  0.46183922406E+02  0.20914371717E+02  0.55562087134E+02  0.00000000000E+00 0. -1.
         -5    1    3    3    0  503  0.31754964644E+02 -0.42593289395E+02  0.25270141291E+02  0.59018947144E+02  0.47000000000E+01 0.  1.
         11    1    4    4    0    0  0.62530435919E+02  0.79586699343E+02  0.39597016586E+02  0.10868312588E+03  0.00000000000E+00 0. -1.
        -12    1    4    4    0    0  0.64342544362E+02  0.27345807790E+02 -0.31853664435E+02  0.76827157676E+02  0.00000000000E+00 0.  1.
</event>
<event>
12    1  0.8331241E-002  0.3665013E+03  0.7818608E-02  0.1056102E+00
         21   -1    0    0  501  502  0.00000000000E+00  0.00000000000E+00  0.62107121691E+03  0.62107121691E+03  0.00000000000E+00 0.  1.
         21   -1    0    0  502  503 -0.00000000000E+00 -0.00000000000E+00 -0.23484088160E+03  0.23484088160E+03  0.00000000000E+00 0. -1.
         -6    2    1    2    0  503 -0.30022942624E+03  0.12040281788E+03  0.71398373323E+02  0.37275337221E+03  0.17091752938E+03 0.  0.
        -24    2    3    3    0    0 -0.14017421268E+03  0.82138228488E+02 -0.24503847432E+02  0.18222469685E+03  0.78802938545E+02 0.  0.
          6    2    1    2  501    0  0.30022942624E+03 -0.12040281788E+03  0.31483196198E+03  0.48315872629E+03  0.17230392790E+03 0.  0.
         24    2    5    5    0    0  0.15857377027E+03 -0.64363866993E+02  0.25879385622E+03  0.32077323377E+03  0.81442369142E+02 0.  0.
          5    1    5    5  501    0  0.14165565597E+03 -0.56038950885E+02  0.56038105766E+02  0.16238549252E+03  0.47000000000E+01 0. -1.
        -11    1    6    6    0    0  0.16446796308E+03 -0.71841997065E+02  0.25042221220E+03  0.30809457604E+03  0.00000000000E+00 0.  1.
         12    1    6    6    0    0 -0.58941928062E+01  0.74781300715E+01  0.83716440229E+01  0.12678657731E+02  0.00000000000E+00 0. -1.
         -5    1    3    3    0  503 -0.16005521356E+03  0.38264589390E+02  0.95902220755E+02  0.19052867536E+03  0.47000000000E+01 0.  1.
         13    1    4    4    0    0 -0.37854020718E+02  0.58391905191E+02  0.12803750819E+02  0.70756466216E+02  0.00000000000E+00 0. -1.
        -14    1    4    4    0    0 -0.10232019196E+03  0.23746323297E+02 -0.37307598252E+02  0.11146823063E+03  0.00000000000E+00 0.  1.
</event>
<event>
12    1  0.8331241E-002  0.4943900E+03  0.7818608E-02  0.1015278E+00
         21   -1    0    0  501  502  0.00000000000E+00  0.00000000000E+00  0.57719987196E+03  0.57719987196E+03  0.00000000000E+00 0. -1.
         21   -1    0    0  502  503 -0.00000000000E+00 -0.00000000000E+00 -0.42663522655E+03  0.42663522655E+03  0.00000000000E+00 0.  1.
         -6    2    1    2    0  503 -0.31552280050E+03 -0.33898065428E+03  0.29858778470E+02  0.49492309807E+03  0.17203140626E+03 0.  0.
        -24    2    3    3    0    0 -0.18539897060E+03 -0.29182521262E+03  0.35220341504E+02  0.35633491984E+03  0.78736075727E+02 0.  0.
          6    2    1    2  501    0  0.31552280050E+03  0.33898065428E+03  0.12070586695E+03  0.50891200044E+03  0.17308667269E+03 0.  0.
         24    2    5    5    0    0  0.82736452418E+02  0.61444277594E+02  0.14245878979E+02  0.13132526434E+03  0.80141500977E+02 0.  0.
          5    1    5    5  501    0  0.23278634809E+03  0.27753637668E+03  0.10645998797E+03  0.37758673610E+03  0.47000000000E+01 0. -1.
        -13    1    6    6    0    0 -0.14405944146E+02 -0.11738386452E+01  0.53349824707E+01  0.15406854380E+02  0.00000000000E+00 0.  1.
         14    1    6    6    0    0  0.97142396564E+02  0.62618116239E+02  0.89108965081E+01  0.11591840996E+03  0.00000000000E+00 0. -1.
         -5    1    3    3    0  503 -0.13012382991E+03 -0.47155441654E+02 -0.53615630335E+01  0.13858817823E+03  0.47000000000E+01 0.  1.
         11    1    4    4    0    0 -0.10888198528E+03 -0.99471621246E+02  0.18777284060E+02  0.14866901678E+03  0.00000000000E+00 0. -1.
        -12    1    4    4    0    0 -0.76516985313E+02 -0.19235359138E+03  0.16443057444E+02  0.20766590306E+03  0.00000000000E+00 0.  1.
</event>
<event>
12    1  0.8331241E-002  0.1730097E+03  0.7818608E-02  0.1174907E+00
         21   -1    0    0  501  502  0.00000000000E+00  0.00000000000E+00  0.98433826802E+02  0.98433826802E+02  0.00000000000E+00 0.  1.
         21   -1    0    0  502  503 -0.00000000000E+00 -0.00000000000E+00 -0.42285830884E+03  0.42285830884E+03  0.00000000000E+00 0.  1.
         -6    2    1    2    0  503 -0.13542227658E+02  0.59072731020E+01 -0.30078143811E+03  0.34667436651E+03  0.17174211796E+03 0.  0.
        -24    2    3    3    0    0 -0.14265354855E+01 -0.28408736506E+02 -0.58129666976E+02  0.10126379106E+03  0.77885851626E+02 0.  0.
          6    2    1    2  501    0  0.13542227658E+02 -0.59072731020E+01 -0.23643043933E+02  0.17461776913E+03  0.17237773628E+03 0.  0.
         24    2    5    5    0    0  0.57601664155E+02  0.33884179050E+02 -0.41611151249E+02  0.11241217059E+03  0.80242874361E+02 0.  0.
          5    1    5    5  501    0 -0.44059436497E+02 -0.39791452152E+02  0.17968107316E+02  0.62205598537E+02  0.47000000000E+01 0. -1.
        -11    1    6    6    0    0  0.67843695451E+02  0.12377128370E+02 -0.55407191236E+01  0.69185691350E+02  0.00000000000E+00 0.  1.
         12    1    6    6    0    0 -0.10242031296E+02  0.21507050680E+02 -0.36070432126E+02  0.43226479243E+02  0.00000000000E+00 0. -1.
         -5    1    3    3    0  503 -0.12115692172E+02  0.34316009608E+02 -0.24265177113E+03  0.24541057545E+03  0.47000000000E+01 0.  1.
         13    1    4    4    0    0  0.30775549578E+02  0.89511061739E+01 -0.32634866686E+02  0.45741570559E+02  0.00000000000E+00 0. -1.
        -14    1    4    4    0    0 -0.32202085063E+02 -0.37359842680E+02 -0.25494800289E+02  0.55522220500E+02  0.00000000000E+00 0.  1.
</event>
<event>
12    1  0.8331241E-002  0.1953101E+03  0.7818608E-02  0.1154321E+00
         21   -1    0    0  503  502  0.00000000000E+00  0.00000000000E+00  0.14051886325E+03  0.14051886325E+03  0.00000000000E+00 0.  1.
         21   -1    0    0  501  503 -0.00000000000E+00 -0.00000000000E+00 -0.26998022404E+03  0.26998022404E+03  0.00000000000E+00 0.  1.
          6    2    1    2  501    0 -0.75637004800E+02  0.41501284766E+02 -0.47145133923E+02  0.20091959612E+03  0.17522188025E+03 0.  0.
         24    2    3    3    0    0 -0.77111846966E+01 -0.39840078756E+02 -0.20396806943E+02  0.91521710158E+02  0.79457532381E+02 0.  0.
         -6    2    1    2    0  502  0.75637004800E+02 -0.41501284766E+02 -0.82316226864E+02  0.20957949117E+03  0.17234932196E+03 0.  0.
        -24    2    5    5    0    0  0.16000647902E+02 -0.10430558073E+02 -0.11030875905E+03  0.13658937554E+03  0.78254826758E+02 0.  0.
          5    1    3    3  501    0 -0.67925820103E+02  0.81341363522E+02 -0.26748326980E+02  0.10939788596E+03  0.47000000000E+01 0. -1.
        -11    1    4    4    0    0 -0.42104398800E+02 -0.12041191561E+02 -0.26557158381E+01  0.43872810704E+02  0.00000000000E+00 0.  1.
         12    1    4    4    0    0  0.34393214103E+02 -0.27798887194E+02 -0.17741091104E+02  0.47648899454E+02  0.00000000000E+00 0. -1.
         -5    1    5    5    0  502  0.59636356898E+02 -0.31070726694E+02  0.27992532188E+02  0.72990115630E+02  0.47000000000E+01 0.  1.
         13    1    6    6    0    0 -0.10600365721E+02  0.30125188998E+02 -0.40259422423E+02  0.51387896040E+02  0.00000000000E+00 0. -1.
        -14    1    6    6    0    0  0.26601013622E+02 -0.40555747071E+02 -0.70049336630E+02  0.85201479497E+02  0.00000000000E+00 0.  1.
</event>
<event>
12    1  0.8331241E-002  0.2102170E+03  0.7818608E-02  0.1141626E+00
         21   -1    0    0  503  502  0.00000000000E+00  0.00000000000E+00  0.14509622423E+04  0.14509622423E+04  0.00000000000E+00 0.  1.
         21   -1    0    0  501  503 -0.00000000000E+00 -0.00000000000E+00 -0.10155195090E+03  0.10155195090E+03  0.00000000000E+00 0.  1.
          6    2    1    2  501    0 -0.45868200748E+02 -0.10949954637E+03  0.23866662347E+02  0.21040499067E+03  0.17206568522E+03 0.  0.
         24    2    3    3    0    0 -0.46863527033E+02 -0.32986538413E+02 -0.45566945818E+02  0.10697217671E+03  0.77989731090E+02 0.  0.
         -6    2    1    2    0  502  0.45868200748E+02  0.10949954637E+03  0.13255436290E+04  0.13421092025E+04  0.17348532077E+03 0.  0.
        -24    2    5    5    0    0  0.46837600899E+02 -0.50387564875E+01  0.70391747630E+03  0.71000072582E+03  0.79887841961E+02 0.  0.
          5    1    3    3  501    0  0.99532628439E+00 -0.76513007961E+02  0.69433608165E+02  0.10343281396E+03  0.47000000000E+01 0. -1.
        -13    1    4    4    0    0  0.28759019398E+01 -0.98909724401E+01 -0.50845892984E+02  0.51878771970E+02  0.00000000000E+00 0.  1.
         14    1    4    4    0    0 -0.49739428972E+02 -0.23095565973E+02  0.52789471665E+01  0.55093404735E+02  0.00000000000E+00 0. -1.
         -5    1    5    5    0  502 -0.96940015092E+00  0.11453830286E+03  0.62162615273E+03  0.63210847670E+03  0.47000000000E+01 0.  1.
         11    1    6    6    0    0 -0.21465117816E+02 -0.29973784458E+01  0.25408156027E+03  0.25500426433E+03  0.00000000000E+00 0. -1.
        -12    1    6    6    0    0  0.68302718715E+02 -0.20413780417E+01  0.44983591603E+03  0.45499646148E+03  0.00000000000E+00 0.  1.
</event>
<event>
12    1  0.8331241E-002  0.2127418E+03  0.7818608E-02  0.1140181E+00
         21   -1    0    0  501  502  0.00000000000E+00  0.00000000000E+00  0.30330775967E+02  0.30330775967E+02  0.00000000000E+00 0.  1.
         21   -1    0    0  502  503 -0.00000000000E+00 -0.00000000000E+00 -0.15756393404E+04  0.15756393404E+04  0.00000000000E+00 0.  1.
         -6    2    1    2    0  503 -0.11482986187E+03  0.40264781894E+02 -0.97884805889E+03  0.10008779187E+04  0.16972311528E+03 0.  0.
        -24    2    3    3    0    0  0.52437787852E+01 -0.21340270104E+01 -0.35329202967E+03  0.36247540155E+03  0.80877111808E+02 0.  0.
          6    2    1    2  501    0  0.11482986187E+03 -0.40264781894E+02 -0.56646050551E+03  0.60509219766E+03  0.17450476649E+03 0.  0.
         24    2    5    5    0    0  0.10462174215E+03 -0.44400935648E+02 -0.23686677263E+03  0.27528099071E+03  0.82198563573E+02 0.  0.
          5    1    5    5  501    0  0.10208119720E+02  0.41361537540E+01 -0.32959373288E+03  0.32981120695E+03  0.47000000000E+01 0. -1.
        -13    1    6    6    0    0  0.92874313471E+02  0.16409226649E+00 -0.17520681004E+03  0.19830050760E+03  0.00000000000E+00 0.  1.
         14    1    6    6    0    0  0.11747428676E+02 -0.44565027915E+02 -0.61659962589E+02  0.76980483111E+02  0.00000000000E+00 0. -1.
         -5    1    3    3    0  503 -0.12007364065E+03  0.42398808904E+02 -0.62555602923E+03  0.63840251713E+03  0.47000000000E+01 0.  1.
         13    1    4    4    0    0  0.14545668967E+02 -0.17585740680E+02 -0.25632837511E+02  0.34320214449E+02  0.00000000000E+00 0. -1.
        -14    1    4    4    0    0 -0.93018901813E+01  0.15451713670E+02 -0.32765919215E+03  0.32815518710E+03  0.00000000000E+00 0.  1.
</event>
<event>
12    1  0.8331241E-002  0.1898657E+03  0.7818608E-02  0.1158676E+00
         21   -1    0    0  503  502  0.00000000000E+00  0.00000000000E+00  0.16996907438E+03  0.16996907438E+03  0.00000000000E+00 0. -1.
         21   -1    0    0  501  503 -0.00000000000E+00 -0.00000000000E+00 -0.56164330149E+03  0.56164330149E+03  0.00000000000E+00 0.  1.
          6    2    1    2  501    0 -0.35015070459E+02 -0.71017300831E+02 -0.48453423133E+03  0.52025495085E+03  0.17211124421E+03 0.  0.
         24    2    3    3    0    0 -0.11168392122E+02 -0.76085283118E+02 -0.48218925356E+03  0.49531627741E+03  0.83174726510E+02 0.  0.
         -6    2    1    2    0  502  0.35015070459E+02  0.71017300831E+02  0.92860004216E+02  0.21135742502E+03  0.17256728702E+03 0.  0.
        -24    2    5    5    0    0 -0.20153553661E+02  0.45768075688E+01 -0.33629462561E+01  0.81978669305E+02  0.79259573055E+02 0.  0.
          5    1    3    3  501    0 -0.23846678337E+02  0.50679822866E+01 -0.23449777631E+01  0.24938673439E+02  0.47000000000E+01 0. -1.
        -11    1    4    4    0    0  0.28562118203E+02 -0.45237778636E+01 -0.17675101154E+03  0.17910103083E+03  0.00000000000E+00 0.  1.
         12    1    4    4    0    0 -0.39730510325E+02 -0.71561505254E+02 -0.30543824202E+03  0.31621524659E+03  0.00000000000E+00 0. -1.
         -5    1    5    5    0  502  0.55168624120E+02  0.66440493262E+02  0.96222950472E+02  0.12937875571E+03  0.47000000000E+01 0.  1.
         11    1    6    6    0    0  0.12399667000E+02  0.29975248916E+02  0.16234932711E+02  0.36274513496E+02  0.00000000000E+00 0. -1.
        -12    1    6    6    0    0 -0.32553220661E+02 -0.25398441347E+02 -0.19597878967E+02  0.45704155809E+02  0.00000000000E+00 0.  1.
</event>
<event>
12    1  0.8331241E-002  0.2139980E+03  0.7818608E-02  0.1138850E+00
         21   -1    0    0  503  502  0.00000000000E+00  0.00000000000E+00  0.16509822171E+04  0.16509822171E+04  0.00000000000E+00 0.  1.
         21   -1    0    0  501  503 -0.00000000000E+00 -0.00000000000E+00 -0.32194605526E+02  0.32194605526E+02  0.00000000000E+00 0.  1.
          6    2    1    2  501    0 -0.23576056303E+02  0.12440929524E+03  0.48337293945E+03  0.52777143183E+03  0.16988167203E+03 0.  0.
         24    2    3    3    0    0 -0.70413655293E+02  0.77163461525E+02  0.39833963015E+03  0.41970347555E+03  0.81020144411E+02 0.  0.
         -6    2    1    2    0  502  0.23576056303E+02 -0.12440929524E+03  0.11354146721E+04  0.11554053908E+04  0.17251561155E+03 0.  0.
        -24    2    5    5    0    0  0.47141790403E+01  0.45487851670E+01  0.51179844140E+03  0.51829845304E+03  0.81564249952E+02 0.  0.
          5    1    3    3  501    0  0.46837598990E+02  0.47245833718E+02  0.85033309308E+02  0.10806795628E+03  0.47000000000E+01 0. -1.
        -13    1    4    4    0    0 -0.79053543639E+02  0.49319583878E+02  0.21882023137E+03  0.23783224713E+03  0.00000000000E+00 0.  1.
         14    1    4    4    0    0  0.86398883459E+01  0.27843877647E+02  0.17951939877E+03  0.18187122843E+03  0.00000000000E+00 0. -1.
         -5    1    5    5    0  502  0.18861877263E+02 -0.12895808041E+03  0.62361623070E+03  0.63710693773E+03  0.47000000000E+01 0.  1.
         13    1    6    6    0    0 -0.28794533903E+02  0.62956710615E+01  0.41113022421E+03  0.41218542176E+03  0.00000000000E+00 0. -1.
        -14    1    6    6    0    0  0.33508712943E+02 -0.17468858945E+01  0.10066821719E+03  0.10611303127E+03  0.00000000000E+00 0.  1.
</event>
<event>
12    1  0.8331241E-002  0.2803033E+03  0.7818608E-02  0.1096058E+00
         21   -1    0    0  501  502  0.00000000000E+00  0.00000000000E+00  0.16885146558E+04  0.16885146558E+04  0.00000000000E+00 0. -1.
         21   -1    0    0  502  503 -0.00000000000E+00 -0.00000000000E+00 -0.82738936317E+02  0.82738936317E+02  0.00000000000E+00 0. -1.
         -6    2    1    2    0  503 -0.19802232045E+03  0.87294379662E+02  0.20874468928E+03  0.34637968570E+03  0.17196334855E+03 0.  0.
        -24    2    3    3    0    0 -0.13302392853E+03 -0.45795657289E+01  0.76278429846E+02  0.17249750524E+03  0.78871113021E+02 0.  0.
          6    2    1    2  501    0  0.19802232045E+03 -0.87294379662E+02  0.13970310302E+04  0.14248739064E+04  0.17814825768E+03 0.  0.
         24    2    5    5    0    0  0.10252846999E+03 -0.11842730967E+03  0.77663215534E+03  0.79637952400E+03  0.80781970090E+02 0.  0.
          5    1    5    5  501    0  0.95493850463E+02  0.31132930006E+02  0.62039887486E+03  0.62849438242E+03  0.47000000000E+01 0. -1.
        -11    1    6    6    0    0  0.10454499541E+03 -0.70068175519E+02  0.50341865067E+03  0.51891188378E+03  0.00000000000E+00 0.  1.
         12    1    6    6    0    0 -0.20165254224E+01 -0.48359134149E+02  0.27321350468E+03  0.27746764022E+03  0.00000000000E+00 0. -1.
         -5    1    3    3    0  503 -0.64998391915E+02  0.91873945391E+02  0.13246625943E+03  0.17388218046E+03  0.47000000000E+01 0.  1.
         13    1    4    4    0    0 -0.28335755298E+02  0.24284765522E+02  0.47021912226E+02  0.60031034426E+02  0.00000000000E+00 0. -1.
        -14    1    4    4    0    0 -0.10468817324E+03 -0.28864331251E+02  0.29256517620E+02  0.11246647081E+03  0.00000000000E+00 0.  1.
</event>
<event>
12    1  0.8331241E-002  0.2795553E+03  0.7818608E-02  0.1096061E+00
         21   -1    0    0  501  502  0.00000000000E+00  0.00000000000E+00  0.54493525030E+03  0.54493525030E+03  0.00000000000E+00 0.  1.
         21   -1    0    0  502  503 -0.00000000000E+00 -0.00000000000E+00 -0.29644526597E+03  0.29644526597E+03  0.00000000000E+00 0.  1.
         -6    2    1    2    0  503 -0.24607703212E+02 -0.21879061006E+03 -0.17838828427E+03  0.33162256763E+03  0.17226803909E+03 0.  0.
        -24    2    3    3    0    0 -0.38024766315E+01 -0.96297287549E+02 -0.16608349410E+03  0.20667870274E+03  0.76450851771E+02 0.  0.
          6    2    1    2  501    0  0.24607703212E+02  0.21879061006E+03  0.42687826860E+03  0.50975794864E+03  0.17074319868E+03 0.  0.
         24    2    5    5    0    0 -0.10221370170E+01  0.39048273092E+02  0.90774062120E+02  0.12772087711E+03  0.80912790717E+02 0.  0.
          5    1    5    5  501    0  0.25629840228E+02  0.17974233697E+03  0.33610420648E+03  0.38203707152E+03  0.47000000000E+01 0. -1.
        -11    1    6    6    0    0  0.18372434954E+02  0.16950304502E+02 -0.67242180985E+01  0.25885793360E+02  0.00000000000E+00 0.  1.
         12    1    6    6    0    0 -0.19394571971E+02  0.22097968589E+02  0.97498280218E+02  0.10183508375E+03  0.00000000000E+00 0. -1.
         -5    1    3    3    0  503 -0.20805226580E+02 -0.12249332251E+03 -0.12304790163E+02  0.12494386489E+03  0.47000000000E+01 0.  1.
         11    1    4    4    0    0 -0.86564657855E+01  0.96685580206E+01 -0.52181673310E+01  0.13987304400E+02  0.00000000000E+00 0. -1.
        -12    1    4    4    0    0  0.48539891540E+01 -0.10596584557E+03 -0.16086532677E+03  0.19269139834E+03  0.00000000000E+00 0.  1.
</event>
<event>
12    1  0.8331241E-002  0.2118646E+03  0.7818608E-02  0.1140266E+00
         21   -1    0    0  501  502  0.00000000000E+00  0.00000000000E+00  0.65516592902E+03  0.65516592902E+03  0.00000000000E+00 0.  1.
         21   -1    0    0  502  503 -0.00000000000E+00 -0.00000000000E+00 -0.37136300934E+03  0.37136300934E+03  0.00000000000E+00 0.  1.
         -6    2    1    2    0  503  0.20896420562E+02 -0.12199874137E+03 -0.32187072655E+03  0.38486923164E+03  0.17088946009E+03 0.  0.
        -24    2    3    3    0    0 -0.18948729538E+01 -0.13248790403E+03 -0.16476489502E+03  0.22570328713E+03  0.78980174300E+02 0.  0.
          6    2    1    2  501    0 -0.20896420562E+02  0.12199874137E+03  0.60567364622E+03  0.64165970672E+03  0.17194842311E+03 0.  0.
         24    2    5    5    0    0  0.16774539782E+02  0.14568497553E+03  0.47926116459E+03  0.50756144255E+03  0.80136488520E+02 0.  0.
          5    1    5    5  501    0 -0.37670960344E+02 -0.23686234164E+02  0.12641248163E+03  0.13409826417E+03  0.47000000000E+01 0. -1.
        -11    1    6    6    0    0 -0.15883283802E+02  0.71057548267E+02  0.32561622629E+03  0.33365758000E+03  0.00000000000E+00 0.  1.
         12    1    6    6    0    0  0.32657823585E+02  0.74627427266E+02  0.15364493830E+03  0.17390386254E+03  0.00000000000E+00 0. -1.
         -5    1    3    3    0  503  0.22791293516E+02  0.10489162660E+02 -0.15710583153E+03  0.15916594452E+03  0.47000000000E+01 0.  1.
         11    1    4    4    0    0  0.38480163198E+02 -0.60069089580E+02 -0.77004042631E+02  0.10496971499E+03  0.00000000000E+00 0. -1.
        -12    1    4    4    0    0 -0.40375036152E+02 -0.72418814448E+02 -0.87760852385E+02  0.12073357214E+03  0.00000000000E+00 0.  1.
</event>
<event>
12    1  0.8331241E-002  0.3192467E+03  0.7818608E-02  0.1076045E+00
         21   -1    0    0  501  502  0.00000000000E+00  0.00000000000E+00  0.55658849473E+03  0.55658849473E+03  0.00000000000E+00 0. -1.
         21   -1    0    0  502  503 -0.00000000000E+00 -0.00000000000E+00 -0.18572066918E+03  0.18572066918E+03  0.00000000000E+00 0.  1.
         -6    2    1    2    0  503 -0.15640660933E+03  0.21897123899E+03  0.13960132153E+03  0.34843508185E+03  0.17177615186E+03 0.  0.
        -24    2    3    3    0    0 -0.96991682767E+02  0.19558299433E+03  0.15894237604E+03  0.28155227482E+03  0.79680049939E+02 0.  0.
          6    2    1    2  501    0  0.15640660933E+03 -0.21897123899E+03  0.23126650402E+03  0.39387408206E+03  0.17100048448E+03 0.  0.
         24    2    5    5    0    0  0.18210008391E+03 -0.19997156863E+03  0.18324069582E+03  0.33599739968E+03  0.78536814100E+02 0.  0.
          5    1    5    5  501    0 -0.25693474581E+02 -0.18999670359E+02  0.48025808202E+02  0.57876682379E+02  0.47000000000E+01 0. -1.
        -11    1    6    6    0    0  0.99152790399E+02 -0.16166558988E+03  0.11310056069E+03  0.22081389363E+03  0.00000000000E+00 0.  1.
         12    1    6    6    0    0  0.82947293516E+02 -0.38305978751E+02  0.70140135129E+02  0.11518350605E+03  0.00000000000E+00 0. -1.
         -5    1    3    3    0  503 -0.59414926567E+02  0.23388244654E+02 -0.19341054511E+02  0.66882807033E+02  0.47000000000E+01 0.  1.
         11    1    4    4    0    0 -0.64668075953E+02  0.57025152195E+02  0.35697767134E+02  0.93317515015E+02  0.00000000000E+00 0. -1.
        -12    1    4    4    0    0 -0.32323606814E+02  0.13855784214E+03  0.12324460890E+03  0.18823475981E+03  0.00000000000E+00 0.  1.
</event>
<event>
12    1  0.8331241E-002  0.1788467E+03  0.7818608E-02  0.1170167E+00
         21   -1    0    0  503  502  0.00000000000E+00  0.00000000000E+00  0.69489973250E+03  0.69489973250E+03  0.00000000000E+00 0.  1.
         21   -1    0    0  501  503 -0.00000000000E+00 -0.00000000000E+00 -0.13132064447E+03  0.13132064447E+03  0.00000000000E+00 0.  1.
          6    2    1    2  501    0  0.31523959361E+02 -0.33606165472E+02 -0.54986988240E+02  0.18231812074E+03  0.16761024403E+03 0.  0.
         24    2    3    3    0    0  0.49847377933E+02 -0.41089648045E+02  0.20204418613E+02  0.10442339791E+03  0.79516710427E+02 0.  0.
         -6    2    1    2    0  502 -0.31523959361E+02  0.33606165472E+02  0.61856607626E+03  0.64390225623E+03  0.17280911578E+03 0.  0.
        -24    2    5    5    0    0  0.45733025111E+02  0.38917120742E+02  0.32854942617E+03  0.34368800735E+03  0.81059663754E+02 0.  0.
          5    1    3    3  501    0 -0.18323418572E+02  0.74834825731E+01 -0.75191406853E+02  0.77894722826E+02  0.47000000000E+01 0. -1.
        -13    1    4    4    0    0  0.72730073010E+01  0.20756459957E+02 -0.91293752809E+01  0.23813289528E+02  0.00000000000E+00 0.  1.
         14    1    4    4    0    0  0.42574370632E+02 -0.61846108002E+02  0.29333793893E+02  0.80610108385E+02  0.00000000000E+00 0. -1.
         -5    1    5    5    0  502 -0.77256984473E+02 -0.53109552694E+01  0.29001665010E+03  0.30021424888E+03  0.47000000000E+01 0.  1.
         13    1    6    6    0    0 -0.70404359281E+01  0.18537030161E+02  0.22346864419E+03  0.22434666068E+03  0.00000000000E+00 0. -1.
        -14    1    6    6    0    0  0.52773461040E+02  0.20380090581E+02  0.10508078198E+03  0.11934134666E+03  0.00000000000E+00 0.  1.
</event>
<event>
12    1  0.8331241E-002  0.1917906E+03  0.7818608E-02  0.1156982E+00
         21   -1    0    0  503  502  0.00000000000E+00  0.00000000000E+00  0.29988588017E+03  0.29988588017E+03  0.00000000000E+00 0.  1.
         21   -1    0    0  501  503 -0.00000000000E+00 -0.00000000000E+00 -0.20649549232E+03  0.20649549232E+03  0.00000000000E+00 0.  1.
          6    2    1    2  501    0 -0.57370629136E+02  0.58126173749E+02 -0.11501883812E+03  0.22315351210E+03  0.17291071591E+03 0.  0.
         24    2    3    3    0    0 -0.10083841421E+03  0.49825106913E+02 -0.54889466796E+02  0.14834717984E+03  0.79643613311E+02 0.  0.
         -6    2    1    2    0  502  0.57370629136E+02 -0.58126173749E+02  0.20840922596E+03  0.28322786039E+03  0.17353263173E+03 0.  0.
        -24    2    5    5    0    0  0.70271330441E+02 -0.10140480483E+03  0.16212763275E+03  0.21839311760E+03  0.78671406431E+02 0.  0.
          5    1    3    3  501    0  0.43467785074E+02  0.83010668354E+01 -0.60129371328E+02  0.74806332260E+02  0.47000000000E+01 0. -1.
        -11    1    4    4    0    0 -0.60225101954E+01  0.78378638951E+01 -0.42825242528E+02  0.43951156266E+02  0.00000000000E+00 0.  1.
         12    1    4    4    0    0 -0.94815904014E+02  0.41987243018E+02 -0.12064224267E+02  0.10439602357E+03  0.00000000000E+00 0. -1.
         -5    1    5    5    0  502 -0.12900701305E+02  0.43278631082E+02  0.46281593216E+02  0.64834742794E+02  0.47000000000E+01 0.  1.
         11    1    6    6    0    0  0.25806637020E+02  0.21429729932E+01  0.73148179000E+01  0.26908760812E+02  0.00000000000E+00 0. -1.
        -12    1    6    6    0    0  0.44464693421E+02 -0.10354777782E+03  0.15481281485E+03  0.19148435679E+03  0.00000000000E+00 0.  1.
</event>
<event>
12    1  0.8331241E-002  0.1993141E+03  0.7818608E-02  0.1150550E+00
         21   -1    0    0  501  502  0.00000000000E+00  0.00000000000E+00  0.22969532879E+03  0.22969532879E+03  0.00000000000E+00 0.  1.
         21   -1    0    0  502  503 -0.00000000000E+00 -0.00000000000E+00 -0.17595331492E+03  0.17595331492E+03  0.00000000000E+00 0.  1.
         -6    2    1    2    0  503  0.95337752715E+02 -0.31830177806E+02 -0.35602738194E+01  0.19826093743E+03  0.17085747408E+03 0.  0.
        -24    2    3    3    0    0 -0.11505237087E+02  0.13255060655E+02 -0.78154232861E+01  0.82121798919E+02  0.79842607067E+02 0.  0.
          6    2    1    2  501    0 -0.95337752715E+02  0.31830177806E+02  0.57302287692E+02  0.20738770629E+03  0.17211525566E+03 0.  0.
         24    2    5    5    0    0 -0.91497064108E+02  0.78169583424E+02  0.16933431469E+02  0.14563152478E+03  0.80247139477E+02 0.  0.
          5    1    5    5  501    0 -0.38406886066E+01 -0.46339405618E+02  0.40368856224E+02  0.61756181511E+02  0.47000000000E+01 0. -1.
        -13    1    6    6    0    0 -0.43286986629E+02 -0.50789302361E+01  0.22923524136E+02  0.49244763200E+02  0.00000000000E+00 0.  1.
         14    1    6    6    0    0 -0.48210077479E+02  0.83248513660E+02 -0.59900926671E+01  0.96386761577E+02  0.00000000000E+00 0. -1.
         -5    1    3    3    0  503  0.10684298980E+03 -0.45085238461E+02  0.42551494667E+01  0.11613913851E+03  0.47000000000E+01 0.  1.
         13    1    4    4    0    0  0.10504764312E+02 -0.22886749539E+02 -0.25880897400E+02  0.36110583323E+02  0.00000000000E+00 0. -1.
        -14    1    4    4    0    0 -0.22010001399E+02  0.36141810194E+02  0.18065474114E+02  0.46011215596E+02  0.00000000000E+00 0.  1.
</event>
<event>
12    1  0.8331241E-002  0.2059777E+03  0.7818608E-02  0.1144887E+00
         21   -1    0    0  503  502  0.00000000000E+00  0.00000000000E+00  0.17737258414E+02  0.17737258414E+02  0.00000000000E+00 0. -1.
         21   -1    0    0  501  503 -0.00000000000E+00 -0.00000000000E+00 -0.25271614116E+04  0.25271614116E+04  0.00000000000E+00 0. -1.
          6    2    1    2  501    0  0.10861737493E+03  0.28455446349E+02 -0.15535752019E+04  0.15671082840E+04  0.17211920062E+03 0.  0.
         24    2    3    3    0    0  0.64285140717E+02 -0.46928328977E+02 -0.69039933190E+03  0.69950080758E+03  0.79468829966E+02 0.  0.
         -6    2    1    2    0  502 -0.10861737493E+03 -0.28455446349E+02 -0.95584895129E+03  0.97779038603E+03  0.17268287341E+03 0.  0.
        -24    2    5    5    0    0 -0.12685951429E+03 -0.50840906169E+02 -0.90756789641E+03  0.92133655781E+03  0.80643859434E+02 0.  0.
          5    1    3    3  501    0  0.44332234210E+02  0.75383775326E+02 -0.86317586999E+03  0.86760747640E+03  0.47000000000E+01 0. -1.
        -13    1    4    4    0    0 -0.91241654725E+01 -0.17925200982E+02 -0.44971931840E+02  0.49264976192E+02  0.00000000000E+00 0.  1.
         14    1    4    4    0    0  0.73409306189E+02 -0.29003127994E+02 -0.64542740007E+03  0.65023583139E+03  0.00000000000E+00 0. -1.
         -5    1    5    5    0  502  0.18242139366E+02  0.22385459820E+02 -0.48281054880E+02  0.56453828217E+02  0.47000000000E+01 0.  1.
         11    1    6    6    0    0 -0.10164468647E+03 -0.47454506879E+01 -0.69292970027E+03  0.70036114334E+03  0.00000000000E+00 0. -1.
        -12    1    6    6    0    0 -0.25214827824E+02 -0.46095455481E+02 -0.21463819614E+03  0.22097541447E+03  0.00000000000E+00 0.  1.
</event>
<event>
12    1  0.8331241E-002  0.2788295E+03  0.7818608E-02  0.1096514E+00
         21   -1    0    0  503  502  0.00000000000E+00  0.00000000000E+00  0.11912866034E+03  0.11912866034E+03  0.00000000000E+00 0.  1.
         21   -1    0    0  501  503 -0.00000000000E+00 -0.00000000000E+00 -0.81695373861E+03  0.81695373861E+03  0.00000000000E+00 0.  1.
          6    2    1    2  501    0  0.15116641310E+03  0.15608180080E+03 -0.56147970186E+03  0.62690136707E+03  0.17473710380E+03 0.  0.
         24    2    3    3    0    0  0.14701495802E+02  0.60447601823E+02 -0.11478922187E+03  0.15011729794E+03  0.74085026406E+02 0.  0.
         -6    2    1    2    0  502 -0.15116641310E+03 -0.15608180080E+03 -0.13634537641E+03  0.30918103189E+03  0.17259790214E+03 0.  0.
        -24    2    5    5    0    0 -0.15212121104E+03 -0.17727704279E+03 -0.99191925199E+02  0.26613897270E+03  0.80143009767E+02 0.  0.
          5    1    3    3  501    0  0.13646491730E+03  0.95634198973E+02 -0.44669047999E+03  0.47678406913E+03  0.47000000000E+01 0. -1.
        -11    1    4    4    0    0  0.11035288108E+01  0.11785493772E+02 -0.95189562950E+02  0.95922721677E+02  0.00000000000E+00 0.  1.
         12    1    4    4    0    0  0.13597966991E+02  0.48662108051E+02 -0.19599658920E+02  0.54194576260E+02  0.00000000000E+00 0. -1.
         -5    1    5    5    0  502  0.95479794291E+00  0.21195241997E+02 -0.37153451215E+02  0.43042059194E+02  0.47000000000E+01 0.  1.
         13    1    6    6    0    0 -0.88088879374E+02 -0.43096466486E+02 -0.44953510112E+02  0.10787851577E+03  0.00000000000E+00 0. -1.
        -14    1    6    6    0    0 -0.64032331667E+02 -0.13418057631E+03 -0.54238415088E+02  0.15826045693E+03  0.00000000000E+00 0.  1.
</event>
<event>
12    1  0.8331241E-002  0.1817217E+03  0.7818608E-02  0.1166674E+00
         21   -1    0    0  503  502  0.00000000000E+00  0.00000000000E+00  0.14429759654E+03  0.14429759654E+03  0.00000000000E+00 0.  1.
         21   -1    0    0  501  503 -0.00000000000E+00 -0.00000000000E+00 -0.70743829889E+03  0.70743829889E+03  0.00000000000E+00 0.  1.
          6    2    1    2  501    0 -0.65656831508E+01  0.52679323997E+02 -0.63230419763E+03  0.65729726392E+03  0.17150182345E+03 0.  0.
         24    2    3    3    0    0  0.50746975246E+02  0.85456073065E+00 -0.25364272823E+03  0.27080386772E+03  0.80150579643E+02 0.  0.
         -6    2    1    2    0  502  0.65656831508E+01 -0.52679323997E+02  0.69163495272E+02  0.19443863151E+03  0.17379462873E+03 0.  0.
        -24    2    5    5    0    0 -0.52402059484E+02  0.95179312578E+00 -0.13407618331E+02  0.79575364115E+02  0.58357455362E+02 0.  0.
          5    1    3    3  501    0 -0.57312658397E+02  0.51824763266E+02 -0.37866146940E+03  0.38649339620E+03  0.47000000000E+01 0. -1.
        -11    1    4    4    0    0  0.24307987627E+02  0.37063748330E+02 -0.17244756975E+03  0.17805270011E+03  0.00000000000E+00 0.  1.
         12    1    4    4    0    0  0.26438987619E+02 -0.36209187599E+02 -0.81195158481E+02  0.92751167614E+02  0.00000000000E+00 0. -1.
         -5    1    5    5    0  502  0.58967742635E+02 -0.53631117122E+02  0.82571113603E+02  0.11486326740E+03  0.47000000000E+01 0.  1.
         11    1    6    6    0    0 -0.12604396359E+02  0.25362404618E+02  0.61082673907E+01  0.28972975444E+02  0.00000000000E+00 0. -1.
        -12    1    6    6    0    0 -0.39797663126E+02 -0.24410611492E+02 -0.19515885722E+02  0.50602388671E+02  0.00000000000E+00 0.  1.
</event>
<event>
12    1  0.8331241E-002  0.2174388E+03  0.7818608E-02  0.1136118E+00
         21   -1    0    0  503  502  0.00000000000E+00  0.00000000000E+00  0.51011246024E+02  0.51011246024E+02  0.00000000000E+00 0.  1.
         21   -1    0    0  501  503 -0.00000000000E+00 -0.00000000000E+00 -0.18857377809E+04  0.18857377809E+04  0.00000000000E+00 0.  1.
          6    2    1    2  501    0  0.58885746745E+02 -0.11893607264E+03 -0.16120956523E+04  0.16266935853E+04  0.17223910024E+03 0.  0.
         24    2    3    3    0    0 -0.25687847184E+02 -0.33499422784E+02 -0.90650266630E+03  0.91091731728E+03  0.79001253723E+02 0.  0.
         -6    2    1    2    0  502 -0.58885746745E+02  0.11893607264E+03 -0.22263088255E+03  0.31005544162E+03  0.17016623188E+03 0.  0.
        -24    2    5    5    0    0 -0.86561176020E+02  0.10483732229E+03 -0.22821944661E+03  0.27814891885E+03  0.82456072599E+02 0.  0.
          5    1    3    3  501    0  0.84573593929E+02 -0.85436649854E+02 -0.70559298601E+03  0.71577626800E+03  0.47000000000E+01 0. -1.
        -13    1    4    4    0    0  0.18132927524E+02 -0.22633493410E+02 -0.63694674886E+03  0.63760664910E+03  0.00000000000E+00 0.  1.
         14    1    4    4    0    0 -0.43820774708E+02 -0.10865929374E+02 -0.26955591743E+03  0.27331066818E+03  0.00000000000E+00 0. -1.
         -5    1    5    5    0  502  0.27675429275E+02  0.14098750350E+02  0.55885640662E+01  0.31906522770E+02  0.47000000000E+01 0.  1.
         11    1    6    6    0    0 -0.39865251156E+01 -0.12494957455E+02 -0.35798717025E+02  0.38125640780E+02  0.00000000000E+00 0. -1.
        -12    1    6    6    0    0 -0.82574650904E+02  0.11733227974E+03 -0.19242072959E+03  0.24002327807E+03  0.00000000000E+00 0.  1.
</event>
<event>
12    1  0.8331241E-002  0.2518279E+03  0.7818608E-02  0.1112156E+00
         21   -1    0    0  503  502  0.00000000000E+00  0.00000000000E+00  0.12364668219E+03  0.12364668219E+03  0.00000000000E+00 0. -1.
         21   -1    0    0  501  503 -0.00000000000E+00 -0.00000000000E+00 -0.51288310461E+03  0.51288310461E+03  0.00000000000E+00 0.  1.
          6    2    1    2  501    0 -0.10740582350E+03  0.14930255034E+03 -0.19332000061E+03  0.31747424304E+03  0.17201746975E+03 0.  0.
         24    2    3    3    0    0 -0.10638970539E+03  0.73995026166E+02 -0.18777225799E+03  0.24180969955E+03  0.80121636363E+02 0.  0.
         -6    2    1    2    0  502  0.10740582350E+03 -0.14930255034E+03 -0.19591642181E+03  0.31905554376E+03  0.17200561971E+03 0.  0.
        -24    2    5    5    0    0  0.13276973944E+03 -0.15133327120E+03 -0.19892076368E+03  0.29300620348E+03  0.75852504100E+02 0.  0.
          5    1    3    3  501    0 -0.10161181083E+01  0.75307524178E+02 -0.55477426141E+01  0.75664543493E+02  0.47000000000E+01 0. -1.
        -13    1    4    4    0    0 -0.17111494598E+02  0.53687382030E+02 -0.10105381365E+03  0.11570225361E+03  0.00000000000E+00 0.  1.
         14    1    4    4    0    0 -0.89278210789E+02  0.20307644135E+02 -0.86718444343E+02  0.12610744594E+03  0.00000000000E+00 0. -1.
         -5    1    5    5    0  502 -0.25363915940E+02  0.20307208529E+01  0.30043418622E+01  0.26049340279E+02  0.47000000000E+01 0.  1.
         11    1    6    6    0    0  0.76074952904E+02 -0.13552392637E+03 -0.13221770751E+03  0.20404816896E+03  0.00000000000E+00 0. -1.
        -12    1    6    6    0    0  0.56694786532E+02 -0.15809344824E+02 -0.66703056168E+02  0.88958034521E+02  0.00000000000E+00 0.  1.
</event>
<event>
12    1  0.8331241E-002  0.2008628E+03  0.7818608E-02  0.1149908E+00
         21   -1    0    0  501  502  0.00000000000E+00  0.00000000000E+00  0.82742306439E+03  0.82742306439E+03  0.00000000000E+00 0. -1.
         21   -1    0    0  502  503 -0.00000000000E+00 -0.00000000000E+00 -0.64340583183E+02  0.64340583183E+02  0.00000000000E+00 0. -1.
         -6    2    1    2    0  503 -0.12716520219E+02  0.93117392996E+02  0.61100138276E+03  0.64317068980E+03  0.17751982345E+03 0.  0.
        -24    2    3    3    0    0 -0.44702424821E+02  0.27266381468E+02  0.50654512118E+03  0.51552800730E+03  0.80245898190E+02 0.  0.
          6    2    1    2  501    0  0.12716520219E+02 -0.93117392996E+02  0.15208109844E+03  0.24859295777E+03  0.17273459232E+03 0.  0.
         24    2    5    5    0    0  0.57377440026E+01 -0.93347514639E+01  0.50131156696E+01  0.79125214830E+02  0.78202359313E+02 0.  0.
          5    1    5    5  501    0  0.69787762166E+01 -0.83782641532E+02  0.14706798277E+03  0.16946774294E+03  0.47000000000E+01 0. -1.
        -11    1    6    6    0    0 -0.19290985168E+02 -0.16614668162E+02  0.32473190698E+02  0.41263754325E+02  0.00000000000E+00 0.  1.
         12    1    6    6    0    0  0.25028729171E+02  0.72799166986E+01 -0.27460075028E+02  0.37861460505E+02  0.00000000000E+00 0. -1.
         -5    1    3    3    0  503  0.31985904602E+02  0.65851011529E+02  0.10445626158E+03  0.12764268250E+03  0.47000000000E+01 0.  1.
         13    1    4    4    0    0  0.11147984813E+01  0.41417737726E+02  0.32983341550E+03  0.33242556122E+03  0.00000000000E+00 0. -1.
        -14    1    4    4    0    0 -0.45817223302E+02 -0.14151356259E+02  0.17671170568E+03  0.18310244608E+03  0.00000000000E+00 0.  1.
</event>
<event>
12    1  0.8331241E-002  0.1984113E+03  0.7818608E-02  0.1155438E+00
         21   -1    0    0  503  502  0.00000000000E+00  0.00000000000E+00  0.22620347898E+03  0.22620347898E+03  0.00000000000E+00 0. -1.
         21   -1    0    0  501  503 -0.00000000000E+00 -0.00000000000E+00 -0.21654841330E+03  0.21654841330E+03  0.00000000000E+00 0. -1.
          6    2    1    2  501    0  0.35703989296E+02  0.36946244271E+02 -0.11085023166E+03  0.21061273569E+03  0.17155218086E+03 0.  0.
         24    2    3    3    0    0  0.92468726810E+01  0.89526145394E+02 -0.70937175022E+02  0.13934025074E+03  0.79266558595E+02 0.  0.
         -6    2    1    2    0  502 -0.35703989296E+02 -0.36946244271E+02  0.12050529734E+03  0.23213915659E+03  0.19164357937E+03 0.  0.
        -24    2    5    5    0    0 -0.93100900750E+01 -0.33802251517E+02  0.16393719701E+03  0.18100264796E+03  0.68244296615E+02 0.  0.
          5    1    3    3  501    0  0.26457116615E+02 -0.52579901123E+02 -0.39913056640E+02  0.71272484957E+02  0.47000000000E+01 0. -1.
        -13    1    4    4    0    0 -0.13055163896E+02  0.80361785746E+02 -0.21297980942E+02  0.84154963637E+02  0.00000000000E+00 0.  1.
         14    1    4    4    0    0  0.22302036577E+02  0.91643596479E+01 -0.49639194080E+02  0.55185287098E+02  0.00000000000E+00 0. -1.
         -5    1    5    5    0  502 -0.26393899221E+02 -0.31439927541E+01 -0.43431899661E+02  0.51136508628E+02  0.47000000000E+01 0.  1.
         11    1    6    6    0    0 -0.10641763947E+02 -0.52400934999E+02  0.89416203738E+02  0.10418427242E+03  0.00000000000E+00 0. -1.
        -12    1    6    6    0    0  0.13316738725E+01  0.18598683482E+02  0.74520993268E+02  0.76818375538E+02  0.00000000000E+00 0.  1.
</event>
<event>
12    1  0.8331241E-002  0.2209425E+03  0.7818608E-02  0.1134045E+00
         21   -1    0    0  501  502  0.00000000000E+00  0.00000000000E+00  0.46580848183E+02  0.46580848183E+02  0.00000000000E+00 0. -1.
         21   -1    0    0  502  503 -0.00000000000E+00 -0.00000000000E+00 -0.10450054140E+04  0.10450054140E+04  0.00000000000E+00 0.  1.
         -6    2    1    2    0  503  0.13425224523E+03 -0.38684557455E+02 -0.57747811155E+03  0.61830135896E+03  0.17115910970E+03 0.  0.
        -24    2    3    3    0    0  0.15346816129E+03 -0.56820997486E+01 -0.52814837030E+03  0.55573997297E+03  0.79507570195E+02 0.  0.
          6    2    1    2  501    0 -0.13425224523E+03  0.38684557455E+02 -0.42094645423E+03  0.47328490319E+03  0.16517421688E+03 0.  0.
         24    2    5    5    0    0 -0.14928772296E+03  0.68180946034E+02 -0.34862705969E+03  0.39360876274E+03  0.80321639250E+02 0.  0.
          5    1    5    5  501    0  0.15035477729E+02 -0.29496388579E+02 -0.72319394537E+02  0.79676140443E+02  0.47000000000E+01 0. -1.
        -13    1    6    6    0    0 -0.95166164878E+00 -0.11385022265E+02 -0.45167375433E+02  0.46589872241E+02  0.00000000000E+00 0.  1.
         14    1    6    6    0    0 -0.14833606131E+03  0.79565968299E+02 -0.30345968426E+03  0.34701889050E+03  0.00000000000E+00 0. -1.
         -5    1    3    3    0  503 -0.19215916062E+02 -0.33002457706E+02 -0.49329741250E+02  0.62561385987E+02  0.47000000000E+01 0.  1.
         11    1    4    4    0    0  0.25680390785E+02 -0.77322393848E+01 -0.25177222535E+02  0.36785357568E+02  0.00000000000E+00 0. -1.
        -12    1    4    4    0    0  0.12778777051E+03  0.20501396362E+01 -0.50297114776E+03  0.51895461540E+03  0.00000000000E+00 0.  1.
</event>
<event>
12    1  0.8331241E-002  0.2299539E+03  0.7818608E-02  0.1126959E+00
         21   -1    0    0  501  502  0.00000000000E+00  0.00000000000E+00  0.76803320767E+03  0.76803320767E+03  0.00000000000E+00 0. -1.
         21   -1    0    0  502  503 -0.00000000000E+00 -0.00000000000E+00 -0.72694707737E+02  0.72694707737E+02  0.00000000000E+00 0. -1.
         -6    2    1    2    0  503  0.11139097710E+03  0.10777951725E+03  0.24623636639E+03  0.33691416782E+03  0.16986593017E+03 0.  0.
        -24    2    3    3    0    0  0.62949015541E+02  0.25868619901E+02  0.21247266933E+03  0.23582956968E+03  0.76414571050E+02 0.  0.
          6    2    1    2  501    0 -0.11139097710E+03 -0.10777951725E+03  0.44910213355E+03  0.50381374759E+03  0.16766392510E+03 0.  0.
         24    2    5    5    0    0 -0.12812775355E+03 -0.72845346698E+02  0.42799346427E+03  0.45944955170E+03  0.78691291338E+02 0.  0.
          5    1    5    5  501    0  0.16736776453E+02 -0.34934170550E+02  0.21108669283E+02  0.44364195890E+02  0.47000000000E+01 0. -1.
        -13    1    6    6    0    0  0.31549766236E+01 -0.28248823042E+02  0.71603227820E+02  0.77038770207E+02  0.00000000000E+00 0.  1.
         14    1    6    6    0    0 -0.13128273017E+03 -0.44596523656E+02  0.35639023645E+03  0.38241078149E+03  0.00000000000E+00 0. -1.
         -5    1    3    3    0  503  0.48441961554E+02  0.81910897347E+02  0.33763697053E+02  0.10108459814E+03  0.47000000000E+01 0.  1.
         13    1    4    4    0    0  0.49819935550E+02  0.43193281943E+02  0.20039092762E+03  0.21096020822E+03  0.00000000000E+00 0. -1.
        -14    1    4    4    0    0  0.13129079992E+02 -0.17324662042E+02  0.12081741716E+02  0.24869361455E+02  0.00000000000E+00 0.  1.
</event>
<event>
12    1  0.8331241E-002  0.2013373E+03  0.7818608E-02  0.1148721E+00
         21   -1    0    0  503  502  0.00000000000E+00  0.00000000000E+00  0.54850606517E+02  0.54850606517E+02  0.00000000000E+00 0.  1.
         21   -1    0    0  501  503 -0.00000000000E+00 -0.00000000000E+00 -0.97296203630E+03  0.97296203630E+03  0.00000000000E+00 0.  1.
          6    2    1    2  501    0  0.87136114746E+02 -0.52639297479E+02 -0.71247304088E+03  0.74037460337E+03  0.17370411970E+03 0.  0.
         24    2    3    3    0    0  0.12851366011E+03 -0.44732040883E+02 -0.59678728568E+03  0.61716782627E+03  0.78894518927E+02 0.  0.
         -6    2    1    2    0  502 -0.87136114746E+02  0.52639297479E+02 -0.20563838890E+03  0.28743803944E+03  0.17311811401E+03 0.  0.
        -24    2    5    5    0    0  0.17895817451E+01  0.54857707078E+02 -0.16094546305E+03  0.18777737289E+03  0.79651296685E+02 0.  0.
          5    1    3    3  501    0 -0.41377545363E+02 -0.79072565965E+01 -0.11568575520E+03  0.12320677710E+03  0.47000000000E+01 0. -1.
        -13    1    4    4    0    0  0.86034773521E+02 -0.52946312809E+02 -0.28461514617E+03  0.30201171455E+03  0.00000000000E+00 0.  1.
         14    1    4    4    0    0  0.42478886587E+02  0.82142719264E+01 -0.31217213951E+03  0.31515611172E+03  0.00000000000E+00 0. -1.
         -5    1    5    5    0  502 -0.88925696491E+02 -0.22184095994E+01 -0.44692925849E+02  0.99660666557E+02  0.47000000000E+01 0.  1.
         13    1    6    6    0    0 -0.22120431368E+02  0.63126684728E+02 -0.87780169780E+02  0.11036145167E+03  0.00000000000E+00 0. -1.
        -14    1    6    6    0    0  0.23910013113E+02 -0.82689776495E+01 -0.73165293269E+02  0.77415921215E+02  0.00000000000E+00 0.  1.
</event>
<event>
12    1  0.8331241E-002  0.2192427E+03  0.7818608E-02  0.1134458E+00
         21   -1    0    0  501  502  0.00000000000E+00  0.00000000000E+00  0.50255842360E+02  0.50255842360E+02  0.00000000000E+00 0. -1.
         21   -1    0    0  502  503 -0.00000000000E+00 -0.00000000000E+00 -0.14261356194E+04  0.14261356194E+04  0.00000000000E+00 0. -1.
         -6    2    1    2    0  503 -0.52424984603E+02 -0.12566991501E+03 -0.11117292629E+04  0.11331413447E+04  0.17183144795E+03 0.  0.
        -24    2    3    3    0    0 -0.85171258689E+02 -0.11472947456E+03 -0.10462395344E+04  0.10589590945E+04  0.79750892438E+02 0.  0.
          6    2    1    2  501    0  0.52424984603E+02  0.12566991501E+03 -0.26415051417E+03  0.34325011710E+03  0.17176682510E+03 0.  0.
         24    2    5    5    0    0  0.58062250147E+02  0.14085500995E+02 -0.17039217025E+03  0.19732007473E+03  0.79574455558E+02 0.  0.
          5    1    5    5  501    0 -0.56372655442E+01  0.11158441401E+03 -0.93758343923E+02  0.14593004238E+03  0.47000000000E+01 0. -1.
        -13    1    6    6    0    0  0.25959542219E+02  0.38533123630E+02 -0.13788730588E+03  0.14550466856E+03  0.00000000000E+00 0.  1.
         14    1    6    6    0    0  0.32102707928E+02 -0.24447622635E+02 -0.32504864366E+02  0.51815406167E+02  0.00000000000E+00 0. -1.
         -5    1    3    3    0  503  0.32746274086E+02 -0.10940440449E+02 -0.65489728494E+02  0.74182250181E+02  0.47000000000E+01 0.  1.
         13    1    4    4    0    0 -0.44560236097E+02 -0.62601855940E+01 -0.21241658971E+03  0.21713040355E+03  0.00000000000E+00 0. -1.
        -14    1    4    4    0    0 -0.40611022592E+02 -0.10846928897E+03 -0.83382294471E+03  0.84182869096E+03  0.00000000000E+00 0.  1.
</event>
<event>
12    1  0.8331241E-002  0.1837186E+03  0.7818608E-02  0.1164326E+00
         21   -1    0    0  501  502  0.00000000000E+00  0.00000000000E+00  0.22022190901E+03  0.22022190901E+03  0.00000000000E+00 0.  1.
         21   -1    0    0  502  503 -0.00000000000E+00 -0.00000000000E+00 -0.17185713323E+03  0.17185713323E+03  0.00000000000E+00 0.  1.
         -6    2    1    2    0  503  0.55683618168E+02 -0.29797216315E+02  0.89093120474E+02  0.20390005079E+03  0.17218916099E+03 0.  0.
        -24    2    3    3    0    0  0.67836758160E+02 -0.23322947564E+02  0.12474893070E+03  0.16538976943E+03  0.81521129029E+02 0.  0.
          6    2    1    2  501    0 -0.55683618168E+02  0.29797216315E+02 -0.40728344699E+02  0.18817899145E+03  0.17252244877E+03 0.  0.
         24    2    5    5    0    0 -0.25375113347E+02 -0.68278817838E+00 -0.89877393229E+02  0.12271636769E+03  0.79605266838E+02 0.  0.
          5    1    5    5  501    0 -0.30308504821E+02  0.30480004493E+02  0.49149048530E+02  0.65462623762E+02  0.47000000000E+01 0. -1.
        -13    1    6    6    0    0 -0.47537583069E+02 -0.18187447190E+02 -0.37536428713E+02  0.63242300083E+02  0.00000000000E+00 0.  1.
         14    1    6    6    0    0  0.22162469722E+02  0.17504659011E+02 -0.52340964516E+02  0.59474067607E+02  0.00000000000E+00 0. -1.
         -5    1    3    3    0  503 -0.12153139992E+02 -0.64742687510E+01 -0.35655810229E+02  0.38510281362E+02  0.47000000000E+01 0.  1.
         13    1    4    4    0    0  0.16583755240E+02  0.22455651457E+02  0.65629270131E+01  0.28676632145E+02  0.00000000000E+00 0. -1.
        -14    1    4    4    0    0  0.51253002921E+02 -0.45778599021E+02  0.11818600369E+03  0.13671313728E+03  0.00000000000E+00 0.  1.
</event>
<event>
12    1  0.8331241E-002  0.2051382E+03  0.7818608E-02  0.1145908E+00
         21   -1    0    0  503  502  0.00000000000E+00  0.00000000000E+00  0.32884513652E+02  0.32884513652E+02  0.00000000000E+00 0. -1.
         21   -1    0    0  501  503 -0.00000000000E+00 -0.00000000000E+00 -0.13575520563E+04  0.13575520563E+04  0.00000000000E+00 0. -1.
          6    2    1    2  501    0  0.38470276157E+02  0.99858324772E+02 -0.47913120936E+03  0.52037140563E+03  0.17253416136E+03 0.  0.
         24    2    3    3    0    0 -0.13937105614E+02 -0.71809417338E+01 -0.12938912896E+03  0.15085070114E+03  0.75951158687E+02 0.  0.
         -6    2    1    2    0  502 -0.38470276157E+02 -0.99858324772E+02 -0.84553633328E+03  0.87006516432E+03  0.17501443394E+03 0.  0.
        -24    2    5    5    0    0 -0.17078617470E+02 -0.59731873284E+02 -0.21455301262E+03  0.23742800439E+03  0.80495255655E+02 0.  0.
          5    1    3    3  501    0  0.52407381772E+02  0.10703926651E+03 -0.34974208040E+03  0.36952070448E+03  0.47000000000E+01 0. -1.
        -11    1    4    4    0    0  0.31402220346E+02 -0.51058563000E+01 -0.60482077975E+02  0.68339234466E+02  0.00000000000E+00 0.  1.
         12    1    4    4    0    0 -0.45339325961E+02 -0.20750854338E+01 -0.68907050984E+02  0.82511466679E+02  0.00000000000E+00 0. -1.
         -5    1    5    5    0  502 -0.21391658688E+02 -0.40126451488E+02 -0.63098332066E+03  0.63263715993E+03  0.47000000000E+01 0.  1.
         13    1    6    6    0    0  0.32907354295E+01 -0.65529206236E+02 -0.20292281784E+03  0.21326644323E+03  0.00000000000E+00 0. -1.
        -14    1    6    6    0    0 -0.20369352899E+02  0.57973329519E+01 -0.11630194784E+02  0.24161561158E+02  0.00000000000E+00 0.  1.
</event>
<event>
12    1  0.8331241E-002  0.1946948E+03  0.7818608E-02  0.1154376E+00
         21   -1    0    0  503  502  0.00000000000E+00  0.00000000000E+00  0.54329885997E+02  0.54329885997E+02  0.00000000000E+00 0.  1.
         21   -1    0    0  501  503 -0.00000000000E+00 -0.00000000000E+00 -0.71414064173E+03  0.71414064173E+03  0.00000000000E+00 0.  1.
          6    2    1    2  501    0  0.56917700966E+02 -0.69184963703E+02 -0.39083958023E+03  0.43664820236E+03  0.17285800896E+03 0.  0.
         24    2    3    3    0    0  0.97330408035E+01 -0.31814531202E+02 -0.35684772155E+03  0.36736272166E+03  0.80673269474E+02 0.  0.
         -6    2    1    2    0  502 -0.56917700966E+02  0.69184963703E+02 -0.26897117550E+03  0.33182232537E+03  0.17243659262E+03 0.  0.
        -24    2    5    5    0    0 -0.13491687053E+02  0.92967049973E+02 -0.24761742541E+03  0.27769766412E+03  0.83526674142E+02 0.  0.
          5    1    3    3  501    0  0.47184660163E+02 -0.37370432501E+02 -0.33991858683E+02  0.69285480706E+02  0.47000000000E+01 0. -1.
        -11    1    4    4    0    0  0.43738867328E+02 -0.53885582116E+01 -0.17051632266E+03  0.17611911131E+03  0.00000000000E+00 0.  1.
         12    1    4    4    0    0 -0.34005826524E+02 -0.26425972990E+02 -0.18633139889E+03  0.19124361034E+03  0.00000000000E+00 0. -1.
         -5    1    5    5    0  502 -0.43426013913E+02 -0.23782086270E+02 -0.21353750094E+02  0.54124661244E+02  0.47000000000E+01 0.  1.
         11    1    6    6    0    0 -0.46497712413E+02  0.74640340391E+02 -0.17140073510E+03  0.19264327049E+03  0.00000000000E+00 0. -1.
        -12    1    6    6    0    0  0.33006025360E+02  0.18326709582E+02 -0.76216690307E+02  0.85054393629E+02  0.00000000000E+00 0.  1.
</event>
<event>
12    1  0.8331241E-002  0.2180608E+03  0.7818608E-02  0.1135500E+00
         21   -1    0    0  501  502  0.00000000000E+00  0.00000000000E+00  0.31116904116E+03  0.31116904116E+03  0.00000000000E+00 0.  1.
         21   -1    0    0  502  503 -0.00000000000E+00 -0.00000000000E+00 -0.17971689059E+03  0.17971689059E+03  0.00000000000E+00 0. -1.
         -6    2    1    2    0  503  0.12854071534E+03  0.38025755517E+02 -0.30407460776E+02  0.21931814025E+03  0.17090102221E+03 0.  0.
        -24    2    3    3    0    0  0.92660449228E-01  0.32453281279E+02 -0.26286742791E+02  0.90597413134E+02  0.80396979846E+02 0.  0.
          6    2    1    2  501    0 -0.12854071534E+03 -0.38025755517E+02  0.16185961135E+03  0.27156779150E+03  0.17199377318E+03 0.  0.
         24    2    5    5    0    0 -0.43812464285E+02 -0.19816953642E+02  0.20426732915E+01  0.89705259124E+02  0.75700840959E+02 0.  0.
          5    1    5    5  501    0 -0.84728251052E+02 -0.18208801875E+02  0.15981693806E+03  0.18186253238E+03  0.47000000000E+01 0. -1.
        -11    1    6    6    0    0 -0.29659088530E+02 -0.45390255338E+02  0.17063631225E+02  0.56842803614E+02  0.00000000000E+00 0.  1.
         12    1    6    6    0    0 -0.14153375755E+02  0.25573301696E+02 -0.15020957933E+02  0.32862455510E+02  0.00000000000E+00 0. -1.
         -5    1    3    3    0  503  0.12844805489E+03  0.55724742381E+01 -0.41207179849E+01  0.12872072712E+03  0.47000000000E+01 0.  1.
         13    1    4    4    0    0 -0.13706907534E+02 -0.23268373552E+02  0.10283251880E+01  0.27025061972E+02  0.00000000000E+00 0. -1.
        -14    1    4    4    0    0  0.13799567983E+02  0.55721654831E+02 -0.27315067979E+02  0.63572351162E+02  0.00000000000E+00 0.  1.
</event>
<event>
12    1  0.8331241E-002  0.1850587E+03  0.7818608E-02  0.1166221E+00
         21   -1    0    0  501  502  0.00000000000E+00  0.00000000000E+00  0.31730873536E+03  0.31730873536E+03  0.00000000000E+00 0.  1.
         21   -1    0    0  502  503 -0.00000000000E+00 -0.00000000000E+00 -0.13049240295E+03  0.13049240295E+03  0.00000000000E+00 0. -1.
         -6    2    1    2    0  503  0.22200099751E+02  0.65109570845E+02 -0.11523608956E+02  0.18541710967E+03  0.17179816749E+03 0.  0.
        -24    2    3    3    0    0 -0.30670541262E+02  0.26133987215E+02  0.43593873112E+02  0.99542622020E+02  0.79903945063E+02 0.  0.
          6    2    1    2  501    0 -0.22200099751E+02 -0.65109570845E+02  0.19833994136E+03  0.26238402863E+03  0.15739931861E+03 0.  0.
         24    2    5    5    0    0 -0.39368139018E+02  0.87426411788E+01  0.15216917165E+03  0.17348678026E+03  0.72910369494E+02 0.  0.
          5    1    5    5  501    0  0.17168039266E+02 -0.73852212024E+02  0.46170769715E+02  0.88897248378E+02  0.47000000000E+01 0. -1.
        -11    1    6    6    0    0 -0.26805694353E+02 -0.15729648655E+02  0.13999746060E+03  0.14340591366E+03  0.00000000000E+00 0.  1.
         12    1    6    6    0    0 -0.12562444665E+02  0.24472289834E+02  0.12171711044E+02  0.30080866600E+02  0.00000000000E+00 0. -1.
         -5    1    3    3    0  503  0.52870641014E+02  0.38975583630E+02 -0.55117482068E+02  0.85874487655E+02  0.47000000000E+01 0.  1.
         11    1    4    4    0    0  0.23602566269E+02 -0.50844898726E+01  0.16907108689E+01  0.24203133578E+02  0.00000000000E+00 0. -1.
        -12    1    4    4    0    0 -0.54273107531E+02  0.31218477088E+02  0.41903162243E+02  0.75339488442E+02  0.00000000000E+00 0.  1.
</event>
<event>
12    1  0.8331241E-002  0.1814683E+03  0.7818608E-02  0.1166820E+00
         21   -1    0    0  501  502  0.00000000000E+00  0.00000000000E+00  0.22433221458E+03  0.22433221458E+03  0.00000000000E+00 0.  1.
         21   -1    0    0  502  503 -0.00000000000E+00 -0.00000000000E+00 -0.37310739145E+03  0.37310739145E+03  0.00000000000E+00 0.  1.
         -6    2    1    2    0  503 -0.18382369982E+02 -0.53337150155E+02 -0.30792011942E+03  0.35741506111E+03  0.17247597759E+03 0.  0.
        -24    2    3    3    0    0 -0.11962350855E+02  0.17038410197E+02 -0.67221173203E+02  0.10651267201E+03  0.79955349495E+02 0.  0.
          6    2    1    2  501    0  0.18382369982E+02  0.53337150155E+02  0.15914494255E+03  0.24002454492E+03  0.17059280850E+03 0.  0.
         24    2    5    5    0    0  0.14341954451E+02  0.97221826565E+02  0.12976071475E+03  0.18684830376E+03  0.91742412798E+02 0.  0.
          5    1    5    5  501    0  0.40404155304E+01 -0.43884676410E+02  0.29384227802E+02  0.53176241169E+02  0.47000000000E+01 0. -1.
        -11    1    6    6    0    0  0.38925727994E+02  0.56842184597E+01  0.44069299034E+02  0.59073054405E+02  0.00000000000E+00 0.  1.
         12    1    6    6    0    0 -0.24583773543E+02  0.91537608106E+02  0.85691415714E+02  0.12777524935E+03  0.00000000000E+00 0. -1.
         -5    1    3    3    0  503 -0.64200191264E+01 -0.70375560352E+02 -0.24069894622E+03  0.25090238909E+03  0.47000000000E+01 0.  1.
         13    1    4    4    0    0  0.16516216535E+02  0.72407153497E+01 -0.73558052481E+02  0.75736387900E+02  0.00000000000E+00 0. -1.
        -14    1    4    4    0    0 -0.28478567391E+02  0.97976948472E+01  0.63368792772E+01  0.30776284115E+02  0.00000000000E+00 0.  1.
</event>
<event>
12    1  0.8331241E-002  0.1869804E+03  0.7818608E-02  0.1161292E+00
         21   -1    0    0  503  502  0.00000000000E+00  0.00000000000E+00  0.18057196135E+03  0.18057196135E+03  0.00000000000E+00 0. -1.
         21   -1    0    0  501  503 -0.00000000000E+00 -0.00000000000E+00 -0.19337363777E+03  0.19337363777E+03  0.00000000000E+00 0.  1.
          6    2    1    2  501    0 -0.47165064216E+02 -0.55214108807E+02 -0.19169541501E+01  0.18699020574E+03  0.17230357291E+03 0.  0.
         24    2    3    3    0    0  0.39765927519E+02 -0.41423078897E+02 -0.69478895383E+01  0.98703229690E+02  0.79980334617E+02 0.  0.
         -6    2    1    2    0  502  0.47165064216E+02  0.55214108807E+02 -0.10884722264E+02  0.18695539337E+03  0.17193225654E+03 0.  0.
        -24    2    5    5    0    0  0.64701704866E+02  0.15901331369E+01 -0.55102662948E+02  0.11511960278E+03  0.77636205112E+02 0.  0.
          5    1    3    3  501    0 -0.86930991735E+02 -0.13791029910E+02  0.50309353882E+01  0.88286976055E+02  0.47000000000E+01 0. -1.
        -13    1    4    4    0    0  0.85315385542E+00 -0.12677855104E+02 -0.38768540662E+02  0.40797740460E+02  0.00000000000E+00 0.  1.
         14    1    4    4    0    0  0.38912773663E+02 -0.28745223793E+02  0.31820651124E+02  0.57905489230E+02  0.00000000000E+00 0. -1.
         -5    1    5    5    0  502 -0.17536640650E+02  0.53623975670E+02  0.44217940685E+02  0.71835790595E+02  0.47000000000E+01 0.  1.
         11    1    6    6    0    0  0.38058908466E+02 -0.12363796618E+02  0.11839558749E+02  0.41731512455E+02  0.00000000000E+00 0. -1.
        -12    1    6    6    0    0  0.26642796400E+02  0.13953929755E+02 -0.66942221698E+02  0.73388090325E+02  0.00000000000E+00 0.  1.
</event>
<event>
12    1  0.8331241E-002  0.2259594E+03  0.7818608E-02  0.1129529E+00
         21   -1    0    0  501  502  0.00000000000E+00  0.00000000000E+00  0.15871314440E+03  0.15871314440E+03  0.00000000000E+00 0.  1.
         21   -1    0    0  502  503 -0.00000000000E+00 -0.00000000000E+00 -0.11639839438E+04  0.11639839438E+04  0.00000000000E+00 0.  1.
         -6    2    1    2    0  503  0.47213681936E+02  0.13847082128E+03 -0.10652299952E+04  0.10889178420E+04  0.17211572816E+03 0.  0.
        -24    2    3    3    0    0 -0.99284487654E+01  0.86156758043E+01 -0.48078959436E+03  0.48748600544E+03  0.79442856791E+02 0.  0.
          6    2    1    2  501    0 -0.47213681936E+02 -0.13847082128E+03  0.59959195793E+02  0.23377924619E+03  0.17220432829E+03 0.  0.
         24    2    5    5    0    0  0.19299188862E+02 -0.83783615762E+02  0.84354486434E+02  0.14415853076E+03  0.79207636296E+02 0.  0.
          5    1    5    5  501    0 -0.66512870798E+02 -0.54687205515E+02 -0.24395290640E+02  0.89620715430E+02  0.47000000000E+01 0. -1.
        -13    1    6    6    0    0 -0.14481585716E+02 -0.33826774390E+02 -0.41835178379E+01  0.37033347296E+02  0.00000000000E+00 0.  1.
         14    1    6    6    0    0  0.33780774579E+02 -0.49956841372E+02  0.88538004272E+02  0.10712518346E+03  0.00000000000E+00 0. -1.
         -5    1    3    3    0  503  0.57142130701E+02  0.12985514547E+03 -0.58444040082E+03  0.60143183655E+03  0.47000000000E+01 0.  1.
         13    1    4    4    0    0  0.34302112130E+02 -0.33498604385E+01 -0.22510819223E+03  0.22773132123E+03  0.00000000000E+00 0. -1.
        -14    1    4    4    0    0 -0.44230560895E+02  0.11965536243E+02 -0.25568140213E+03  0.25975468421E+03  0.00000000000E+00 0.  1.
</event>
<event>
12    1  0.8331241E-002  0.1755851E+03  0.7818608E-02  0.1172231E+00
         21   -1    0    0  503  502  0.00000000000E+00  0.00000000000E+00  0.10322486783E+04  0.10322486783E+04  0.00000000000E+00 0.  1.
         21   -1    0    0  501  503 -0.00000000000E+00 -0.00000000000E+00 -0.32406378176E+02  0.32406378176E+02  0.00000000000E+00 0.  1.
          6    2    1    2  501    0  0.35892415266E+02 -0.25206454948E+01  0.34965458442E+03  0.39126520677E+03  0.17185899595E+03 0.  0.
         24    2    3    3    0    0  0.29338975178E+02 -0.53733791427E+02  0.13731860861E+03  0.17269167104E+03  0.84958326085E+02 0.  0.
         -6    2    1    2    0  502 -0.35892415266E+02  0.25206454948E+01  0.65018771572E+03  0.67338984973E+03  0.17150861471E+03 0.  0.
        -24    2    5    5    0    0  0.38560770469E+02  0.24095140306E+02  0.26555552627E+03  0.28099623758E+03  0.79822548181E+02 0.  0.
          5    1    3    3  501    0  0.65534400876E+01  0.51213145932E+02  0.21233597582E+03  0.21857353573E+03  0.47000000000E+01 0. -1.
        -11    1    4    4    0    0  0.31754031259E+02 -0.45843121252E+00  0.79139101991E+01  0.32728559929E+02  0.00000000000E+00 0.  1.
         12    1    4    4    0    0 -0.24150560809E+01 -0.53275360214E+02  0.12940469841E+03  0.13996311111E+03  0.00000000000E+00 0. -1.
         -5    1    5    5    0  502 -0.74453185735E+02 -0.21574494812E+02  0.38463218945E+03  0.39239361215E+03  0.47000000000E+01 0.  1.
         13    1    6    6    0    0  0.23702742595E+02  0.53515991122E+02  0.18176402314E+03  0.19095533881E+03  0.00000000000E+00 0. -1.
        -14    1    6    6    0    0  0.14858027875E+02 -0.29420850816E+02  0.83791503133E+02  0.90040898775E+02  0.00000000000E+00 0.  1.
</event>
<event>
12    1  0.8331241E-002  0.3084219E+03  0.7818608E-02  0.1081175E+00
         21   -1    0    0  501  502  0.00000000000E+00  0.00000000000E+00  0.39930276401E+03  0.39930276401E+03  0.00000000000E+00 0.  1.
         21   -1    0    0  502  503 -0.00000000000E+00 -0.00000000000E+00 -0.28271380433E+03  0.28271380433E+03  0.00000000000E+00 0. -1.
         -6    2    1    2    0  503 -0.24008533274E+03 -0.87644360468E+02 -0.77703604382E+02  0.31749817558E+03  0.17159469818E+03 0.  0.
        -24    2    3    3    0    0 -0.87030157362E+02  0.20041997687E+02 -0.18082206622E+02  0.12103179293E+03  0.79660521847E+02 0.  0.
          6    2    1    2  501    0  0.24008533274E+03  0.87644360468E+02  0.19429256407E+03  0.36451839275E+03  0.17263127551E+03 0.  0.
         24    2    5    5    0    0  0.24420177748E+03  0.54888867982E+02  0.20039640337E+03  0.33061832993E+03  0.80637867333E+02 0.  0.
          5    1    5    5  501    0 -0.41164447376E+01  0.32755492485E+02 -0.61038393025E+01  0.33900062824E+02  0.47000000000E+01 0. -1.
        -11    1    6    6    0    0  0.92176341765E+02  0.28816387197E+02  0.12768376655E+03  0.16009374252E+03  0.00000000000E+00 0.  1.
         12    1    6    6    0    0  0.15202543571E+03  0.26072480785E+02  0.72712636817E+02  0.17052458741E+03  0.00000000000E+00 0. -1.
         -5    1    3    3    0  503 -0.15305517538E+03 -0.10768635815E+03 -0.59621397761E+02  0.19646638266E+03  0.47000000000E+01 0.  1.
         11    1    4    4    0    0 -0.92013980744E+02  0.21616280313E+02 -0.36926502839E+02  0.10147611955E+03  0.00000000000E+00 0. -1.
        -12    1    4    4    0    0  0.49838233815E+01 -0.15742826264E+01  0.18844296218E+02  0.19555673377E+02  0.00000000000E+00 0.  1.
</event>
<event>
12    1  0.8331241E-002  0.2334266E+03  0.7818608E-02  0.1124275E+00
         21   -1    0    0  501  502  0.00000000000E+00  0.00000000000E+00  0.17191055963E+03  0.17191055963E+03  0.00000000000E+00 0. -1.
         21   -1    0    0  502  503 -0.00000000000E+00 -0.00000000000E+00 -0.52126503361E+03  0.52126503361E+03  0.00000000000E+00 0.  1.
         -6    2    1    2    0  503  0.90426386581E+02 -0.12732622346E+03 -0.39172996364E+03  0.45593378339E+03  0.17330421765E+03 0.  0.
        -24    2    3    3    0    0  0.39853127604E+02 -0.39585297738E+02 -0.73317209829E+02  0.12177080465E+03  0.79356461816E+02 0.  0.
          6    2    1    2  501    0 -0.90426386581E+02  0.12732622346E+03  0.42375489656E+02  0.23724180985E+03  0.17349090940E+03 0.  0.
         24    2    5    5    0    0  0.17798998011E+02  0.28056165486E+02  0.21013853738E+02  0.88763906541E+02  0.79583266480E+02 0.  0.
          5    1    5    5  501    0 -0.10822538459E+03  0.99270057977E+02  0.21361635918E+02  0.14847790331E+03  0.47000000000E+01 0. -1.
        -11    1    6    6    0    0  0.22764572392E+01  0.54667500144E+02  0.79038818453E+01  0.55282810871E+02  0.00000000000E+00 0.  1.
         12    1    6    6    0    0  0.15522540772E+02 -0.26611334658E+02  0.13109971893E+02  0.33481095671E+02  0.00000000000E+00 0. -1.
         -5    1    3    3    0  503  0.50573258977E+02 -0.87740925725E+02 -0.31841275381E+03  0.33416297874E+03  0.47000000000E+01 0.  1.
         13    1    4    4    0    0  0.93086865306E+01  0.16789601197E+02  0.56871967553E+01  0.20022151738E+02  0.00000000000E+00 0. -1.
        -14    1    4    4    0    0  0.30544441074E+02 -0.56374898935E+02 -0.79004406585E+02  0.10174865292E+03  0.00000000000E+00 0.  1.
</event>
<event>
12    1  0.8331241E-002  0.2145586E+03  0.7818608E-02  0.1138121E+00
         21   -1    0    0  503  502  0.00000000000E+00  0.00000000000E+00  0.92342178038E+02  0.92342178038E+02  0.00000000000E+00 0.  1.
         21   -1    0    0  501  503 -0.00000000000E+00 -0.00000000000E+00 -0.52888668894E+03  0.52888668894E+03  0.00000000000E+00 0.  1.
          6    2    1    2  501    0  0.79768570146E+02  0.10130204902E+03 -0.29465153824E+03  0.36449269390E+03  0.17149421274E+03 0.  0.
         24    2    3    3    0    0  0.90050315517E+02  0.10051110172E+03 -0.30918616559E+03  0.34606214107E+03  0.77145185179E+02 0.  0.
         -6    2    1    2    0  502 -0.79768570146E+02 -0.10130204902E+03 -0.14189297266E+03  0.25673617307E+03  0.17074752401E+03 0.  0.
        -24    2    5    5    0    0 -0.11243350422E+03 -0.66863046847E+02 -0.64274527181E+02  0.16563317715E+03  0.78684017586E+02 0.  0.
          5    1    3    3  501    0 -0.10281745371E+02  0.79094729511E+00  0.14534627350E+02  0.18430552832E+02  0.47000000000E+01 0. -1.
        -13    1    4    4    0    0  0.47754838307E+02  0.99508961054E+02 -0.19188873494E+03  0.22136811990E+03  0.00000000000E+00 0.  1.
         14    1    4    4    0    0  0.42295477211E+02  0.10021406665E+01 -0.11729743065E+03  0.12469402117E+03  0.00000000000E+00 0. -1.
         -5    1    5    5    0  502  0.32664934070E+02 -0.34439002169E+02 -0.77618445477E+02  0.91102995925E+02  0.47000000000E+01 0.  1.
         11    1    6    6    0    0 -0.16324235637E+02  0.13346968997E+02 -0.28475175370E+02  0.35432440826E+02  0.00000000000E+00 0. -1.
        -12    1    6    6    0    0 -0.96109268580E+02 -0.80210015843E+02 -0.35799351811E+02  0.13020073632E+03  0.00000000000E+00 0.  1.
</event>
<event>
12    1  0.8331241E-002  0.2429176E+03  0.7818608E-02  0.1118365E+00
         21   -1    0    0  501  502  0.00000000000E+00  0.00000000000E+00  0.13418573259E+04  0.13418573259E+04  0.00000000000E+00 0. -1.
         21   -1    0    0  502  503 -0.00000000000E+00 -0.00000000000E+00 -0.66714747046E+02  0.66714747046E+02  0.00000000000E+00 0. -1.
         -6    2    1    2    0  503 -0.10776692093E+03  0.13349925255E+03  0.21888226591E+03  0.32473868114E+03  0.16766038595E+03 0.  0.
        -24    2    3    3    0    0 -0.77100173164E+02  0.15907310300E+03  0.20436496831E+03  0.28199159732E+03  0.80656877476E+02 0.  0.
          6    2    1    2  501    0  0.10776692093E+03 -0.13349925255E+03  0.10562603130E+04  0.10838333919E+04  0.17196863909E+03 0.  0.
         24    2    5    5    0    0  0.34324145514E+02 -0.11127143036E+03  0.42205048051E+03  0.44498120320E+03  0.79512168386E+02 0.  0.
          5    1    5    5  501    0  0.73442775418E+02 -0.22227822188E+02  0.63420983248E+03  0.63885218865E+03  0.47000000000E+01 0. -1.
        -11    1    6    6    0    0  0.29799433016E+01 -0.30203785643E+02  0.25378637276E+03  0.25559474120E+03  0.00000000000E+00 0.  1.
         12    1    6    6    0    0  0.31344202213E+02 -0.81067644718E+02  0.16826410776E+03  0.18938646201E+03  0.00000000000E+00 0. -1.
         -5    1    3    3    0  503 -0.30666747769E+02 -0.25573850451E+02  0.14517297603E+02  0.42747083822E+02  0.47000000000E+01 0.  1.
         11    1    4    4    0    0 -0.90060788499E+02  0.10330721305E+03  0.14414902644E+03  0.19890265890E+03  0.00000000000E+00 0. -1.
        -12    1    4    4    0    0  0.12960615336E+02  0.55765889955E+02  0.60215941868E+02  0.83088938418E+02  0.00000000000E+00 0.  1.
</event>
<event>
12    1  0.8331241E-002  0.1992859E+03  0.7818608E-02  0.1151535E+00
         21   -1    0    0  503  502  0.00000000000E+00  0.00000000000E+00  0.23670702549E+03  0.23670702549E+03  0.00000000000E+00 0. -1.
         21   -1    0    0  501  503 -0.00000000000E+00 -0.00000000000E+00 -0.25270948511E+03  0.25270948511E+03  0.00000000000E+00 0. -1.
          6    2    1    2  501    0 -0.87033631719E+02 -0.41214080942E+02 -0.15374278601E+03  0.25169766017E+03  0.17447468117E+03 0.  0.
         24    2    3    3    0    0 -0.94368999258E+02 -0.87809044126E+02 -0.12908704199E+03  0.19826645277E+03  0.77654269902E+02 0.  0.
         -6    2    1    2    0  502  0.87033631719E+02  0.41214080942E+02  0.13774032638E+03  0.23771885043E+03  0.16812019754E+03 0.  0.
        -24    2    5    5    0    0  0.14749179455E+02  0.67176576101E+02  0.11893353403E+03  0.15850471891E+03  0.79046377083E+02 0.  0.
          5    1    3    3  501    0  0.73353675390E+01  0.46594963184E+02 -0.24655744019E+02  0.53431207399E+02  0.47000000000E+01 0. -1.
        -13    1    4    4    0    0 -0.32003654406E+02  0.70412235116E+01 -0.11250515028E+02  0.34646598855E+02  0.00000000000E+00 0.  1.
         14    1    4    4    0    0 -0.62365344852E+02 -0.94850267637E+02 -0.11783652696E+03  0.16361985391E+03  0.00000000000E+00 0. -1.
         -5    1    5    5    0  502  0.72284452264E+02 -0.25962495158E+02  0.18806792354E+02  0.79214131520E+02  0.47000000000E+01 0.  1.
         11    1    6    6    0    0  0.17211126313E+02 -0.14487878190E+02  0.19181394459E+02  0.29564292260E+02  0.00000000000E+00 0. -1.
        -12    1    6    6    0    0 -0.24619468572E+01  0.81664454291E+02  0.99752139567E+02  0.12894042665E+03  0.00000000000E+00 0.  1.
</event>
<event>
12    1  0.8331241E-002  0.4800779E+03  0.7818608E-02  0.1019183E+00
         21   -1    0    0  501  502  0.00000000000E+00  0.00000000000E+00  0.38633072245E+03  0.38633072245E+03  0.00000000000E+00 0.  1.
         21   -1    0    0  502  503 -0.00000000000E+00 -0.00000000000E+00 -0.10413793275E+04  0.10413793275E+04  0.00000000000E+00 0.  1.
         -6    2    1    2    0  503 -0.37576890951E+03 -0.24555403251E+03  0.13987418937E+03  0.49906748525E+03  0.16734548020E+03 0.  0.
        -24    2    3    3    0    0 -0.12222887113E+03 -0.45013784743E+02  0.72854629682E+02  0.16889684237E+03  0.79070908321E+02 0.  0.
          6    2    1    2  501    0  0.37576890951E+03  0.24555403251E+03 -0.79492279446E+03  0.92864256475E+03  0.17022252398E+03 0.  0.
         24    2    5    5    0    0  0.16259221218E+03  0.13627611913E+03 -0.27354325823E+03  0.35484410062E+03  0.77980853502E+02 0.  0.
          5    1    5    5  501    0  0.21317669733E+03  0.10927791338E+03 -0.52137953624E+03  0.57379846414E+03  0.47000000000E+01 0. -1.
        -13    1    6    6    0    0  0.10527645583E+03  0.67221864658E+02 -0.21188573817E+03  0.24596234932E+03  0.00000000000E+00 0.  1.
         14    1    6    6    0    0  0.57315756349E+02  0.69054254473E+02 -0.61657520056E+02  0.10888175130E+03  0.00000000000E+00 0. -1.
         -5    1    3    3    0  503 -0.25354003839E+03 -0.20054024776E+03  0.67019559686E+02  0.33017064288E+03  0.47000000000E+01 0.  1.
         11    1    4    4    0    0 -0.45098648353E+02 -0.58264531762E+02  0.41717588684E+02  0.84669953055E+02  0.00000000000E+00 0. -1.
        -12    1    4    4    0    0 -0.77130222774E+02  0.13250747019E+02  0.31137040999E+02  0.84226889316E+02  0.00000000000E+00 0.  1.
</event>
<event>
12    1  0.8331241E-002  0.2147845E+03  0.7818608E-02  0.1138557E+00
         21   -1    0    0  501  502  0.00000000000E+00  0.00000000000E+00  0.57989293833E+02  0.57989293833E+02  0.00000000000E+00 0. -1.
         21   -1    0    0  502  503 -0.00000000000E+00 -0.00000000000E+00 -0.14290949145E+04  0.14290949145E+04  0.00000000000E+00 0. -1.
         -6    2    1    2    0  503 -0.12023142002E+03  0.20142569651E+02 -0.11826786985E+04  0.12013621925E+04  0.17228144487E+03 0.  0.
        -24    2    3    3    0    0 -0.81979557270E+02 -0.37935595569E+02 -0.46608354906E+03  0.48138512588E+03  0.79611604012E+02 0.  0.
          6    2    1    2  501    0  0.12023142002E+03 -0.20142569651E+02 -0.18842692216E+03  0.28572201581E+03  0.17683621759E+03 0.  0.
         24    2    5    5    0    0  0.97667129380E+02  0.13883346193E+02 -0.20501258996E+03  0.24140402243E+03  0.80710126619E+02 0.  0.
          5    1    5    5  501    0  0.22564290644E+02 -0.34025915844E+02  0.16585667800E+02  0.44317993384E+02  0.47000000000E+01 0. -1.
        -11    1    6    6    0    0 -0.52276318335E+01  0.23484499340E+02 -0.35929245079E+02  0.43240727281E+02  0.00000000000E+00 0.  1.
         12    1    6    6    0    0  0.10289476121E+03 -0.96011531471E+01 -0.16908334488E+03  0.19816329515E+03  0.00000000000E+00 0. -1.
         -5    1    3    3    0  503 -0.38251862754E+02  0.58078165220E+02 -0.71659514944E+03  0.71997706664E+03  0.47000000000E+01 0.  1.
         13    1    4    4    0    0 -0.74902580316E+02  0.66671805164E+01 -0.28462945111E+03  0.29439560505E+03  0.00000000000E+00 0. -1.
        -14    1    4    4    0    0 -0.70769769538E+01 -0.44602776085E+02 -0.18145409796E+03  0.18698952084E+03  0.00000000000E+00 0.  1.
</event>
<event>
12    1  0.8331241E-002  0.1907863E+03  0.7818608E-02  0.1157802E+00
         21   -1    0    0  501  502  0.00000000000E+00  0.00000000000E+00  0.59549787655E+03  0.59549787655E+03  0.00000000000E+00 0.  1.
         21   -1    0    0  502  503 -0.00000000000E+00 -0.00000000000E+00 -0.75714953725E+02  0.75714953725E+02  0.00000000000E+00 0.  1.
         -6    2    1    2    0  503  0.73191745931E+01  0.80853533379E+02  0.11210091464E+03  0.22109725972E+03  0.17241380170E+03 0.  0.
        -24    2    3    3    0    0 -0.50701277010E+02  0.82591792555E+02  0.10236438880E+03  0.16205249463E+03  0.79940723255E+02 0.  0.
          6    2    1    2  501    0 -0.73191745931E+01 -0.80853533379E+02  0.40768200819E+03  0.45011557055E+03  0.17265150703E+03 0.  0.
         24    2    5    5    0    0  0.49783337797E+02 -0.77180366302E+02  0.34591955362E+03  0.36578953737E+03  0.75541104125E+02 0.  0.
          5    1    5    5  501    0 -0.57102512390E+02 -0.36731670777E+01  0.61762454569E+02  0.84326033181E+02  0.47000000000E+01 0. -1.
        -11    1    6    6    0    0 -0.14493668516E+02 -0.43980071789E+02  0.14712506058E+03  0.15424038573E+03  0.00000000000E+00 0.  1.
         12    1    6    6    0    0  0.64277006312E+02 -0.33200294513E+02  0.19879449304E+03  0.21154915164E+03  0.00000000000E+00 0. -1.
         -5    1    3    3    0  503  0.58020451603E+02 -0.17382591757E+01  0.97365258420E+01  0.59044765091E+02  0.47000000000E+01 0.  1.
         11    1    4    4    0    0 -0.27432030424E+00  0.10082836544E+02  0.65625230986E+02  0.66395856696E+02  0.00000000000E+00 0. -1.
        -12    1    4    4    0    0 -0.50426956706E+02  0.72508956011E+02  0.36739157812E+02  0.95656637936E+02  0.00000000000E+00 0.  1.
</event>
<event>
12    1  0.8331241E-002  0.1987001E+03  0.7818608E-02  0.1151420E+00
         21   -1    0    0  503  502  0.00000000000E+00  0.00000000000E+00  0.57481897479E+03  0.57481897479E+03  0.00000000000E+00 0. -1.
         21   -1    0    0  501  503 -0.00000000000E+00 -0.00000000000E+00 -0.94901386193E+02  0.94901386193E+02  0.00000000000E+00 0. -1.
          6    2    1    2  501    0 -0.81896389090E+02  0.53092302980E+02  0.59687908592E+02  0.20488199455E+03  0.16996521431E+03 0.  0.
         24    2    3    3    0    0 -0.76832943035E+02  0.74799695912E+02  0.94015631501E+02  0.16368330581E+03  0.80342952335E+02 0.  0.
         -6    2    1    2    0  502  0.81896389090E+02 -0.53092302980E+02  0.42022968001E+03  0.46483836644E+03  0.17307776221E+03 0.  0.
        -24    2    5    5    0    0  0.62512451947E+02 -0.88588683486E+02  0.39408647974E+03  0.41645151938E+03  0.79824513696E+02 0.  0.
          5    1    3    3  501    0 -0.50634460554E+01 -0.21707392932E+02 -0.34327722909E+02  0.41198688741E+02  0.47000000000E+01 0. -1.
        -11    1    4    4    0    0 -0.75877672773E+02  0.25773801248E+02  0.78684144942E+02  0.11230718909E+03  0.00000000000E+00 0.  1.
         12    1    4    4    0    0 -0.95527026188E+00  0.49025894664E+02  0.15331486559E+02  0.51376116717E+02  0.00000000000E+00 0. -1.
         -5    1    5    5    0  502  0.19383937144E+02  0.35496380507E+02  0.26143200271E+02  0.48386847063E+02  0.47000000000E+01 0.  1.
         11    1    6    6    0    0  0.36972282248E+02 -0.14756107824E+02  0.24422961208E+03  0.24745261322E+03  0.00000000000E+00 0. -1.
        -12    1    6    6    0    0  0.25540169699E+02 -0.73832575662E+02  0.14985686766E+03  0.16899890616E+03  0.00000000000E+00 0.  1.
</event>
<event>
12    1  0.8331241E-002  0.2375602E+03  0.7818608E-02  0.1122136E+00
         21   -1    0    0  503  502  0.00000000000E+00  0.00000000000E+00  0.72736404179E+03  0.72736404179E+03  0.00000000000E+00 0.  1.
         21   -1    0    0  501  503 -0.00000000000E+00 -0.00000000000E+00 -0.10730801584E+03  0.10730801584E+03  0.00000000000E+00 0. -1.
          6    2    1    2  501    0  0.10816284189E+03  0.11584768955E+03  0.83526686869E+02  0.24790246007E+03  0.17134478326E+03 0.  0.
         24    2    3    3    0    0  0.29364133167E+02  0.12463953495E+03  0.74360325801E+02  0.16794844068E+03  0.79246165096E+02 0.  0.
         -6    2    1    2    0  502 -0.10816284189E+03 -0.11584768955E+03  0.53652933908E+03  0.58676959756E+03  0.17696028195E+03 0.  0.
        -24    2    5    5    0    0 -0.24201555002E+02 -0.29303318196E+02  0.37414844222E+03  0.38446025132E+03  0.79863811025E+02 0.  0.
          5    1    3    3  501    0  0.78798708724E+02 -0.87918454031E+01  0.91663610675E+01  0.79954019395E+02  0.47000000000E+01 0. -1.
        -11    1    4    4    0    0  0.29425597665E+02  0.23097448749E+02  0.51859099394E+02  0.63943131974E+02  0.00000000000E+00 0.  1.
         12    1    4    4    0    0 -0.61464497908E-01  0.10154208620E+03  0.22501226407E+02  0.10400530870E+03  0.00000000000E+00 0. -1.
         -5    1    5    5    0  502 -0.83961286890E+02 -0.86544371354E+02  0.16238089686E+03  0.20230934624E+03  0.47000000000E+01 0.  1.
         11    1    6    6    0    0 -0.19958724613E+02  0.69841971195E+01  0.22342191685E+02  0.30762041982E+02  0.00000000000E+00 0. -1.
        -12    1    6    6    0    0 -0.42428303892E+01 -0.36287515315E+02  0.35180625053E+03  0.35369820934E+03  0.00000000000E+00 0.  1.
</event>
<event>
12    1  0.8331241E-002  0.2366668E+03  0.7818608E-02  0.1122167E+00
         21   -1    0    0  501  502  0.00000000000E+00  0.00000000000E+00  0.18155134595E+03  0.18155134595E+03  0.00000000000E+00 0. -1.
         21   -1    0    0  502  503 -0.00000000000E+00 -0.00000000000E+00 -0.30749235471E+03  0.30749235471E+03  0.00000000000E+00 0.  1.
         -6    2    1    2    0  503  0.38284213456E+02 -0.15812423135E+03 -0.62420482552E+02  0.24400076418E+03  0.17079549976E+03 0.  0.
        -24    2    3    3    0    0 -0.29176152235E+01 -0.16569439147E+03 -0.76878509781E+02  0.19943595113E+03  0.80007808948E+02 0.  0.
          6    2    1    2  501    0 -0.38284213456E+02  0.15812423135E+03 -0.63520526202E+02  0.24504293648E+03  0.17187853249E+03 0.  0.
         24    2    5    5    0    0 -0.88001811884E+02  0.89480407366E+02 -0.17223740855E+02  0.14835117624E+03  0.77203316292E+02 0.  0.
          5    1    5    5  501    0  0.49717598429E+02  0.68643823982E+02 -0.46296785347E+02  0.96691760238E+02  0.47000000000E+01 0. -1.
        -13    1    6    6    0    0 -0.70202053846E+02  0.16895325084E+02 -0.29645710438E+01  0.72267344322E+02  0.00000000000E+00 0.  1.
         14    1    6    6    0    0 -0.17799758038E+02  0.72585082282E+02 -0.14259169811E+02  0.76083831922E+02  0.00000000000E+00 0. -1.
         -5    1    3    3    0  503  0.41201828679E+02  0.75701601235E+01  0.14458027228E+02  0.44564813050E+02  0.47000000000E+01 0.  1.
         11    1    4    4    0    0 -0.36977113107E+02 -0.88397236229E+02 -0.20811731553E+02  0.98053589618E+02  0.00000000000E+00 0. -1.
        -12    1    4    4    0    0  0.34059497884E+02 -0.77297155243E+02 -0.56066778228E+02  0.10138236151E+03  0.00000000000E+00 0.  1.
</event>
<event>
12    1  0.8331241E-002  0.2934245E+03  0.7818608E-02  0.1088656E+00
         21   -1    0    0  501  502  0.00000000000E+00  0.00000000000E+00  0.50990688499E+02  0.50990688499E+02  0.00000000000E+00 0.  1.
         21   -1    0    0  502  503 -0.00000000000E+00 -0.00000000000E+00 -0.17650188265E+04  0.17650188265E+04  0.00000000000E+00 0. -1.
         -6    2    1    2    0  503 -0.20458624282E+03 -0.11898840974E+03 -0.10513631215E+04  0.10915412697E+04  0.17344785276E+03 0.  0.
        -24    2    3    3    0    0 -0.19232624355E+03 -0.98222205610E+02 -0.10388206370E+04  0.10639560067E+04  0.78848478852E+02 0.  0.
          6    2    1    2  501    0  0.20458624282E+03  0.11898840974E+03 -0.66266501649E+03  0.72446824537E+03  0.17238196562E+03 0.  0.
         24    2    5    5    0    0  0.30246268320E+02  0.60930966478E+02 -0.30134810513E+03  0.31908312741E+03  0.79849497888E+02 0.  0.
          5    1    5    5  501    0  0.17433997450E+03  0.58057443259E+02 -0.36131691136E+03  0.40538511795E+03  0.47000000000E+01 0. -1.
        -11    1    6    6    0    0  0.54127466469E+01 -0.17854849204E+02 -0.29004544552E+02  0.34487056572E+02  0.00000000000E+00 0.  1.
         12    1    6    6    0    0  0.24833521673E+02  0.78785815682E+02 -0.27234356057E+03  0.28459607084E+03  0.00000000000E+00 0. -1.
         -5    1    3    3    0  503 -0.12259999267E+02 -0.20766204127E+02 -0.12542484530E+02  0.27585262987E+02  0.47000000000E+01 0.  1.
         13    1    4    4    0    0  0.28205343293E+01  0.66358037732E+01 -0.56897742237E+02  0.57352788749E+02  0.00000000000E+00 0. -1.
        -14    1    4    4    0    0 -0.19514677788E+03 -0.10485800938E+03 -0.98192289478E+03  0.10066032179E+04  0.00000000000E+00 0.  1.
</event>
<event>
12    1  0.8331241E-002  0.2984207E+03  0.7818608E-02  0.1086066E+00
         21   -1    0    0  501  502  0.00000000000E+00  0.00000000000E+00  0.41878090310E+03  0.41878090310E+03  0.00000000000E+00 0. -1.
         21   -1    0    0  502  503 -0.00000000000E+00 -0.00000000000E+00 -0.22586842823E+03  0.22586842823E+03  0.00000000000E+00 0.  1.
         -6    2    1    2    0  503  0.62250811237E+02  0.23598345914E+03  0.17501347774E+03  0.34595464611E+03  0.17173102016E+03 0.  0.
        -24    2    3    3    0    0  0.11008349060E+02  0.21809680780E+03  0.17532846736E+03  0.29147610497E+03  0.80813655889E+02 0.  0.
          6    2    1    2  501    0 -0.62250811237E+02 -0.23598345914E+03  0.17898997132E+02  0.29869468522E+03  0.17127400384E+03 0.  0.
         24    2    5    5    0    0  0.85055039093E+01 -0.17781430547E+03  0.52511791700E+02  0.20066284284E+03  0.76274618352E+02 0.  0.
          5    1    5    5  501    0 -0.70756315146E+02 -0.58169153678E+02 -0.34612794568E+02  0.98031842380E+02  0.47000000000E+01 0. -1.
        -13    1    6    6    0    0  0.91130458476E+01 -0.64538013738E+02 -0.17511239006E+02  0.67489601521E+02  0.00000000000E+00 0.  1.
         14    1    6    6    0    0 -0.60754193832E+00 -0.11327629173E+03  0.70023030706E+02  0.13317324132E+03  0.00000000000E+00 0. -1.
         -5    1    3    3    0  503  0.51242462177E+02  0.17886651339E+02 -0.31498962502E+00  0.54478541139E+02  0.47000000000E+01 0.  1.
         11    1    4    4    0    0 -0.24223157047E+02  0.41932713001E+02  0.63512404082E+02  0.79868261714E+02  0.00000000000E+00 0. -1.
        -12    1    4    4    0    0  0.35231506106E+02  0.17616409480E+03  0.11181606328E+03  0.21160784326E+03  0.00000000000E+00 0.  1.
</event>
<event>
12    1  0.8331241E-002  0.1847222E+03  0.7818608E-02  0.1163450E+00
         21   -1    0    0  503  502  0.00000000000E+00  0.00000000000E+00  0.23510214418E+03  0.23510214418E+03  0.00000000000E+00 0. -1.
         21   -1    0    0  501  503 -0.00000000000E+00 -0.00000000000E+00 -0.14475891621E+03  0.14475891621E+03  0.00000000000E+00 0. -1.
          6    2    1    2  501    0  0.40805656491E+02  0.53823844105E+02  0.49862966989E+02  0.19075542736E+03  0.17128692243E+03 0.  0.
         24    2    3    3    0    0 -0.36775067925E+02  0.55836534907E+02  0.17945335419E+02  0.10670993414E+03  0.81208686296E+02 0.  0.
         -6    2    1    2    0  502 -0.40805656491E+02 -0.53823844105E+02  0.40480260977E+02  0.18910563303E+03  0.17193074512E+03 0.  0.
        -24    2    5    5    0    0 -0.41357494252E+02 -0.94325455955E+02  0.59137851333E+02  0.14426278783E+03  0.81894642812E+02 0.  0.
          5    1    3    3  501    0  0.77580724416E+02 -0.20126908024E+01  0.31917631569E+02  0.84045493217E+02  0.47000000000E+01 0. -1.
        -11    1    4    4    0    0  0.16431464260E+02  0.85923572371E+01  0.29280941763E+02  0.34658262668E+02  0.00000000000E+00 0.  1.
         12    1    4    4    0    0 -0.53206532185E+02  0.47244177670E+02 -0.11335606344E+02  0.72051671473E+02  0.00000000000E+00 0. -1.
         -5    1    5    5    0  502  0.55183776192E+00  0.40501611850E+02 -0.18657590356E+02  0.44842845196E+02  0.47000000000E+01 0.  1.
         11    1    6    6    0    0 -0.37876168126E+02 -0.59170110763E+01  0.36506810527E+02  0.52937343595E+02  0.00000000000E+00 0. -1.
        -12    1    6    6    0    0 -0.34813261261E+01 -0.88408444879E+02  0.22631040806E+02  0.91325444239E+02  0.00000000000E+00 0.  1.
</event>
<event>
12    1  0.8331241E-002  0.1887799E+03  0.7818608E-02  0.1160156E+00
         21   -1    0    0  503  502  0.00000000000E+00  0.00000000000E+00  0.42475035248E+02  0.42475035248E+02  0.00000000000E+00 0.  1.
         21   -1    0    0  501  503 -0.00000000000E+00 -0.00000000000E+00 -0.15371903662E+04  0.15371903662E+04  0.00000000000E+00 0.  1.
          6    2    1    2  501    0 -0.53736718016E+02  0.48345499956E+02 -0.12812085224E+04  0.12946688836E+04  0.17160220937E+03 0.  0.
         24    2    3    3    0    0  0.33479655493E+02  0.28057082115E+01 -0.67696652170E+03  0.68245074131E+03  0.79539823190E+02 0.  0.
         -6    2    1    2    0  502  0.53736718016E+02 -0.48345499956E+02 -0.21350680857E+03  0.28499651779E+03  0.17439304922E+03 0.  0.
        -24    2    5    5    0    0  0.27445425044E+01 -0.12646899730E+02 -0.20253951782E+03  0.22161699833E+03  0.89018880478E+02 0.  0.
          5    1    3    3  501    0 -0.87216373509E+02  0.45539791744E+02 -0.60424200066E+03  0.61221814233E+03  0.47000000000E+01 0. -1.
        -13    1    4    4    0    0 -0.20629135861E+02  0.12164311162E+02 -0.35733488255E+03  0.35813649633E+03  0.00000000000E+00 0.  1.
         14    1    4    4    0    0  0.54108791354E+02 -0.93586029501E+01 -0.31963163915E+03  0.32431424498E+03  0.00000000000E+00 0. -1.
         -5    1    5    5    0  502  0.50992175512E+02 -0.35698600226E+02 -0.10967290754E+02  0.63379519468E+02  0.47000000000E+01 0.  1.
         11    1    6    6    0    0 -0.40422666851E+02  0.67622105424E+01 -0.11526846976E+03  0.12233780940E+03  0.00000000000E+00 0. -1.
        -12    1    6    6    0    0  0.43167209356E+02 -0.19409110272E+02 -0.87271048059E+02  0.99279188929E+02  0.00000000000E+00 0.  1.
</event>
<event>
12    1  0.8331241E-002  0.1728473E+03  0.7818608E-02  0.1175710E+00
         21   -1    0    0  503  502  0.00000000000E+00  0.00000000000E+00  0.17073318784E+04  0.17073318784E+04  0.00000000000E+00 0. -1.
         21   -1    0    0  501  503 -0.00000000000E+00 -0.00000000000E+00 -0.65727359509E+02  0.65727359509E+02  0.00000000000E+00 0. -1.
          6    2    1    2  501    0 -0.21987082377E+02 -0.12316442591E+02  0.60892643559E+02  0.18325964864E+03  0.17100017027E+03 0.  0.
         24    2    3    3    0    0  0.29196411786E+02 -0.56253193732E+02  0.25772989982E+02  0.10706471283E+03  0.82351402268E+02 0.  0.
         -6    2    1    2    0  502  0.21987082377E+02  0.12316442591E+02  0.15807118754E+04  0.15897995893E+04  0.16786177249E+03 0.  0.
        -24    2    5    5    0    0 -0.29096320680E+02  0.54009654915E+02  0.10743009679E+04  0.10790923001E+04  0.80956678810E+02 0.  0.
          5    1    3    3  501    0 -0.51183494163E+02  0.43936751141E+02  0.35119653577E+02  0.76194935809E+02  0.47000000000E+01 0. -1.
        -13    1    4    4    0    0 -0.10052198981E+02  0.82833697292E+01  0.28653958973E+02  0.31475550563E+02  0.00000000000E+00 0.  1.
         14    1    4    4    0    0  0.39248610767E+02 -0.64536563461E+02 -0.28809689914E+01  0.75589162271E+02  0.00000000000E+00 0. -1.
         -5    1    5    5    0  502  0.51083403057E+02 -0.41693212323E+02  0.50641090747E+03  0.51070728919E+03  0.47000000000E+01 0.  1.
         13    1    6    6    0    0 -0.48289045604E+01  0.10844326592E+02  0.81606316728E+03  0.81614950269E+03  0.00000000000E+00 0. -1.
        -14    1    6    6    0    0 -0.24267416119E+02  0.43165328322E+02  0.25823780060E+03  0.26294279741E+03  0.00000000000E+00 0.  1.
</event>
<event>
12    1  0.8331241E-002  0.2030425E+03  0.7818608E-02  0.1147767E+00
         21   -1    0    0  503  502  0.00000000000E+00  0.00000000000E+00  0.80784280503E+02  0.80784280503E+02  0.00000000000E+00 0. -1.
         21   -1    0    0  501  503 -0.00000000000E+00 -0.00000000000E+00 -0.50977134442E+03  0.50977134442E+03  0.00000000000E+00 0.  1.
          6    2    1    2  501    0  0.58910453914E+02  0.84422109963E+02 -0.24586287813E+03  0.31713154101E+03  0.17183225900E+03 0.  0.
         24    2    3    3    0    0  0.27387828593E+02 -0.22477973187E+02 -0.13249468773E+03  0.15808519469E+03  0.78617644774E+02 0.  0.
         -6    2    1    2    0  502 -0.58910453914E+02 -0.84422109963E+02 -0.18312418579E+03  0.27342408391E+03  0.17501065114E+03 0.  0.
        -24    2    5    5    0    0  0.27437942446E+02 -0.53636534375E+01 -0.82660767682E+02  0.11908266536E+03  0.81032519474E+02 0.  0.
          5    1    3    3  501    0  0.31522625321E+02  0.10690008315E+03 -0.11336819040E+03  0.15904634633E+03  0.47000000000E+01 0. -1.
        -11    1    4    4    0    0 -0.26056041908E+02 -0.19790435017E+02 -0.50748620294E+02  0.60382125665E+02  0.00000000000E+00 0.  1.
         12    1    4    4    0    0  0.53443870501E+02 -0.26875381699E+01 -0.81746067433E+02  0.97703069022E+02  0.00000000000E+00 0. -1.
         -5    1    5    5    0  502 -0.86348396359E+02 -0.79058456526E+02 -0.10046341811E+03  0.15434141855E+03  0.47000000000E+01 0.  1.
         13    1    6    6    0    0  0.36844568240E+02 -0.37196248081E+02 -0.54215587834E+02  0.75368514940E+02  0.00000000000E+00 0. -1.
        -14    1    6    6    0    0 -0.94066257940E+01  0.31832594644E+02 -0.28445179848E+02  0.43714150423E+02  0.00000000000E+00 0.  1.
</event>
<event>
12    1  0.8331241E-002  0.1812161E+03  0.7818608E-02  0.1167512E+00
         21   -1    0    0  501  502  0.00000000000E+00  0.00000000000E+00  0.99994794232E+03  0.99994794232E+03  0.00000000000E+00 0. -1.
         21   -1    0    0  502  503 -0.00000000000E+00 -0.00000000000E+00 -0.33873684761E+02  0.33873684761E+02  0.00000000000E+00 0. -1.
         -6    2    1    2    0  503 -0.44604875727E+02 -0.29265845561E+02  0.36301789644E+03  0.40412625568E+03  0.16938108732E+03 0.  0.
        -24    2    3    3    0    0 -0.54521271083E+02 -0.78176655409E+02  0.22121109274E+03  0.25372059823E+03  0.79722242597E+02 0.  0.
          6    2    1    2  501    0  0.44604875727E+02  0.29265845561E+02  0.60305636112E+03  0.62969537140E+03  0.17318545384E+03 0.  0.
         24    2    5    5    0    0  0.65499608962E+00  0.62069968271E+02  0.52123593755E+03  0.53108313028E+03  0.80680100928E+02 0.  0.
          5    1    5    5  501    0  0.43949879638E+02 -0.32804122710E+02  0.81820423562E+02  0.98612241120E+02  0.47000000000E+01 0. -1.
        -13    1    6    6    0    0 -0.17978963224E+02 -0.10173365571E+02  0.21070981935E+03  0.21172002375E+03  0.00000000000E+00 0.  1.
         14    1    6    6    0    0  0.18633959313E+02  0.72243333842E+02  0.31052611820E+03  0.31936310652E+03  0.00000000000E+00 0. -1.
         -5    1    3    3    0  503  0.99163953559E+01  0.48910809848E+02  0.14180680371E+03  0.15040565746E+03  0.47000000000E+01 0.  1.
         11    1    4    4    0    0 -0.35041551286E+02 -0.75943602011E+02  0.21845740422E+03  0.23392088077E+03  0.00000000000E+00 0. -1.
        -12    1    4    4    0    0 -0.19479719798E+02 -0.22330533984E+01  0.27536885148E+01  0.19799717455E+02  0.00000000000E+00 0.  1.
</event>
<event>
12    1  0.8331241E-002  0.1903845E+03  0.7818608E-02  0.1158353E+00
         21   -1    0    0  501  502  0.00000000000E+00  0.00000000000E+00  0.39632588820E+03  0.39632588820E+03  0.00000000000E+00 0. -1.
         21   -1    0    0  502  503 -0.00000000000E+00 -0.00000000000E+00 -0.15624849772E+03  0.15624849772E+03  0.00000000000E+00 0. -1.
         -6    2    1    2    0  503  0.78484721775E+02 -0.10537494354E+02 -0.58376353588E+02  0.19913330014E+03  0.17313400078E+03 0.  0.
        -24    2    3    3    0    0  0.30653161971E+02  0.22766504224E+02 -0.95251016823E+02  0.13000410787E+03  0.79814671613E+02 0.  0.
          6    2    1    2  501    0 -0.78484721775E+02  0.10537494354E+02  0.29845374406E+03  0.35344108578E+03  0.17197404872E+03 0.  0.
         24    2    5    5    0    0  0.12940465915E+02  0.34278254968E+02  0.93681909905E+02  0.12788447931E+03  0.78966356022E+02 0.  0.
          5    1    5    5  501    0 -0.91425187690E+02 -0.23740760613E+02  0.20477183416E+03  0.22555660647E+03  0.47000000000E+01 0. -1.
        -13    1    6    6    0    0 -0.26282598253E+02 -0.84342718275E+01  0.19836421116E+02  0.33991109351E+02  0.00000000000E+00 0.  1.
         14    1    6    6    0    0  0.39223064168E+02  0.42712526795E+02  0.73845488789E+02  0.93893369960E+02  0.00000000000E+00 0. -1.
         -5    1    3    3    0  503  0.47831559804E+02 -0.33303998578E+02  0.36874663235E+02  0.69129192266E+02  0.47000000000E+01 0.  1.
         13    1    4    4    0    0  0.46551855100E+02  0.13973209795E+02 -0.19944158140E+02  0.52536608657E+02  0.00000000000E+00 0. -1.
        -14    1    4    4    0    0 -0.15898693129E+02  0.87932944293E+01 -0.75306858683E+02  0.77467499216E+02  0.00000000000E+00 0.  1.
</event>
<event>
12    1  0.8331241E-002  0.1775875E+03  0.7818608E-02  0.1170250E+00
         21   -1    0    0  501  502  0.00000000000E+00  0.00000000000E+00  0.11717881594E+03  0.11717881594E+03  0.00000000000E+00 0. -1.
         21   -1    0    0  502  503 -0.00000000000E+00 -0.00000000000E+00 -0.32773482054E+03  0.32773482054E+03  0.00000000000E+00 0. -1.
         -6    2    1    2    0  503  0.32165524536E+02 -0.29060592110E+02 -0.19988337074E+03  0.26737742919E+03  0.17221552996E+03 0.  0.
        -24    2    3    3    0    0  0.14459390075E+02 -0.33248727122E+02 -0.23309167073E+02  0.89806071499E+02  0.78786175132E+02 0.  0.
          6    2    1    2  501    0 -0.32165524536E+02  0.29060592110E+02 -0.10672633861E+02  0.17753620729E+03  0.17183148956E+03 0.  0.
         24    2    5    5    0    0 -0.86804499227E+02  0.10916077023E+02 -0.55313937650E+01  0.11954342039E+03  0.81276387824E+02 0.  0.
          5    1    5    5  501    0  0.54638974691E+02  0.18144515088E+02 -0.51412400956E+01  0.57992786903E+02  0.47000000000E+01 0. -1.
        -13    1    6    6    0    0 -0.28314724143E+02 -0.18103496935E+02 -0.34454678007E+02  0.48130915648E+02  0.00000000000E+00 0.  1.
         14    1    6    6    0    0 -0.58489775084E+02  0.29019573957E+02  0.28923284242E+02  0.71412504741E+02  0.00000000000E+00 0. -1.
         -5    1    3    3    0  503  0.17706134460E+02  0.41881350117E+01 -0.17657420367E+03  0.17757135770E+03  0.47000000000E+01 0.  1.
         13    1    4    4    0    0  0.16199039218E+02 -0.18597372086E+02 -0.51995254559E+02  0.57548046160E+02  0.00000000000E+00 0. -1.
        -14    1    4    4    0    0 -0.17396491429E+01 -0.14651355036E+02  0.28686087486E+02  0.32258025339E+02  0.00000000000E+00 0.  1.
</event>
<event>
12    1  0.8331241E-002  0.1794853E+03  0.7818608E-02  0.1168418E+00
         21   -1    0    0  501  502  0.00000000000E+00  0.00000000000E+00  0.62476818421E+02  0.62476818421E+02  0.00000000000E+00 0. -1.
         21   -1    0    0  502  503 -0.00000000000E+00 -0.00000000000E+00 -0.54341877199E+03  0.54341877199E+03  0.00000000000E+00 0. -1.
         -6    2    1    2    0  503 -0.40005143211E+02  0.29810410000E+02 -0.17000255083E+03  0.24687153702E+03  0.17191746996E+03 0.  0.
        -24    2    3    3    0    0  0.18385816130E+02  0.60242724663E+02 -0.60685599797E+02  0.11916908720E+03  0.80940133506E+02 0.  0.
          6    2    1    2  501    0  0.40005143211E+02 -0.29810410000E+02 -0.31093940274E+03  0.35902405339E+03  0.17241196799E+03 0.  0.
         24    2    5    5    0    0  0.88583432381E+02 -0.22195076624E+02 -0.16510138745E+03  0.20504788580E+03  0.80290232364E+02 0.  0.
          5    1    5    5  501    0 -0.48578289170E+02 -0.76153333760E+01 -0.14583801529E+03  0.15397616759E+03  0.47000000000E+01 0. -1.
        -13    1    6    6    0    0  0.31222799216E+02  0.30500349042E+02 -0.56243770666E+02  0.71193372032E+02  0.00000000000E+00 0.  1.
         14    1    6    6    0    0  0.57360633165E+02 -0.52695425667E+02 -0.10885761678E+03  0.13385451377E+03  0.00000000000E+00 0. -1.
         -5    1    3    3    0  503 -0.58390959340E+02 -0.30432314663E+02 -0.10931695103E+03  0.12770244982E+03  0.47000000000E+01 0.  1.
         13    1    4    4    0    0 -0.18143834845E+02  0.45033172985E+02 -0.22580418013E+01  0.48603334913E+02  0.00000000000E+00 0. -1.
        -14    1    4    4    0    0  0.36529650974E+02  0.15209551678E+02 -0.58427557995E+02  0.70565752287E+02  0.00000000000E+00 0.  1.
</event>
<event>
12    1  0.8331241E-002  0.2246617E+03  0.7818608E-02  0.1132064E+00
         21   -1    0    0  501  502  0.00000000000E+00  0.00000000000E+00  0.12618842530E+03  0.12618842530E+03  0.00000000000E+00 0.  1.
         21   -1    0    0  502  503 -0.00000000000E+00 -0.00000000000E+00 -0.39594791046E+03  0.39594791046E+03  0.00000000000E+00 0.  1.
         -6    2    1    2    0  503 -0.30359213326E+02  0.12726575210E+03 -0.18152957542E+03  0.28883534460E+03  0.18263246165E+03 0.  0.
        -24    2    3    3    0    0  0.23989290134E+02  0.11467280213E+02  0.10007037011E+01  0.65894907004E+02  0.60283934880E+02 0.  0.
          6    2    1    2  501    0  0.30359213326E+02 -0.12726575210E+03 -0.88229909741E+02  0.23330099117E+03  0.17183300619E+03 0.  0.
         24    2    5    5    0    0  0.64913486543E+02 -0.10243436057E+03 -0.12325971711E+02  0.14615689434E+03  0.80643345818E+02 0.  0.
          5    1    5    5  501    0 -0.34554273217E+02 -0.24831391531E+02 -0.75903938030E+02  0.87144096824E+02  0.47000000000E+01 0. -1.
        -13    1    6    6    0    0  0.17726665243E+02 -0.51714642774E+02 -0.43815656834E+02  0.70060336294E+02  0.00000000000E+00 0.  1.
         14    1    6    6    0    0  0.47186821300E+02 -0.50719717793E+02  0.31489685123E+02  0.76096558047E+02  0.00000000000E+00 0. -1.
         -5    1    3    3    0  503 -0.54348503461E+02  0.11579847188E+03 -0.18253027912E+03  0.22294043760E+03  0.47000000000E+01 0.  1.
         13    1    4    4    0    0  0.12252119773E+02  0.32626936331E+02  0.14997323929E+02  0.37941417189E+02  0.00000000000E+00 0. -1.
        -14    1    4    4    0    0  0.11737170361E+02 -0.21159656117E+02 -0.13996620228E+02  0.27953489816E+02  0.00000000000E+00 0.  1.
</event>
<event>
12    1  0.8331241E-002  0.1745775E+03  0.7818608E-02  0.1173494E+00
         21   -1    0    0  503  502  0.00000000000E+00  0.00000000000E+00  0.48859950566E+03  0.48859950566E+03  0.00000000000E+00 0. -1.
         21   -1    0    0  501  503 -0.00000000000E+00 -0.00000000000E+00 -0.63813320908E+02  0.63813320908E+02  0.00000000000E+00 0. -1.
          6    2    1    2  501    0  0.16098673833E+02 -0.53752220531E+01  0.16377967570E+03  0.23840375577E+03  0.17240797047E+03 0.  0.
         24    2    3    3    0    0 -0.52967380186E+02 -0.78121421892E+01  0.56897962730E+02  0.11103873324E+03  0.78902783138E+02 0.  0.
         -6    2    1    2    0  502 -0.16098673833E+02  0.53752220531E+01  0.26100650906E+03  0.31400907080E+03  0.17375050637E+03 0.  0.
        -24    2    5    5    0    0 -0.77210442568E+02  0.14532805153E+02  0.14554214502E+03  0.18296473110E+03  0.78236321367E+02 0.  0.
          5    1    3    3  501    0  0.69066054019E+02  0.24369201360E+01  0.10688171297E+03  0.12736502253E+03  0.47000000000E+01 0. -1.
        -13    1    4    4    0    0 -0.15309912325E+02  0.28424031368E+01 -0.19646938395E+02  0.25069400856E+02  0.00000000000E+00 0.  1.
         14    1    4    4    0    0 -0.37657467861E+02 -0.10654545326E+02  0.76544901125E+02  0.85969332381E+02  0.00000000000E+00 0. -1.
         -5    1    5    5    0  502  0.61111768735E+02 -0.91575830999E+01  0.11546436404E+03  0.13104433970E+03  0.47000000000E+01 0.  1.
         13    1    6    6    0    0 -0.41729493520E+02  0.25571454238E+02  0.21462400567E+02  0.53440476601E+02  0.00000000000E+00 0. -1.
        -14    1    6    6    0    0 -0.35480949048E+02 -0.11038649085E+02  0.12407974445E+03  0.12952425450E+03  0.00000000000E+00 0.  1.
</event>
<event>
12    1  0.8331241E-002  0.2667059E+03  0.7818608E-02  0.1103306E+00
         21   -1    0    0  503  502  0.00000000000E+00  0.00000000000E+00  0.41660716542E+03  0.41660716542E+03  0.00000000000E+00 0. -1.
         21   -1    0    0  501  503 -0.00000000000E+00 -0.00000000000E+00 -0.34706101948E+03  0.34706101948E+03  0.00000000000E+00 0.  1.
          6    2    1    2  501    0 -0.14028460528E+03  0.14780879890E+03 -0.23778373244E+03  0.35731376821E+03  0.17206049527E+03 0.  0.
         24    2    3    3    0    0 -0.12613075074E+03  0.15384204092E+03 -0.13725051354E+03  0.25550144229E+03  0.82867024235E+02 0.  0.
         -6    2    1    2    0  502  0.14028460528E+03 -0.14780879890E+03  0.30732987837E+03  0.40635441668E+03  0.17071920310E+03 0.  0.
        -24    2    5    5    0    0  0.16191786733E+03 -0.86802388195E+02  0.21908342927E+03  0.29681307311E+03  0.79676853768E+02 0.  0.
          5    1    3    3  501    0 -0.14153854534E+02 -0.60332420273E+01 -0.10053321890E+03  0.10181232592E+03  0.47000000000E+01 0. -1.
        -13    1    4    4    0    0 -0.13229295637E+03  0.13784019866E+03 -0.14160547630E+03  0.23780970878E+03  0.00000000000E+00 0.  1.
         14    1    4    4    0    0  0.61622056226E+01  0.16001842261E+02  0.43549627610E+01  0.17691733509E+02  0.00000000000E+00 0. -1.
         -5    1    5    5    0  502 -0.21633262056E+02 -0.61006410702E+02  0.88246449101E+02  0.10954134358E+03  0.47000000000E+01 0.  1.
         11    1    6    6    0    0  0.14777602213E+03 -0.89154102592E+02  0.22296890182E+03  0.28195981611E+03  0.00000000000E+00 0. -1.
        -12    1    6    6    0    0  0.14141845207E+02  0.23517143966E+01 -0.38854725432E+01  0.14853256994E+02  0.00000000000E+00 0.  1.
</event>
<event>
12    1  0.8331241E-002  0.3018302E+03  0.7818608E-02  0.1084361E+00
         21   -1    0    0  501  502  0.00000000000E+00  0.00000000000E+00  0.94334227180E+03  0.94334227180E+03  0.00000000000E+00 0.  1.
         21   -1    0    0  502  503 -0.00000000000E+00 -0.00000000000E+00 -0.10701413506E+03  0.10701413506E+03  0.00000000000E+00 0. -1.
         -6    2    1    2    0  503 -0.15429705243E+03 -0.19407950315E+03  0.25363344926E+03  0.39424788354E+03  0.17212505094E+03 0.  0.
        -24    2    3    3    0    0 -0.76273929061E+02 -0.78225192685E+02  0.42149966808E+02  0.14075787904E+03  0.78097809085E+02 0.  0.
          6    2    1    2  501    0  0.15429705243E+03  0.19407950315E+03  0.58269468747E+03  0.65610852331E+03  0.17167079430E+03 0.  0.
         24    2    5    5    0    0  0.10904332215E+03  0.20666700005E+03  0.42648376634E+03  0.49292063447E+03  0.80502508770E+02 0.  0.
          5    1    5    5  501    0  0.45253730282E+02 -0.12587496899E+02  0.15621092113E+03  0.16318788884E+03  0.47000000000E+01 0. -1.
        -13    1    6    6    0    0 -0.27887342163E+01  0.46197659824E+02  0.12751672183E+03  0.13565587034E+03  0.00000000000E+00 0.  1.
         14    1    6    6    0    0  0.11183205637E+03  0.16046934023E+03  0.29896704451E+03  0.35726476413E+03  0.00000000000E+00 0. -1.
         -5    1    3    3    0  503 -0.78023123374E+02 -0.11585431047E+03  0.21148348245E+03  0.25349000451E+03  0.47000000000E+01 0.  1.
         13    1    4    4    0    0 -0.76065505950E+02 -0.92211813224E+02  0.32877227483E+02  0.12397536764E+03  0.00000000000E+00 0. -1.
        -14    1    4    4    0    0 -0.20842311089E+00  0.13986620539E+02  0.92727393247E+01  0.16782511400E+02  0.00000000000E+00 0.  1.
</event>
<event>
12    1  0.8331241E-002  0.2371630E+03  0.7818608E-02  0.1121915E+00
         21   -1    0    0  501  502  0.00000000000E+00  0.00000000000E+00  0.22635592178E+03  0.22635592178E+03  0.00000000000E+00 0. -1.
         21   -1    0    0  502  503 -0.00000000000E+00 -0.00000000000E+00 -0.32918901369E+03  0.32918901369E+03  0.00000000000E+00 0.  1.
         -6    2    1    2    0  503  0.14511179932E+03 -0.71765209905E+02  0.87360865727E+02  0.25153834285E+03  0.17155738809E+03 0.  0.
        -24    2    3    3    0    0  0.60177327675E+02  0.52014949601E+01  0.92953596239E+02  0.13668579927E+03  0.79964181688E+02 0.  0.
          6    2    1    2  501    0 -0.14511179932E+03  0.71765209905E+02 -0.19019395765E+03  0.30400659262E+03  0.17331643654E+03 0.  0.
         24    2    5    5    0    0 -0.11616429646E+03 -0.54814228182E+01 -0.67434109477E+02  0.15603000491E+03  0.79207408369E+02 0.  0.
          5    1    5    5  501    0 -0.28947502858E+02  0.77246632723E+02 -0.12275984817E+03  0.14797658771E+03  0.47000000000E+01 0. -1.
        -13    1    6    6    0    0 -0.69789347001E+02  0.28852615670E+02 -0.62664212953E+02  0.98131697076E+02  0.00000000000E+00 0.  1.
         14    1    6    6    0    0 -0.46374949463E+02 -0.34334038488E+02 -0.47698965234E+01  0.57898307829E+02  0.00000000000E+00 0. -1.
         -5    1    3    3    0  503  0.84934471648E+02 -0.76966704865E+02 -0.55927305118E+01  0.11485254358E+03  0.47000000000E+01 0.  1.
         11    1    4    4    0    0  0.57406085679E+01 -0.33071750023E+02  0.28287001918E+02  0.43895896321E+02  0.00000000000E+00 0. -1.
        -12    1    4    4    0    0  0.54436719107E+02  0.38273244983E+02  0.64666594320E+02  0.92789902951E+02  0.00000000000E+00 0.  1.
</event>
<event>
12    1  0.8331241E-002  0.1779109E+03  0.7818608E-02  0.1170295E+00
         21   -1    0    0  501  502  0.00000000000E+00  0.00000000000E+00  0.14885154044E+03  0.14885154044E+03  0.00000000000E+00 0. -1.
         21   -1    0    0  502  503 -0.00000000000E+00 -0.00000000000E+00 -0.15862784643E+04  0.15862784643E+04  0.00000000000E+00 0. -1.
         -6    2    1    2    0  503  0.38116077493E+01 -0.43728771618E+02 -0.15261851615E+04  0.15363077010E+04  0.17050944619E+03 0.  0.
        -24    2    3    3    0    0  0.68959811018E+02 -0.22442417160E+02 -0.95617623152E+03  0.96217385990E+03  0.79034380646E+02 0.  0.
          6    2    1    2  501    0 -0.38116077493E+01  0.43728771618E+02  0.88758237626E+02  0.19882230372E+03  0.17241099121E+03 0.  0.
         24    2    5    5    0    0  0.22644390050E+02  0.88429137789E+02  0.41171801985E+02  0.12822059402E+03  0.80080725779E+02 0.  0.
          5    1    5    5  501    0 -0.26455997800E+02 -0.44700366171E+02  0.47586435641E+02  0.70601709699E+02  0.47000000000E+01 0. -1.
        -13    1    6    6    0    0 -0.12307350712E+02  0.82762058961E+02  0.40128020555E+02  0.92797022144E+02  0.00000000000E+00 0.  1.
         14    1    6    6    0    0  0.34951740763E+02  0.56670788278E+01  0.10437814300E+01  0.35423571876E+02  0.00000000000E+00 0. -1.
         -5    1    3    3    0  503 -0.65148203268E+02 -0.21286354458E+02 -0.57000892996E+03  0.57413384111E+03  0.47000000000E+01 0.  1.
         13    1    4    4    0    0  0.20022326063E+02 -0.47949410778E+02 -0.44136455504E+03  0.44441276982E+03  0.00000000000E+00 0. -1.
        -14    1    4    4    0    0  0.48937484955E+02  0.25506993618E+02 -0.51481167648E+03  0.51776109008E+03  0.00000000000E+00 0.  1.
</event>
<event>
12    1  0.8331241E-002  0.1886302E+03  0.7818608E-02  0.1159911E+00
         21   -1    0    0  501  502  0.00000000000E+00  0.00000000000E+00  0.71911645611E+02  0.71911645611E+02  0.00000000000E+00 0.  1.
         21   -1    0    0  502  503 -0.00000000000E+00 -0.00000000000E+00 -0.82263066844E+03  0.82263066844E+03  0.00000000000E+00 0.  1.
         -6    2    1    2    0  503 -0.58172907366E+02 -0.52023023577E+02 -0.65819812713E+03  0.68444362513E+03  0.17072732439E+03 0.  0.
        -24    2    3    3    0    0 -0.59242810616E+02 -0.99338928643E+02 -0.48641748164E+03  0.50620047736E+03  0.79113990373E+02 0.  0.
          6    2    1    2  501    0  0.58172907366E+02  0.52023023577E+02 -0.92520895696E+02  0.21009868892E+03  0.17172903310E+03 0.  0.
         24    2    5    5    0    0  0.10391881757E+03  0.61853800636E+02 -0.71750934202E+02  0.15869038435E+03  0.73548815258E+02 0.  0.
          5    1    5    5  501    0 -0.45745910209E+02 -0.98307770596E+01 -0.20769961494E+02  0.51408304571E+02  0.47000000000E+01 0. -1.
        -13    1    6    6    0    0  0.15992061692E+02 -0.56620381664E+01  0.11117186121E+02  0.20282912528E+02  0.00000000000E+00 0.  1.
         14    1    6    6    0    0  0.87926755883E+02  0.67515838803E+02 -0.82868120323E+02  0.13840747182E+03  0.00000000000E+00 0. -1.
         -5    1    3    3    0  503  0.10699032500E+01  0.47315905067E+02 -0.17178064549E+03  0.17824314778E+03  0.47000000000E+01 0.  1.
         11    1    4    4    0    0 -0.59983510675E+01 -0.64580384357E+02 -0.14404275700E+03  0.15797126987E+03  0.00000000000E+00 0. -1.
        -12    1    4    4    0    0 -0.53244459548E+02 -0.34758544287E+02 -0.34237472464E+03  0.34822920749E+03  0.00000000000E+00 0.  1.
</event>
<event>
12    1  0.8331241E-002  0.1800162E+03  0.7818608E-02  0.1167938E+00
         21   -1    0    0  503  502  0.00000000000E+00  0.00000000000E+00  0.11218383463E+04  0.11218383463E+04  0.00000000000E+00 0.  1.
         21   -1    0    0  501  503 -0.00000000000E+00 -0.00000000000E+00 -0.69991837531E+02  0.69991837531E+02  0.00000000000E+00 0.  1.
          6    2    1    2  501    0  0.50410752681E+02  0.99131042406E+01  0.69065916612E+02  0.19281063240E+03  0.17252920190E+03 0.  0.
         24    2    3    3    0    0 -0.11604654474E+02 -0.39793316240E+02  0.87614187275E+00  0.87984231431E+02  0.77603359032E+02 0.  0.
         -6    2    1    2    0  502 -0.50410752681E+02 -0.99131042406E+01  0.98278059211E+03  0.99901955138E+03  0.17188036011E+03 0.  0.
        -24    2    5    5    0    0 -0.65846934539E+02 -0.65080156319E+02  0.53786059223E+03  0.55040214686E+03  0.71254902012E+02 0.  0.
          5    1    3    3  501    0  0.62015407155E+02  0.49706420481E+02  0.68189774739E+02  0.10482640097E+03  0.47000000000E+01 0. -1.
        -11    1    4    4    0    0 -0.11440123275E+01 -0.50802041000E+02 -0.26025768085E+02  0.57092002403E+02  0.00000000000E+00 0.  1.
         12    1    4    4    0    0 -0.10460642146E+02  0.11008724759E+02  0.26901909958E+02  0.30892229028E+02  0.00000000000E+00 0. -1.
         -5    1    5    5    0  502  0.15436181857E+02  0.55167052078E+02  0.44491999988E+03  0.44861740452E+03  0.47000000000E+01 0.  1.
         13    1    6    6    0    0 -0.80910300821E+02 -0.56326965253E+02  0.47785225053E+03  0.48791595294E+03  0.00000000000E+00 0. -1.
        -14    1    6    6    0    0  0.15063366282E+02 -0.87531910652E+01  0.60008341697E+02  0.62486193922E+02  0.00000000000E+00 0.  1.
</event>
<event>
12    1  0.8331241E-002  0.2097735E+03  0.7818608E-02  0.1142916E+00
         21   -1    0    0  503  502  0.00000000000E+00  0.00000000000E+00  0.41348626595E+03  0.41348626595E+03  0.00000000000E+00 0. -1.
         21   -1    0    0  501  503 -0.00000000000E+00 -0.00000000000E+00 -0.11481661644E+03  0.11481661644E+03  0.00000000000E+00 0.  1.
          6    2    1    2  501    0  0.54462558032E+01 -0.11883096263E+03  0.23038773622E+03  0.30769612469E+03  0.16567418860E+03 0.  0.
         24    2    3    3    0    0 -0.32076044441E+02 -0.31759575275E+02  0.52527237922E+02  0.10608809815E+03  0.80361872779E+02 0.  0.
         -6    2    1    2    0  502 -0.54462558032E+01  0.11883096263E+03  0.68281913289E+02  0.22060675770E+03  0.17278443935E+03 0.  0.
        -24    2    5    5    0    0 -0.44554064382E+02  0.11509881512E+03  0.92467458679E+02  0.17423456536E+03  0.81084221387E+02 0.  0.
          5    1    3    3  501    0  0.37522300244E+02 -0.87071387352E+02  0.17786049830E+03  0.20160802654E+03  0.47000000000E+01 0. -1.
        -11    1    4    4    0    0  0.86938274221E+01  0.19917619022E+02 -0.22673032361E+00  0.21733513047E+02  0.00000000000E+00 0.  1.
         12    1    4    4    0    0 -0.40769871863E+02 -0.51677194296E+02  0.52753968245E+02  0.84354585102E+02  0.00000000000E+00 0. -1.
         -5    1    5    5    0  502  0.39107808578E+02  0.37321475098E+01 -0.24185545391E+02  0.46372192343E+02  0.47000000000E+01 0.  1.
         13    1    6    6    0    0  0.10175658819E+02  0.47334790803E+02  0.68516463992E+02  0.83896557085E+02  0.00000000000E+00 0. -1.
        -14    1    6    6    0    0 -0.54729723201E+02  0.67764024315E+02  0.23950994687E+02  0.90338008277E+02  0.00000000000E+00 0.  1.
</event>
<event>
12    1  0.8331241E-002  0.1832461E+03  0.7818608E-02  0.1164952E+00
         21   -1    0    0  501  502  0.00000000000E+00  0.00000000000E+00  0.77930907342E+03  0.77930907342E+03  0.00000000000E+00 0.  1.
         21   -1    0    0  502  503 -0.00000000000E+00 -0.00000000000E+00 -0.85706221586E+02  0.85706221586E+02  0.00000000000E+00 0.  1.
         -6    2    1    2    0  503  0.47816104617E+02 -0.39526395581E+02  0.41422236700E+02  0.18786948690E+03  0.17242513334E+03 0.  0.
        -24    2    3    3    0    0  0.37254244198E+01 -0.80490794463E+02 -0.16837993814E+01  0.11369206174E+03  0.80189793259E+02 0.  0.
          6    2    1    2  501    0 -0.47816104617E+02  0.39526395581E+02  0.65218061514E+03  0.67714580811E+03  0.17128390138E+03 0.  0.
         24    2    5    5    0    0  0.33763500871E+02  0.48835499227E+02  0.31768745099E+03  0.33269021111E+03  0.78946691361E+02 0.  0.
          5    1    5    5  501    0 -0.81579605487E+02 -0.93091036460E+01  0.33449316415E+03  0.34445559700E+03  0.47000000000E+01 0. -1.
        -13    1    6    6    0    0  0.14751397034E+02  0.13372387041E+02  0.26806657493E+03  0.26880497213E+03  0.00000000000E+00 0.  1.
         14    1    6    6    0    0  0.19012103836E+02  0.35463112185E+02  0.49620876062E+02  0.63885238978E+02  0.00000000000E+00 0. -1.
         -5    1    3    3    0  503  0.44090680197E+02  0.40964398882E+02  0.43106036081E+02  0.74177425155E+02  0.47000000000E+01 0.  1.
         13    1    4    4    0    0 -0.29867396285E+02 -0.12014285287E+02  0.15156270230E+02  0.35582536997E+02  0.00000000000E+00 0. -1.
        -14    1    4    4    0    0  0.33592820705E+02 -0.68476509176E+02 -0.16840069612E+02  0.78109524748E+02  0.00000000000E+00 0.  1.
</event>
<event>
12    1  0.8331241E-002  0.2273937E+03  0.7818608E-02  0.1128839E+00
         21   -1    0    0  501  502  0.00000000000E+00  0.00000000000E+00  0.10060455441E+04  0.10060455441E+04  0.00000000000E+00 0. -1.
         21   -1    0    0  502  503 -0.00000000000E+00 -0.00000000000E+00 -0.63351207859E+02  0.63351207859E+02  0.00000000000E+00 0.  1.
         -6    2    1    2    0  503 -0.14196286415E+03 -0.44200303457E+02  0.23319376607E+03  0.32434710714E+03  0.16945380418E+03 0.  0.
        -24    2    3    3    0    0 -0.15146107967E+03  0.44869598099E+01  0.20831199298E+03  0.26865277767E+03  0.76287856606E+02 0.  0.
          6    2    1    2  501    0  0.14196286415E+03  0.44200303457E+02  0.70950057019E+03  0.74504964485E+03  0.17204880866E+03 0.  0.
         24    2    5    5    0    0  0.15356206620E+03  0.71924062283E+02  0.66644169017E+03  0.69233052649E+03  0.80141453676E+02 0.  0.
          5    1    5    5  501    0 -0.11599202056E+02 -0.27723758826E+02  0.43058880021E+02  0.52719118358E+02  0.47000000000E+01 0. -1.
        -13    1    6    6    0    0  0.11315380411E+03  0.64767403227E+02  0.60181325396E+03  0.61577414085E+03  0.00000000000E+00 0.  1.
         14    1    6    6    0    0  0.40408262088E+02  0.71566590556E+01  0.64628436213E+02  0.76556385633E+02  0.00000000000E+00 0. -1.
         -5    1    3    3    0  503  0.94982155260E+01 -0.48687263267E+02  0.24881773090E+02  0.55694329466E+02  0.47000000000E+01 0.  1.
         13    1    4    4    0    0 -0.61296513793E+02  0.38776471130E+02  0.10116169309E+03  0.12447716845E+03  0.00000000000E+00 0. -1.
        -14    1    4    4    0    0 -0.90164565879E+02 -0.34289511320E+02  0.10715029989E+03  0.14417560922E+03  0.00000000000E+00 0.  1.
</event>
<event>
12    1  0.8331241E-002  0.1849131E+03  0.7818608E-02  0.1163427E+00
         21   -1    0    0  503  502  0.00000000000E+00  0.00000000000E+00  0.11101505347E+03  0.11101505347E+03  0.00000000000E+00 0.  1.
         21   -1    0    0  501  503 -0.00000000000E+00 -0.00000000000E+00 -0.36278124727E+03  0.36278124727E+03  0.00000000000E+00 0.  1.
          6    2    1    2  501    0  0.40031087632E+02 -0.52033935152E+02 -0.32443839918E+02  0.18773772831E+03  0.17286651931E+03 0.  0.
         24    2    3    3    0    0 -0.23273566122E+02  0.18191180929E+02 -0.40181605011E+02  0.92758735244E+02  0.78211531370E+02 0.  0.
         -6    2    1    2    0  502 -0.40031087632E+02  0.52033935152E+02 -0.21932235388E+03  0.28605857243E+03  0.17151441212E+03 0.  0.
        -24    2    5    5    0    0  0.25084606638E+02  0.73004806814E+02 -0.16154544257E+03  0.19639200910E+03  0.80709057214E+02 0.  0.
          5    1    3    3  501    0  0.63304653754E+02 -0.70225116081E+02  0.77377650928E+01  0.94978993067E+02  0.47000000000E+01 0. -1.
        -13    1    4    4    0    0 -0.26442286101E+02 -0.29544303877E+01 -0.58715337261E+02  0.64462500594E+02  0.00000000000E+00 0.  1.
         14    1    4    4    0    0  0.31687199799E+01  0.21145611316E+02  0.18533732250E+02  0.28296234650E+02  0.00000000000E+00 0. -1.
         -5    1    5    5    0  502 -0.65115694271E+02 -0.20970871662E+02 -0.57776911306E+02  0.89666563326E+02  0.47000000000E+01 0.  1.
         13    1    6    6    0    0  0.25433848869E+02  0.15065668176E+02 -0.56746312070E+01  0.30100771838E+02  0.00000000000E+00 0. -1.
        -14    1    6    6    0    0 -0.34924223075E+00  0.57939138637E+02 -0.15587081136E+03  0.16629123727E+03  0.00000000000E+00 0.  1.
</event>
<event>
12    1  0.8331241E-002  0.2072016E+03  0.7818608E-02  0.1144421E+00
         21   -1    0    0  503  502  0.00000000000E+00  0.00000000000E+00  0.29386228524E+02  0.29386228524E+02  0.00000000000E+00 0.  1.
         21   -1    0    0  501  503 -0.00000000000E+00 -0.00000000000E+00 -0.16260181745E+04  0.16260181745E+04  0.00000000000E+00 0.  1.
          6    2    1    2  501    0 -0.85806930098E+02 -0.73948764264E+02 -0.10733747921E+04  0.10926162024E+04  0.16983954898E+03 0.  0.
         24    2    3    3    0    0 -0.75344491749E+02  0.15459291655E+02 -0.49554262422E+03  0.50779540306E+03  0.79861735614E+02 0.  0.
         -6    2    1    2    0  502  0.85806930098E+02  0.73948764264E+02 -0.52325715386E+03  0.56278820063E+03  0.17349714900E+03 0.  0.
        -24    2    5    5    0    0 -0.22742910769E+02  0.46481309271E+02 -0.25508461616E+03  0.27214042580E+03  0.79463814728E+02 0.  0.
          5    1    3    3  501    0 -0.10462438349E+02 -0.89408055919E+02 -0.57783216790E+03  0.58482079933E+03  0.47000000000E+01 0. -1.
        -11    1    4    4    0    0 -0.56908446403E+02  0.14935037544E+02 -0.48023865325E+03  0.48382929912E+03  0.00000000000E+00 0.  1.
         12    1    4    4    0    0 -0.18436045346E+02  0.52425411062E+00 -0.15303970975E+02  0.23966103938E+02  0.00000000000E+00 0. -1.
         -5    1    5    5    0  502  0.10854984087E+03  0.27467454993E+02 -0.26817253770E+03  0.29064777483E+03  0.47000000000E+01 0.  1.
         11    1    6    6    0    0 -0.19279514163E+02  0.27345988273E+02 -0.24974240140E+03  0.25197374823E+03  0.00000000000E+00 0. -1.
        -12    1    6    6    0    0 -0.34633966057E+01  0.19135320998E+02 -0.53422147656E+01  0.20166677573E+02  0.00000000000E+00 0.  1.
</event>
<event>
12    1  0.8331241E-002  0.2040782E+03  0.7818608E-02  0.1146557E+00
         21   -1    0    0  501  502  0.00000000000E+00  0.00000000000E+00  0.11737511158E+03  0.11737511158E+03  0.00000000000E+00 0.  1.
         21   -1    0    0  502  503 -0.00000000000E+00 -0.00000000000E+00 -0.41258281484E+03  0.41258281484E+03  0.00000000000E+00 0.  1.
         -6    2    1    2    0  503 -0.94492903013E+02  0.26487092262E+02 -0.46605276804E+02  0.20831979625E+03  0.17774872969E+03 0.  0.
        -24    2    3    3    0    0  0.11265810175E+02  0.99763177894E+01 -0.69901980002E+02  0.98673376019E+02  0.67997815635E+02 0.  0.
          6    2    1    2  501    0  0.94492903013E+02 -0.26487092262E+02 -0.24860242646E+03  0.32163813017E+03  0.17893419339E+03 0.  0.
         24    2    5    5    0    0  0.69834575717E+02 -0.85633725152E+02 -0.14130744552E+03  0.19657550497E+03  0.80399826788E+02 0.  0.
          5    1    5    5  501    0  0.24658327296E+02  0.59146632889E+02 -0.10729498094E+03  0.12506262520E+03  0.47000000000E+01 0. -1.
        -11    1    6    6    0    0  0.22236048178E+02 -0.49970705830E+02 -0.14610256911E+02  0.56612479956E+02  0.00000000000E+00 0.  1.
         12    1    6    6    0    0  0.47598527539E+02 -0.35663019321E+02 -0.12669718861E+03  0.13996302502E+03  0.00000000000E+00 0. -1.
         -5    1    3    3    0  503 -0.10575871319E+03  0.16510774473E+02  0.23296703198E+02  0.10964642023E+03  0.47000000000E+01 0.  1.
         13    1    4    4    0    0 -0.68449845367E+01 -0.12437023338E+01 -0.76153341442E+02  0.76470465027E+02  0.00000000000E+00 0. -1.
        -14    1    4    4    0    0  0.18110794712E+02  0.11220020123E+02  0.62513614392E+01  0.22202910991E+02  0.00000000000E+00 0.  1.
</event>
<event>
12    1  0.8331241E-002  0.1737095E+03  0.7818608E-02  0.1174248E+00
         21   -1    0    0  503  502  0.00000000000E+00  0.00000000000E+00  0.27921779850E+03  0.27921779850E+03  0.00000000000E+00 0. -1.
         21   -1    0    0  501  503 -0.00000000000E+00 -0.00000000000E+00 -0.11171811393E+03  0.11171811393E+03  0.00000000000E+00 0. -1.
          6    2    1    2  501    0 -0.16953785845E+02 -0.18262353578E+02  0.12172404128E+03  0.21211252790E+03  0.17191287867E+03 0.  0.
         24    2    3    3    0    0 -0.39258492419E+02  0.48839886194E+02  0.85355745323E+02  0.13245731170E+03  0.79578718584E+02 0.  0.
         -6    2    1    2    0  502  0.16953785845E+02  0.18262353578E+02  0.45775643291E+02  0.17882338453E+03  0.17105978172E+03 0.  0.
        -24    2    5    5    0    0  0.45803547254E+02 -0.33544200613E+02 -0.79774973354E+01  0.98650334708E+02  0.80281191686E+02 0.  0.
          5    1    3    3  501    0  0.22304706574E+02 -0.67102239772E+02  0.36368295953E+02  0.79655216202E+02  0.47000000000E+01 0. -1.
        -13    1    4    4    0    0 -0.60111472468E+02  0.19557018693E+02  0.40922960001E+02  0.75303085977E+02  0.00000000000E+00 0.  1.
         14    1    4    4    0    0  0.20852980049E+02  0.29282867501E+02  0.44432785322E+02  0.57154225718E+02  0.00000000000E+00 0. -1.
         -5    1    5    5    0  502 -0.28849761409E+02  0.51806554191E+02  0.53753140626E+02  0.80173049821E+02  0.47000000000E+01 0.  1.
         11    1    6    6    0    0  0.14665341321E+02  0.26395355368E+02 -0.74582508616E+01  0.31103255890E+02  0.00000000000E+00 0. -1.
        -12    1    6    6    0    0  0.31138205933E+02 -0.59939555981E+02 -0.51924647380E+00  0.67547078818E+02  0.00000000000E+00 0.  1.
</event>
<event>
12    1  0.8331241E-002  0.2526292E+03  0.7818608E-02  0.1112130E+00
         21   -1    0    0  501  502  0.00000000000E+00  0.00000000000E+00  0.17891646415E+03  0.17891646415E+03  0.00000000000E+00 0.  1.
         21   -1    0    0  502  503 -0.00000000000E+00 -0.00000000000E+00 -0.44657818798E+03  0.44657818798E+03  0.00000000000E+00 0.  1.
         -6    2    1    2    0  503 -0.17838067052E+03  0.28765868266E+02 -0.27805164583E+03  0.37567832770E+03  0.17656259334E+03 0.  0.
        -24    2    3    3    0    0 -0.13815754244E+03  0.36112042907E+02 -0.28959233945E+03  0.33293322362E+03  0.81174023828E+02 0.  0.
          6    2    1    2  501    0  0.17838067052E+03 -0.28765868266E+02  0.10389922003E+02  0.24981632443E+03  0.17220077433E+03 0.  0.
         24    2    5    5    0    0  0.11991710340E+03  0.49043867770E+02  0.30797987675E+00  0.15185674471E+03  0.79214666617E+02 0.  0.
          5    1    5    5  501    0  0.58463567116E+02 -0.77809736036E+02  0.10081942126E+02  0.97959579720E+02  0.47000000000E+01 0. -1.
        -11    1    6    6    0    0  0.62708478192E+02 -0.97029320044E+01  0.21786043533E+02  0.67090474879E+02  0.00000000000E+00 0.  1.
         12    1    6    6    0    0  0.57208625212E+02  0.58746799775E+02 -0.21478063657E+02  0.84766269830E+02  0.00000000000E+00 0. -1.
         -5    1    3    3    0  503 -0.40223128078E+02 -0.73461746406E+01  0.11540693618E+02  0.42745104087E+02  0.47000000000E+01 0.  1.
         13    1    4    4    0    0 -0.53614176778E+02  0.19553214645E+02 -0.20267025944E+03  0.21055175662E+03  0.00000000000E+00 0. -1.
        -14    1    4    4    0    0 -0.84543365663E+02  0.16558828262E+02 -0.86922080006E+02  0.12238146699E+03  0.00000000000E+00 0.  1.
</event>
<event>
12    1  0.8331241E-002  0.1950063E+03  0.7818608E-02  0.1154858E+00
         21   -1    0    0  503  502  0.00000000000E+00  0.00000000000E+00  0.42236973880E+03  0.42236973880E+03  0.00000000000E+00 0.  1.
         21   -1    0    0  501  503 -0.00000000000E+00 -0.00000000000E+00 -0.88523866610E+02  0.88523866610E+02  0.00000000000E+00 0.  1.
          6    2    1    2  501    0  0.17055897348E+02 -0.89916040979E+02  0.17843871129E+03  0.26153671103E+03  0.16788472079E+03 0.  0.
         24    2    3    3    0    0 -0.41502089532E+02 -0.67961301386E+02  0.57654149807E+02  0.12544097741E+03  0.77911975351E+02 0.  0.
         -6    2    1    2    0  502 -0.17055897348E+02  0.89916040979E+02  0.15540716091E+03  0.24935689438E+03  0.17219662323E+03 0.  0.
        -24    2    5    5    0    0 -0.18030334753E+02 -0.18635202254E+02  0.55520965532E+02  0.10176399495E+03  0.81246349579E+02 0.  0.
          5    1    3    3  501    0  0.58557986880E+02 -0.21954739592E+02  0.12078456148E+03  0.13609573362E+03  0.47000000000E+01 0. -1.
        -11    1    4    4    0    0 -0.21211685021E+02 -0.76730362690E+02  0.20494616061E+02  0.82204096172E+02  0.00000000000E+00 0.  1.
         12    1    4    4    0    0 -0.20290404511E+02  0.87690613039E+01  0.37159533746E+02  0.43236881242E+02  0.00000000000E+00 0. -1.
         -5    1    5    5    0  502  0.97443740506E+00  0.10855124323E+03  0.99886195376E+02  0.14759289943E+03  0.47000000000E+01 0.  1.
         13    1    6    6    0    0  0.18100159686E+02 -0.23992867470E+02 -0.55894965412E+01  0.30569853478E+02  0.00000000000E+00 0. -1.
        -14    1    6    6    0    0 -0.36130494439E+02  0.53576652162E+01  0.61110462073E+02  0.71194141471E+02  0.00000000000E+00 0.  1.
</event>
<event>
12    1  0.8331241E-002  0.1829578E+03  0.7818608E-02  0.1167295E+00
         21   -1    0    0  503  502  0.00000000000E+00  0.00000000000E+00  0.31404327857E+02  0.31404327857E+02  0.00000000000E+00 0.  1.
         21   -1    0    0  501  503 -0.00000000000E+00 -0.00000000000E+00 -0.16173508549E+04  0.16173508549E+04  0.00000000000E+00 0. -1.
          6    2    1    2  501    0 -0.10313836963E+02 -0.61445440408E+02 -0.12843332252E+04  0.12959887606E+04  0.16184287665E+03 0.  0.
         24    2    3    3    0    0 -0.62009772486E+02 -0.23872890086E+02 -0.63995422252E+03  0.64843138442E+03  0.80664283322E+02 0.  0.
         -6    2    1    2    0  502  0.10313836963E+02  0.61445440408E+02 -0.30161330181E+03  0.35276642218E+03  0.17202222941E+03 0.  0.
        -24    2    5    5    0    0  0.26985194505E+02 -0.28719941880E+02 -0.17295790951E+03  0.19470937459E+03  0.80276187673E+02 0.  0.
          5    1    3    3  501    0  0.51695935523E+02 -0.37572550322E+02 -0.64437900270E+03  0.64755737615E+03  0.47000000000E+01 0. -1.
        -13    1    4    4    0    0  0.21140109006E+01  0.15705466560E+02 -0.30835498396E+02  0.34669275783E+02  0.00000000000E+00 0.  1.
         14    1    4    4    0    0 -0.64123783387E+02 -0.39578356646E+02 -0.60911872413E+03  0.61376210863E+03  0.00000000000E+00 0. -1.
         -5    1    5    5    0  502 -0.16671357542E+02  0.90165382287E+02 -0.12865539231E+03  0.15805704760E+03  0.47000000000E+01 0.  1.
         11    1    6    6    0    0  0.15235111420E+02 -0.30375911585E+02 -0.17843359010E+03  0.18164071872E+03  0.00000000000E+00 0. -1.
        -12    1    6    6    0    0  0.11750083085E+02  0.16559697055E+01  0.54756805881E+01  0.13068655863E+02  0.00000000000E+00 0.  1.
</event>
<event>
12    1  0.8331241E-002  0.1746616E+03  0.7818608E-02  0.1173131E+00
         21   -1    0    0  501  502  0.00000000000E+00  0.00000000000E+00  0.11640730598E+03  0.11640730598E+03  0.00000000000E+00 0.  1.
         21   -1    0    0  502  503 -0.00000000000E+00 -0.00000000000E+00 -0.26199882448E+03  0.26199882448E+03  0.00000000000E+00 0.  1.
         -6    2    1    2    0  503 -0.32814697322E+02  0.57616042264E+01 -0.66518218284E+02  0.18667909772E+03  0.17121451959E+03 0.  0.
        -24    2    3    3    0    0  0.39960180734E+02  0.37805532496E+02 -0.36067833625E+02  0.10140124514E+03  0.77170263457E+02 0.  0.
          6    2    1    2  501    0  0.32814697322E+02 -0.57616042264E+01 -0.79073300210E+02  0.19172703274E+03  0.17145456493E+03 0.  0.
         24    2    5    5    0    0  0.70373952583E+02 -0.35593554180E+02 -0.17207380744E+02  0.11330430080E+03  0.79513371996E+02 0.  0.
          5    1    5    5  501    0 -0.37559255261E+02  0.29831949954E+02 -0.61865919465E+02  0.78422731941E+02  0.47000000000E+01 0. -1.
        -13    1    6    6    0    0  0.59465957359E+02 -0.60397415911E+02 -0.15411006190E+02  0.86148401291E+02  0.00000000000E+00 0.  1.
         14    1    6    6    0    0  0.10907995224E+02  0.24803861730E+02 -0.17963745542E+01  0.27155899508E+02  0.00000000000E+00 0. -1.
         -5    1    3    3    0  503 -0.72774878056E+02 -0.32043928270E+02 -0.30450384659E+02  0.85277852581E+02  0.47000000000E+01 0.  1.
         13    1    4    4    0    0 -0.21212181933E+01  0.91960401851E+01 -0.48178640446E+02  0.49094277843E+02  0.00000000000E+00 0. -1.
        -14    1    4    4    0    0  0.42081398927E+02  0.28609492311E+02  0.12110806821E+02  0.52306967297E+02  0.00000000000E+00 0.  1.
</event>
<event>
12    1  0.8331241E-002  0.1910139E+03  0.7818608E-02  0.1158087E+00
         21   -1    0    0  501  502  0.00000000000E+00  0.00000000000E+00  0.56860983081E+02  0.56860983081E+02  0.00000000000E+00 0.  1.
         21   -1    0    0  502  503 -0.00000000000E+00 -0.00000000000E+00 -0.10916875146E+04  0.10916875146E+04  0.00000000000E+00 0.  1.
         -6    2    1    2    0  503 -0.18088029466E+02  0.80943873142E+02 -0.89125548840E+03  0.91149473751E+03  0.17206749696E+03 0.  0.
        -24    2    3    3    0    0  0.46227279492E+02  0.26055735921E+02 -0.62079718033E+03  0.62808875138E+03  0.79312532182E+02 0.  0.
          6    2    1    2  501    0  0.18088029466E+02 -0.80943873142E+02 -0.14357104312E+03  0.23705376017E+03  0.16941886960E+03 0.  0.
         24    2    5    5    0    0 -0.97152086817E+01 -0.88460339645E+02 -0.16287757632E+03  0.20206305363E+03  0.79879633236E+02 0.  0.
          5    1    5    5  501    0  0.27803238148E+02  0.75164665023E+01  0.19306533193E+02  0.34990706539E+02  0.47000000000E+01 0. -1.
        -13    1    6    6    0    0  0.32035009971E+02 -0.49905072468E+02 -0.10717030125E+03  0.12248359724E+03  0.00000000000E+00 0.  1.
         14    1    6    6    0    0 -0.41750218653E+02 -0.38555267177E+02 -0.55707275065E+02  0.79579456393E+02  0.00000000000E+00 0. -1.
         -5    1    3    3    0  503 -0.64315308958E+02  0.54888137221E+02 -0.27045830806E+03  0.28340598613E+03  0.47000000000E+01 0.  1.
         13    1    4    4    0    0  0.60193151453E+02  0.16477759272E+02 -0.58677985448E+03  0.59008925567E+03  0.00000000000E+00 0. -1.
        -14    1    4    4    0    0 -0.13965871961E+02  0.95779766491E+01 -0.34017325851E+02  0.37999495712E+02  0.00000000000E+00 0.  1.
</event>
<event>
12    1  0.8331241E-002  0.1991381E+03  0.7818608E-02  0.1151144E+00
         21   -1    0    0  503  502  0.00000000000E+00  0.00000000000E+00  0.16654682032E+03  0.16654682032E+03  0.00000000000E+00 0.  1.
         21   -1    0    0  501  503 -0.00000000000E+00 -0.00000000000E+00 -0.25824586583E+03  0.25824586583E+03  0.00000000000E+00 0.  1.
          6    2    1    2  501    0 -0.12702981113E+02 -0.93130926878E+02  0.19093463482E+02  0.19690900621E+03  0.17197052395E+03 0.  0.
         24    2    3    3    0    0 -0.52818342223E+01 -0.76792334083E+02 -0.55706695635E+02  0.11984295117E+03  0.73035174127E+02 0.  0.
         -6    2    1    2    0  502  0.12702981113E+02  0.93130926878E+02 -0.11079250899E+03  0.22788367994E+03  0.17555983670E+03 0.  0.
        -24    2    5    5    0    0  0.36343663927E+02  0.37777350729E+02 -0.13111466263E+03  0.16418140208E+03  0.83764478726E+02 0.  0.
          5    1    3    3  501    0 -0.74211468907E+01 -0.16338592795E+02  0.74800159117E+02  0.77066055041E+02  0.47000000000E+01 0. -1.
        -11    1    4    4    0    0  0.13718455562E+02 -0.59848579527E+02 -0.31928617980E+01  0.61483679630E+02  0.00000000000E+00 0.  1.
         12    1    4    4    0    0 -0.19000289785E+02 -0.16943754557E+02 -0.52513833837E+02  0.58359271540E+02  0.00000000000E+00 0. -1.
         -5    1    5    5    0  502 -0.23640682814E+02  0.55353576149E+02  0.20322153636E+02  0.63702277862E+02  0.47000000000E+01 0.  1.
         11    1    6    6    0    0  0.83784585450E+01 -0.22338288747E+02 -0.70206373898E+02  0.74149394115E+02  0.00000000000E+00 0. -1.
        -12    1    6    6    0    0  0.27965205382E+02  0.60115639476E+02 -0.60908288730E+02  0.90032007962E+02  0.00000000000E+00 0.  1.
</event>
<event>
12    1  0.8331241E-002  0.2134040E+03  0.7818608E-02  0.1138916E+00
         21   -1    0    0  503  502  0.00000000000E+00  0.00000000000E+00  0.11125594596E+04  0.11125594596E+04  0.00000000000E+00 0.  1.
         21   -1    0    0  501  503 -0.00000000000E+00 -0.00000000000E+00 -0.14670480856E+03  0.14670480856E+03  0.00000000000E+00 0. -1.
          6    2    1    2  501    0  0.89517395120E+01  0.12705205753E+03 -0.51711969834E+02  0.21958004541E+03  0.17122765418E+03 0.  0.
         24    2    3    3    0    0  0.59187933932E+02  0.68542657170E+02  0.11368132722E+02  0.11983930900E+03  0.77658986382E+02 0.  0.
         -6    2    1    2    0  502 -0.89517395120E+01 -0.12705205753E+03  0.10175666209E+04  0.10396842227E+04  0.17111135602E+03 0.  0.
        -24    2    5    5    0    0  0.12951759840E+02 -0.96288329672E+01  0.59054217071E+03  0.59624319174E+03  0.80656219826E+02 0.  0.
          5    1    3    3  501    0 -0.50236194420E+02  0.58509400360E+02 -0.63080102555E+02  0.99740736406E+02  0.47000000000E+01 0. -1.
        -13    1    4    4    0    0  0.12326229823E+02 -0.16741546260E+02 -0.44240537767E+01  0.21255294979E+02  0.00000000000E+00 0.  1.
         14    1    4    4    0    0  0.46861704110E+02  0.85284203431E+02  0.15792186498E+02  0.98584014025E+02  0.00000000000E+00 0. -1.
         -5    1    5    5    0  502 -0.21903499352E+02 -0.11742322456E+03  0.42702445015E+03  0.44344103100E+03  0.47000000000E+01 0.  1.
         13    1    6    6    0    0 -0.76688174795E+01  0.33514734511E+02  0.23622290554E+03  0.23871177033E+03  0.00000000000E+00 0. -1.
        -14    1    6    6    0    0  0.20620577319E+02 -0.43143567478E+02  0.35431926517E+03  0.35753142141E+03  0.00000000000E+00 0.  1.
</event>
<event>
12    1  0.8331241E-002  0.2024049E+03  0.7818608E-02  0.1147771E+00
         21   -1    0    0  501  502  0.00000000000E+00  0.00000000000E+00  0.14487391615E+04  0.14487391615E+04  0.00000000000E+00 0. -1.
         21   -1    0    0  502  503 -0.00000000000E+00 -0.00000000000E+00 -0.33060412652E+02  0.33060412652E+02  0.00000000000E+00 0. -1.
         -6    2    1    2    0  503  0.10445645710E+03  0.16390338620E+02  0.42481943418E+03  0.47047868394E+03  0.17233353056E+03 0.  0.
        -24    2    3    3    0    0  0.95533893641E+02  0.31184466377E+02  0.43231080575E+03  0.45107020634E+03  0.80451864498E+02 0.  0.
          6    2    1    2  501    0 -0.10445645710E+03 -0.16390338620E+02  0.99085931470E+03  0.10113208902E+04  0.17259190852E+03 0.  0.
         24    2    5    5    0    0  0.22338119672E+01  0.14720112595E+02  0.57679800225E+03  0.58257908665E+03  0.80503323929E+02 0.  0.
          5    1    5    5  501    0 -0.10669026906E+03 -0.31110451215E+02  0.41406131245E+03  0.42874180360E+03  0.47000000000E+01 0. -1.
        -11    1    6    6    0    0 -0.31714561627E+02 -0.95153423589E+01  0.37827711242E+03  0.37972349011E+03  0.00000000000E+00 0.  1.
         12    1    6    6    0    0  0.33948373594E+02  0.24235454954E+02  0.19852088983E+03  0.20285559653E+03  0.00000000000E+00 0. -1.
         -5    1    3    3    0  503  0.89225634549E+01 -0.14794127756E+02 -0.74913715719E+01  0.19408477599E+02  0.47000000000E+01 0.  1.
         11    1    4    4    0    0  0.37021423683E+02  0.73382898410E+01  0.31989861675E+03  0.32211730986E+03  0.00000000000E+00 0. -1.
        -12    1    4    4    0    0  0.58512469958E+02  0.23846176536E+02  0.11241218900E+03  0.12895289648E+03  0.00000000000E+00 0.  1.
</event>
<event>
12    1  0.8331241E-002  0.1826730E+03  0.7818608E-02  0.1166271E+00
         21   -1    0    0  501  502  0.00000000000E+00  0.00000000000E+00  0.32672013543E+03  0.32672013543E+03  0.00000000000E+00 0. -1.
         21   -1    0    0  502  503 -0.00000000000E+00 -0.00000000000E+00 -0.13053391063E+03  0.13053391063E+03  0.00000000000E+00 0. -1.
         -6    2    1    2    0  503 -0.14432584622E+02  0.53810150493E+02  0.20999747194E+03  0.27833141332E+03  0.17397012853E+03 0.  0.
        -24    2    3    3    0    0  0.60210501161E+00  0.32510681344E+02  0.22895562358E+03  0.24575518284E+03  0.83172263381E+02 0.  0.
          6    2    1    2  501    0  0.14432584622E+02 -0.53810150493E+02 -0.13811247139E+02  0.17892263274E+03  0.16946600298E+03 0.  0.
         24    2    5    5    0    0  0.19864737856E+02 -0.15496859526E+02  0.55998013389E+02  0.98967398963E+02  0.77614483756E+02 0.  0.
          5    1    5    5  501    0 -0.54321532348E+01 -0.38313290966E+02 -0.69809260528E+02  0.79955233780E+02  0.47000000000E+01 0. -1.
        -13    1    6    6    0    0  0.31450571620E+02 -0.36153961163E+02  0.12633458601E+02  0.49556549912E+02  0.00000000000E+00 0.  1.
         14    1    6    6    0    0 -0.11585833764E+02  0.20657101636E+02  0.43364554787E+02  0.49410849051E+02  0.00000000000E+00 0. -1.
         -5    1    3    3    0  503 -0.15034689633E+02  0.21299469148E+02 -0.18958151634E+02  0.32576230472E+02  0.47000000000E+01 0.  1.
         13    1    4    4    0    0  0.32244630279E+02  0.38871944253E+02  0.91013630413E+02  0.10408758405E+03  0.00000000000E+00 0. -1.
        -14    1    4    4    0    0 -0.31642525268E+02 -0.63612629092E+01  0.13794199316E+03  0.14166759880E+03  0.00000000000E+00 0.  1.
</event>
<event>
12    1  0.8331241E-002  0.1897762E+03  0.7818608E-02  0.1158818E+00
         21   -1    0    0  503  502  0.00000000000E+00  0.00000000000E+00  0.10643585605E+04  0.10643585605E+04  0.00000000000E+00 0.  1.
         21   -1    0    0  501  503 -0.00000000000E+00 -0.00000000000E+00 -0.82197304178E+02  0.82197304178E+02  0.00000000000E+00 0. -1.
          6    2    1    2  501    0 -0.80632820296E+02  0.95100997619E+00  0.50443435382E+02  0.19570723600E+03  0.17103866791E+03 0.  0.
         24    2    3    3    0    0 -0.10944698229E+03  0.36000344414E+02  0.54879685490E+02  0.14987621931E+03  0.78590295223E+02 0.  0.
         -6    2    1    2    0  502  0.80632820296E+02 -0.95100997619E+00  0.93171782092E+03  0.95084862865E+03  0.17179191094E+03 0.  0.
        -24    2    5    5    0    0 -0.21156742358E+02 -0.19694533447E+02  0.35096464323E+03  0.36092594039E+03  0.79094065839E+02 0.  0.
          5    1    3    3  501    0  0.28814161999E+02 -0.35049334438E+02 -0.44362501079E+01  0.45831016695E+02  0.47000000000E+01 0. -1.
        -13    1    4    4    0    0 -0.13462579347E+02  0.41197912958E+02  0.17223054448E+02  0.46638424923E+02  0.00000000000E+00 0.  1.
         14    1    4    4    0    0 -0.95984402948E+02 -0.51975685436E+01  0.37656631042E+02  0.10323779438E+03  0.00000000000E+00 0. -1.
         -5    1    5    5    0  502  0.10178956265E+03  0.18743523470E+02  0.58075317768E+03  0.58992268826E+03  0.47000000000E+01 0.  1.
         13    1    6    6    0    0 -0.23778543839E+02 -0.32815153526E+02  0.80446895621E+02  0.90077502536E+02  0.00000000000E+00 0. -1.
        -14    1    6    6    0    0  0.26218014811E+01  0.13120620080E+02  0.27051774761E+03  0.27084843785E+03  0.00000000000E+00 0.  1.
</event>
<event>
12    1  0.8331241E-002  0.2728825E+03  0.7818608E-02  0.1100405E+00
         21   -1    0    0  501  502  0.00000000000E+00  0.00000000000E+00  0.13073939407E+04  0.13073939407E+04  0.00000000000E+00 0.  1.
         21   -1    0    0  502  503 -0.00000000000E+00 -0.00000000000E+00 -0.79950743154E+02  0.79950743154E+02  0.00000000000E+00 0. -1.
         -6    2    1    2    0  503 -0.11048836755E+03  0.17732090784E+03  0.23708346113E+03  0.36148775864E+03  0.17554044658E+03 0.  0.
        -24    2    3    3    0    0 -0.66472368787E+02  0.15618997416E+02  0.10630484364E+03  0.14886120157E+03  0.78717270393E+02 0.  0.
          6    2    1    2  501    0  0.11048836755E+03 -0.17732090784E+03  0.99035973638E+03  0.10258569252E+04  0.16709171069E+03 0.  0.
         24    2    5    5    0    0  0.71341575872E+02 -0.26851288820E+02  0.51097361160E+03  0.52186612747E+03  0.73753719167E+02 0.  0.
          5    1    5    5  501    0  0.39146791674E+02 -0.15046961902E+03  0.47938612478E+03  0.50399079771E+03  0.47000000000E+01 0. -1.
        -11    1    6    6    0    0  0.57681487501E+02 -0.47699641713E+02  0.44672535087E+03  0.45295247977E+03  0.00000000000E+00 0.  1.
         12    1    6    6    0    0  0.13660088371E+02  0.20848352893E+02  0.64248260730E+02  0.68913647701E+02  0.00000000000E+00 0. -1.
         -5    1    3    3    0  503 -0.44015998758E+02  0.16170191042E+03  0.13077861749E+03  0.21262655707E+03  0.47000000000E+01 0.  1.
         11    1    4    4    0    0 -0.25173601266E+02 -0.31430192455E+02  0.30310724343E+02  0.50401460382E+02  0.00000000000E+00 0. -1.
        -12    1    4    4    0    0 -0.41298767521E+02  0.47049189872E+02  0.75994119300E+02  0.98459741186E+02  0.00000000000E+00 0.  1.
</event>
<event>
12    1  0.8331241E-002  0.2857238E+03  0.7818608E-02  0.1092775E+00
         21   -1    0    0  501  502  0.00000000000E+00  0.00000000000E+00  0.22283882660E+03  0.22283882660E+03  0.00000000000E+00 0.  1.
         21   -1    0    0  502  503 -0.00000000000E+00 -0.00000000000E+00 -0.37564090264E+03  0.37564090264E+03  0.00000000000E+00 0. -1.
         -6    2    1    2    0  503 -0.22824745639E+03  0.11602982241E+02 -0.12728899760E+03  0.31161911714E+03  0.16932942659E+03 0.  0.
        -24    2    3    3    0    0 -0.15745173253E+03  0.20036212634E+02 -0.15409191632E+03  0.23530633745E+03  0.80201345843E+02 0.  0.
          6    2    1    2  501    0  0.22824745639E+03 -0.11602982241E+02 -0.25513078431E+02  0.28686061211E+03  0.17148341921E+03 0.  0.
         24    2    5    5    0    0  0.21122049159E+03 -0.55039968568E+02 -0.18669190070E+01  0.23434470817E+03  0.85267007981E+02 0.  0.
          5    1    5    5  501    0  0.17026964795E+02  0.43436986327E+02 -0.23646159424E+02  0.52515903942E+02  0.47000000000E+01 0. -1.
        -11    1    6    6    0    0  0.19375861126E+03 -0.19500925286E+02 -0.19619275083E+01  0.19474736118E+03  0.00000000000E+00 0.  1.
         12    1    6    6    0    0  0.17461880331E+02 -0.35539043282E+02  0.95008501299E-01  0.39597346991E+02  0.00000000000E+00 0. -1.
         -5    1    3    3    0  503 -0.70795723854E+02 -0.84332303931E+01  0.26802918720E+02  0.76312779682E+02  0.47000000000E+01 0.  1.
         13    1    4    4    0    0 -0.93039337078E+02  0.12684415295E+02 -0.35952332103E+02  0.10054741577E+03  0.00000000000E+00 0. -1.
        -14    1    4    4    0    0 -0.64412395456E+02  0.73517973388E+01 -0.11813958422E+03  0.13475892168E+03  0.00000000000E+00 0.  1.
</event>
<event>
12    1  0.8331241E-002  0.2345582E+03  0.7818608E-02  0.1123614E+00
         21   -1    0    0  501  502  0.00000000000E+00  0.00000000000E+00  0.10365531457E+04  0.10365531457E+04  0.00000000000E+00 0. -1.
         21   -1    0    0  502  503 -0.00000000000E+00 -0.00000000000E+00 -0.11253760102E+03  0.11253760102E+03  0.00000000000E+00 0.  1.
         -6    2    1    2    0  503  0.15215543583E+03 -0.54103645438E+02  0.44108156395E+02  0.23866942356E+03  0.17011491169E+03 0.  0.
        -24    2    3    3    0    0  0.17448259982E+03 -0.34394102381E+02  0.57994134972E+02  0.20547486466E+03  0.85026280634E+02 0.  0.
          6    2    1    2  501    0 -0.15215543583E+03  0.54103645438E+02  0.87990738828E+03  0.91042132317E+03  0.16897186931E+03 0.  0.
         24    2    5    5    0    0 -0.11815704758E+03  0.47173651678E+02  0.85313124536E+03  0.86634222327E+03  0.80805227060E+02 0.  0.
          5    1    5    5  501    0 -0.33998388252E+02  0.69299937596E+01  0.26776142926E+02  0.44079099891E+02  0.47000000000E+01 0. -1.
        -13    1    6    6    0    0 -0.48427761318E+02  0.49686319008E+01  0.13330430191E+03  0.14191537012E+03  0.00000000000E+00 0.  1.
         14    1    6    6    0    0 -0.69729286260E+02  0.42205019777E+02  0.71982694345E+03  0.72442685315E+03  0.00000000000E+00 0. -1.
         -5    1    3    3    0  503 -0.22327163988E+02 -0.19709543057E+02 -0.13885978577E+02  0.33194558896E+02  0.47000000000E+01 0.  1.
         11    1    4    4    0    0  0.14579889430E+03 -0.24243806517E+02  0.79869526027E+02  0.16800065750E+03  0.00000000000E+00 0. -1.
        -12    1    4    4    0    0  0.28683705520E+02 -0.10150295864E+02 -0.21875391055E+02  0.37474207160E+02  0.00000000000E+00 0.  1.
</event>
<event>
12    1  0.8331241E-002  0.3033495E+03  0.7818608E-02  0.1083710E+00
         21   -1    0    0  501  502  0.00000000000E+00  0.00000000000E+00  0.86856181555E+03  0.86856181555E+03  0.00000000000E+00 0.  1.
         21   -1    0    0  502  503 -0.00000000000E+00 -0.00000000000E+00 -0.16708835340E+03  0.16708835340E+03  0.00000000000E+00 0. -1.
         -6    2    1    2    0  503 -0.75475958012E+02  0.23687261658E+03  0.36154308608E+02  0.30443851798E+03  0.17196052011E+03 0.  0.
        -24    2    3    3    0    0  0.40723945583E+01  0.41145601727E+02  0.27238391523E+02  0.92923534310E+02  0.78634015013E+02 0.  0.
          6    2    1    2  501    0  0.75475958012E+02 -0.23687261658E+03  0.66531915354E+03  0.73121165097E+03  0.17382648165E+03 0.  0.
         24    2    5    5    0    0  0.96596689183E+02 -0.20246718523E+03  0.42213754892E+03  0.48465698802E+03  0.79802283061E+02 0.  0.
          5    1    5    5  501    0 -0.21120731170E+02 -0.34405431354E+02  0.24318160463E+03  0.24655466295E+03  0.47000000000E+01 0. -1.
        -13    1    6    6    0    0  0.46046369051E+02 -0.13002439742E+03  0.32662762016E+03  0.35455918304E+03  0.00000000000E+00 0.  1.
         14    1    6    6    0    0  0.50550320131E+02 -0.72442787809E+02  0.95509928758E+02  0.13009780499E+03  0.00000000000E+00 0. -1.
         -5    1    3    3    0  503 -0.79548352571E+02  0.19572701485E+03  0.89159170860E+01  0.21151498367E+03  0.47000000000E+01 0.  1.
         13    1    4    4    0    0 -0.32672756597E+02  0.33831601932E+02  0.29279565521E+02  0.55401978936E+02  0.00000000000E+00 0. -1.
        -14    1    4    4    0    0  0.36745151156E+02  0.73139997950E+01 -0.20411739980E+01  0.37521555375E+02  0.00000000000E+00 0.  1.
</event>
<event>
12    1  0.8331241E-002  0.2189177E+03  0.7818608E-02  0.1135385E+00
         21   -1    0    0  501  502  0.00000000000E+00  0.00000000000E+00  0.28620394335E+03  0.28620394335E+03  0.00000000000E+00 0. -1.
         21   -1    0    0  502  503 -0.00000000000E+00 -0.00000000000E+00 -0.31644028266E+03  0.31644028266E+03  0.00000000000E+00 0. -1.
         -6    2    1    2    0  503  0.13805263131E+02 -0.13240760801E+03 -0.22386265838E+03  0.31311251506E+03  0.17378894476E+03 0.  0.
        -24    2    3    3    0    0  0.39427509265E+02 -0.13436566372E+03 -0.23726653788E+03  0.28375118906E+03  0.67901894069E+02 0.  0.
          6    2    1    2  501    0 -0.13805263131E+02  0.13240760801E+03  0.19362631907E+03  0.28953171095E+03  0.16915998422E+03 0.  0.
         24    2    5    5    0    0 -0.62542802720E+02  0.38336958958E+02  0.10629568776E+03  0.15215134866E+03  0.80435906588E+02 0.  0.
          5    1    5    5  501    0  0.48737539589E+02  0.94070649052E+02  0.87330631314E+02  0.13738036229E+03  0.47000000000E+01 0. -1.
        -11    1    6    6    0    0 -0.86398832956E+01 -0.22037569386E+00 -0.13042210842E+02  0.15645939168E+02  0.00000000000E+00 0.  1.
         12    1    6    6    0    0 -0.53902919424E+02  0.38557334651E+02  0.11933789860E+03  0.13650540949E+03  0.00000000000E+00 0. -1.
         -5    1    3    3    0  503 -0.25622246134E+02  0.19580557137E+01  0.13403879500E+02  0.29361326005E+02  0.47000000000E+01 0.  1.
         13    1    4    4    0    0  0.55164111157E+02 -0.10259721377E+03 -0.20514861067E+03  0.23591358564E+03  0.00000000000E+00 0. -1.
        -14    1    4    4    0    0 -0.15736601892E+02 -0.31768449957E+02 -0.32117927213E+02  0.47837603412E+02  0.00000000000E+00 0.  1.
</event>
<event>
12    1  0.8331241E-002  0.1735211E+03  0.7818608E-02  0.1174597E+00
         21   -1    0    0  501  502  0.00000000000E+00  0.00000000000E+00  0.25345663034E+03  0.25345663034E+03  0.00000000000E+00 0. -1.
         21   -1    0    0  502  503 -0.00000000000E+00 -0.00000000000E+00 -0.18822552549E+03  0.18822552549E+03  0.00000000000E+00 0. -1.
         -6    2    1    2    0  503 -0.21361408549E+02 -0.89397274744E+01 -0.10255656475E+03  0.20030634720E+03  0.17049502999E+03 0.  0.
        -24    2    3    3    0    0 -0.50434141808E+02  0.20357409489E+02 -0.11979572012E+03  0.15533052557E+03  0.82574395747E+02 0.  0.
          6    2    1    2  501    0  0.21361408549E+02  0.89397274744E+01  0.16778766961E+03  0.24137580863E+03  0.17196903913E+03 0.  0.
         24    2    5    5    0    0  0.29955756411E+02  0.33394549669E+02  0.18775100952E+02  0.90052523045E+02  0.75791880840E+02 0.  0.
          5    1    5    5  501    0 -0.85943478624E+01 -0.24454822194E+02  0.14901256866E+03  0.15132328559E+03  0.47000000000E+01 0. -1.
        -11    1    6    6    0    0  0.41415365721E+01  0.46570566468E+02  0.33525942852E+02  0.57532241660E+02  0.00000000000E+00 0.  1.
         12    1    6    6    0    0  0.25814219839E+02 -0.13176016799E+02 -0.14750841900E+02  0.32520281385E+02  0.00000000000E+00 0. -1.
         -5    1    3    3    0  503  0.29072733259E+02 -0.29297136963E+02  0.17239155367E+02  0.44975821628E+02  0.47000000000E+01 0.  1.
         11    1    4    4    0    0  0.10728894174E+01 -0.28038259568E+02 -0.30369045349E+02  0.41346995135E+02  0.00000000000E+00 0. -1.
        -12    1    4    4    0    0 -0.51507031225E+02  0.48395669057E+02 -0.89426674772E+02  0.11398353043E+03  0.00000000000E+00 0.  1.
</event>
<event>
12    1  0.8331241E-002  0.1999101E+03  0.7818608E-02  0.1149855E+00
         21   -1    0    0  501  502  0.00000000000E+00  0.00000000000E+00  0.10294209000E+03  0.10294209000E+03  0.00000000000E+00 0.  1.
         21   -1    0    0  502  503 -0.00000000000E+00 -0.00000000000E+00 -0.70469500739E+03  0.70469500739E+03  0.00000000000E+00 0. -1.
         -6    2    1    2    0  503  0.90143469502E+02 -0.47317330400E+02 -0.57173336939E+03  0.60567574498E+03  0.17204443479E+03 0.  0.
        -24    2    3    3    0    0 -0.41551004040E+01 -0.61619081711E+02 -0.29216773856E+03  0.31025097907E+03  0.84139803114E+02 0.  0.
          6    2    1    2  501    0 -0.90143469502E+02  0.47317330400E+02 -0.30019548000E+02  0.20196135241E+03  0.17182095260E+03 0.  0.
         24    2    5    5    0    0 -0.10591815189E+03  0.28284697175E+02  0.20219551689E+02  0.14577292949E+03  0.93926767795E+02 0.  0.
          5    1    5    5  501    0  0.15774682387E+02  0.19032633225E+02 -0.50239099689E+02  0.56188422913E+02  0.47000000000E+01 0. -1.
        -13    1    6    6    0    0 -0.30104727919E+02 -0.30917757461E+02 -0.11196579236E+02  0.44582123728E+02  0.00000000000E+00 0.  1.
         14    1    6    6    0    0 -0.75813423970E+02  0.59202454635E+02  0.31416130925E+02  0.10119080576E+03  0.00000000000E+00 0. -1.
         -5    1    3    3    0  503  0.94298569906E+02  0.14301751311E+02 -0.27956563082E+03  0.29542476591E+03  0.47000000000E+01 0.  1.
         13    1    4    4    0    0  0.27555499574E+02 -0.22028662875E+02 -0.21519567998E+03  0.21806821920E+03  0.00000000000E+00 0. -1.
        -14    1    4    4    0    0 -0.31710599978E+02 -0.39590418835E+02 -0.76972058588E+02  0.92182759873E+02  0.00000000000E+00 0.  1.
</event>
<event>
12    1  0.8331241E-002  0.1859202E+03  0.7818608E-02  0.1162382E+00
         21   -1    0    0  503  502  0.00000000000E+00  0.00000000000E+00  0.10580800145E+03  0.10580800145E+03  0.00000000000E+00 0.  1.
         21   -1    0    0  501  503 -0.00000000000E+00 -0.00000000000E+00 -0.70917116179E+03  0.70917116179E+03  0.00000000000E+00 0.  1.
          6    2    1    2  501    0 -0.58558900129E+02 -0.35214214889E+02 -0.15652066178E+01  0.18511639524E+03  0.17203617120E+03 0.  0.
         24    2    3    3    0    0  0.27077406278E+02 -0.50288904609E+02 -0.38308928258E+01  0.98007000923E+02  0.79552100114E+02 0.  0.
         -6    2    1    2    0  502  0.58558900129E+02  0.35214214889E+02 -0.60179795372E+03  0.62986276799E+03  0.17290790522E+03 0.  0.
        -24    2    5    5    0    0 -0.31840527283E+02 -0.28948545688E+00 -0.25001056835E+03  0.26488465396E+03  0.81514984143E+02 0.  0.
          5    1    3    3  501    0 -0.85636306407E+02  0.15074689720E+02  0.22656862079E+01  0.87109394322E+02  0.47000000000E+01 0. -1.
        -11    1    4    4    0    0 -0.15423079356E+02 -0.46623648134E+02  0.15041808447E+02  0.51360412221E+02  0.00000000000E+00 0.  1.
         12    1    4    4    0    0  0.42500485634E+02 -0.36652564748E+01 -0.18872701273E+02  0.46646588702E+02  0.00000000000E+00 0. -1.
         -5    1    5    5    0  502  0.90399427411E+02  0.35503700346E+02 -0.35178738537E+03  0.36497811403E+03  0.47000000000E+01 0.  1.
         11    1    6    6    0    0  0.63227302292E+01 -0.17823624037E+02 -0.19378132118E+03  0.19470197464E+03  0.00000000000E+00 0. -1.
        -12    1    6    6    0    0 -0.38163257512E+02  0.17534138581E+02 -0.56229247174E+02  0.70182679326E+02  0.00000000000E+00 0.  1.
</event>
<event>
12    1  0.8331241E-002  0.1872260E+03  0.7818608E-02  0.1161068E+00
         21   -1    0    0  503  502  0.00000000000E+00  0.00000000000E+00  0.47408492764E+02  0.47408492764E+02  0.00000000000E+00 0.  1.
         21   -1    0    0  501  503 -0.00000000000E+00 -0.00000000000E+00 -0.14286500129E+04  0.14286500129E+04  0.00000000000E+00 0.  1.
          6    2    1    2  501    0  0.70200223182E+02  0.19974911430E+02 -0.12034276273E+04  0.12178505661E+04  0.17203162155E+03 0.  0.
         24    2    3    3    0    0  0.90582856679E+02  0.59975331977E+02 -0.77776074663E+03  0.78979698455E+03  0.84054764481E+02 0.  0.
         -6    2    1    2    0  502 -0.70200223182E+02 -0.19974911430E+02 -0.17781389287E+03  0.25820793958E+03  0.17241372087E+03 0.  0.
        -24    2    5    5    0    0 -0.75286723465E+02  0.71650275039E+01 -0.35226665274E+02  0.11289566810E+03  0.76059750065E+02 0.  0.
          5    1    3    3  501    0 -0.20382633497E+02 -0.40000420547E+02 -0.42566688063E+03  0.42805358152E+03  0.47000000000E+01 0. -1.
        -11    1    4    4    0    0  0.28275983262E+02  0.51991085608E+02 -0.19835096824E+03  0.20699205496E+03  0.00000000000E+00 0.  1.
         12    1    4    4    0    0  0.62306873417E+02  0.79842463688E+01 -0.57940977839E+03  0.58280492959E+03  0.00000000000E+00 0. -1.
         -5    1    5    5    0  502  0.50865002830E+01 -0.27139938934E+02 -0.14258722759E+03  0.14531227148E+03  0.47000000000E+01 0.  1.
         11    1    6    6    0    0 -0.35113499510E+02  0.35322722386E+02 -0.39617245767E+02  0.63641014501E+02  0.00000000000E+00 0. -1.
        -12    1    6    6    0    0 -0.40173223955E+02 -0.28157694882E+02  0.43905804924E+01  0.49254653598E+02  0.00000000000E+00 0.  1.
</event>
<event>
12    1  0.8331241E-002  0.1909821E+03  0.7818608E-02  0.1158373E+00
         21   -1    0    0  501  502  0.00000000000E+00  0.00000000000E+00  0.34924468372E+03  0.34924468372E+03  0.00000000000E+00 0.  1.
         21   -1    0    0  502  503 -0.00000000000E+00 -0.00000000000E+00 -0.12272140226E+03  0.12272140226E+03  0.00000000000E+00 0.  1.
         -6    2    1    2    0  503 -0.45068871580E+02 -0.69227565453E+02  0.20811221606E+03  0.28009857801E+03  0.16828802668E+03 0.  0.
        -24    2    3    3    0    0 -0.25536824378E+02 -0.28271470150E+00  0.60184599645E+02  0.11566146842E+03  0.95410585968E+02 0.  0.
          6    2    1    2  501    0  0.45068871580E+02  0.69227565453E+02  0.18411065403E+02  0.19186750797E+03  0.17219324691E+03 0.  0.
         24    2    5    5    0    0  0.17148479363E+02  0.78002788001E+02 -0.44198005645E+02  0.12259602315E+03  0.81840185164E+02 0.  0.
          5    1    5    5  501    0  0.27920392217E+02 -0.87752225472E+01  0.62609071047E+02  0.69271484824E+02  0.47000000000E+01 0. -1.
        -11    1    6    6    0    0  0.44058535113E+02  0.62787430912E+02 -0.11435552350E+02  0.77551195055E+02  0.00000000000E+00 0.  1.
         12    1    6    6    0    0 -0.26910055750E+02  0.15215357089E+02 -0.32762453295E+02  0.45044828091E+02  0.00000000000E+00 0. -1.
         -5    1    3    3    0  503 -0.19532047202E+02 -0.68944850752E+02  0.14792761642E+03  0.16443710959E+03  0.47000000000E+01 0.  1.
         13    1    4    4    0    0 -0.36889860518E+02  0.28943371032E+02 -0.10125425398E+01  0.46899954991E+02  0.00000000000E+00 0. -1.
        -14    1    4    4    0    0  0.11353036140E+02 -0.29226085734E+02  0.61197142185E+02  0.68761513425E+02  0.00000000000E+00 0.  1.
</event>
<event>
12    1  0.8331241E-002  0.1776317E+03  0.7818608E-02  0.1170159E+00
         21   -1    0    0  501  502  0.00000000000E+00  0.00000000000E+00  0.30540705454E+03  0.30540705454E+03  0.00000000000E+00 0. -1.
         21   -1    0    0  502  503 -0.00000000000E+00 -0.00000000000E+00 -0.20300984220E+03  0.20300984220E+03  0.00000000000E+00 0. -1.
         -6    2    1    2    0  503  0.10139129520E+02  0.41347722977E+02 -0.12702433333E+03  0.21837629575E+03  0.17245460024E+03 0.  0.
        -24    2    3    3    0    0 -0.31240514240E+02  0.55079893386E+02 -0.21620304982E+02  0.10421436421E+03  0.79896381233E+02 0.  0.
          6    2    1    2  501    0 -0.10139129520E+02 -0.41347722977E+02  0.22942154567E+03  0.29004060100E+03  0.17226975494E+03 0.  0.
         24    2    5    5    0    0  0.19500566007E+02 -0.58001976970E+02  0.60433706964E+02  0.11760262561E+03  0.80209994424E+02 0.  0.
          5    1    5    5  501    0 -0.29639695527E+02  0.16654253993E+02  0.16898783870E+03  0.17243797539E+03  0.47000000000E+01 0. -1.
        -11    1    6    6    0    0  0.49642723358E+02 -0.23759127022E+02  0.36999205713E+02  0.66316192010E+02  0.00000000000E+00 0.  1.
         12    1    6    6    0    0 -0.30142157351E+02 -0.34242849948E+02  0.23434501251E+02  0.51286433598E+02  0.00000000000E+00 0. -1.
         -5    1    3    3    0  503  0.41379643760E+02 -0.13732170409E+02 -0.10540402835E+03  0.11416193154E+03  0.47000000000E+01 0.  1.
         13    1    4    4    0    0  0.17115239911E+02 -0.77474720346E+01  0.68190901357E+01  0.19986364112E+02  0.00000000000E+00 0. -1.
        -14    1    4    4    0    0 -0.48355754152E+02  0.62827365421E+02 -0.28439395118E+02  0.84228000095E+02  0.00000000000E+00 0.  1.
</event>
<event>
12    1  0.8331241E-002  0.2316595E+03  0.7818608E-02  0.1125807E+00
         21   -1    0    0  503  502  0.00000000000E+00  0.00000000000E+00  0.32888529210E+03  0.32888529210E+03  0.00000000000E+00 0. -1.
         21   -1    0    0  501  503 -0.00000000000E+00 -0.00000000000E+00 -0.16800659456E+03  0.16800659456E+03  0.00000000000E+00 0. -1.
          6    2    1    2  501    0  0.60924371826E+02  0.14199581609E+03  0.33204875274E+02  0.23402706903E+03  0.17260218547E+03 0.  0.
         24    2    3    3    0    0 -0.15634314952E+02  0.54745412918E+01 -0.17816582775E+00  0.73915206806E+02  0.72034877994E+02 0.  0.
         -6    2    1    2    0  502 -0.60924371826E+02 -0.14199581609E+03  0.12767382227E+03  0.26286481762E+03  0.17006680035E+03 0.  0.
        -24    2    5    5    0    0 -0.21676610552E+02 -0.16624834385E+03  0.76554474318E+02  0.19384417141E+03  0.60054874706E+02 0.  0.
          5    1    3    3  501    0  0.76558686779E+02  0.13652127480E+03  0.33383041102E+02  0.16011186223E+03  0.47000000000E+01 0. -1.
        -11    1    4    4    0    0 -0.54282829817E+00  0.30216317726E+02 -0.22214734080E+02  0.37507531641E+02  0.00000000000E+00 0.  1.
         12    1    4    4    0    0 -0.15091486654E+02 -0.24741776435E+02  0.22036568253E+02  0.36407675165E+02  0.00000000000E+00 0. -1.
         -5    1    5    5    0  502 -0.39247761274E+02  0.24252527761E+02  0.51119347948E+02  0.69020646204E+02  0.47000000000E+01 0.  1.
         11    1    6    6    0    0 -0.23583517438E+02 -0.17817660106E+02  0.10488539266E+02  0.31363366565E+02  0.00000000000E+00 0. -1.
        -12    1    6    6    0    0  0.19069068857E+01 -0.14843068374E+03  0.66065935053E+02  0.16248080485E+03  0.00000000000E+00 0.  1.
</event>
<event>
12    1  0.8331241E-002  0.2749731E+03  0.7818608E-02  0.1098551E+00
         21   -1    0    0  501  502  0.00000000000E+00  0.00000000000E+00  0.21473192458E+03  0.21473192458E+03  0.00000000000E+00 0.  1.
         21   -1    0    0  502  503 -0.00000000000E+00 -0.00000000000E+00 -0.45172647061E+03  0.45172647061E+03  0.00000000000E+00 0. -1.
         -6    2    1    2    0  503  0.20085234963E+03 -0.72731913772E+02 -0.27568308976E+03  0.38937307247E+03  0.17314336821E+03 0.  0.
        -24    2    3    3    0    0  0.94851341441E+02 -0.21553117468E+01 -0.21574002817E+03  0.24854505281E+03  0.78926935700E+02 0.  0.
          6    2    1    2  501    0 -0.20085234963E+03  0.72731913772E+02  0.38688543730E+02  0.27708532272E+03  0.17218558308E+03 0.  0.
         24    2    5    5    0    0 -0.19545825350E+02  0.12158586568E+02  0.21682333253E+02  0.85115312282E+02  0.79022922583E+02 0.  0.
          5    1    5    5  501    0 -0.18130652428E+03  0.60573327204E+02  0.17006210477E+02  0.19197001044E+03  0.47000000000E+01 0. -1.
        -13    1    6    6    0    0 -0.45827364387E+02 -0.50780044674E+01  0.26710771085E+02  0.53286008933E+02  0.00000000000E+00 0.  1.
         14    1    6    6    0    0  0.26281539037E+02  0.17236591035E+02 -0.50284378326E+01  0.31829303349E+02  0.00000000000E+00 0. -1.
         -5    1    3    3    0  503  0.10600100819E+03 -0.70576602025E+02 -0.59943061594E+02  0.14082801967E+03  0.47000000000E+01 0.  1.
         11    1    4    4    0    0  0.45965472113E+02 -0.37511656526E+02 -0.76608744484E+02  0.96896071816E+02  0.00000000000E+00 0. -1.
        -12    1    4    4    0    0  0.48885869327E+02  0.35356344779E+02 -0.13913128368E+03  0.15164898099E+03  0.00000000000E+00 0.  1.
</event>
<event>
12    1  0.8331241E-002  0.1836733E+03  0.7818608E-02  0.1164443E+00
         21   -1    0    0  501  502  0.00000000000E+00  0.00000000000E+00  0.76068040679E+02  0.76068040679E+02  0.00000000000E+00 0.  1.
         21   -1    0    0  502  503 -0.00000000000E+00 -0.00000000000E+00 -0.50422340912E+03  0.50422340912E+03  0.00000000000E+00 0.  1.
         -6    2    1    2    0  503 -0.19075433030E+02 -0.59680131236E+02 -0.31569984606E+03  0.36492631842E+03  0.17198614731E+03 0.  0.
        -24    2    3    3    0    0 -0.40998321925E+01  0.19768622486E+02 -0.24112488272E+03  0.25483595442E+03  0.79953408566E+02 0.  0.
          6    2    1    2  501    0  0.19075433030E+02  0.59680131236E+02 -0.11245552239E+03  0.21536513138E+03  0.17265661033E+03 0.  0.
         24    2    5    5    0    0 -0.41660924254E+02  0.67605915754E+02 -0.37899225379E+02  0.11876050116E+03  0.79759092879E+02 0.  0.
          5    1    5    5  501    0  0.60736357284E+02 -0.79257845173E+01 -0.74556297007E+02  0.96604630219E+02  0.47000000000E+01 0. -1.
        -11    1    6    6    0    0 -0.25921218590E+02  0.84440277300E+02 -0.36798058700E+02  0.95687863012E+02  0.00000000000E+00 0.  1.
         12    1    6    6    0    0 -0.15739705664E+02 -0.16834361546E+02 -0.11011666788E+01  0.23072638148E+02  0.00000000000E+00 0. -1.
         -5    1    3    3    0  503 -0.14975600838E+02 -0.79448753723E+02 -0.74574963339E+02  0.11009036400E+03  0.47000000000E+01 0.  1.
         11    1    4    4    0    0  0.25541526684E+02 -0.60473786852E+01 -0.18170716593E+03  0.18359312221E+03  0.00000000000E+00 0. -1.
        -12    1    4    4    0    0 -0.29641358877E+02  0.25816001172E+02 -0.59417716789E+02  0.71242832208E+02  0.00000000000E+00 0.  1.
</event>
<event>
12    1  0.8331241E-002  0.2499215E+03  0.7818608E-02  0.1113412E+00
         21   -1    0    0  501  502  0.00000000000E+00  0.00000000000E+00  0.29166529287E+03  0.29166529287E+03  0.00000000000E+00 0.  1.
         21   -1    0    0  502  503 -0.00000000000E+00 -0.00000000000E+00 -0.27333942236E+03  0.27333942236E+03  0.00000000000E+00 0. -1.
         -6    2    1    2    0  503 -0.15274025407E+03 -0.97012040427E+02 -0.12264420006E+03  0.27806692652E+03  0.17186824783E+03 0.  0.
        -24    2    3    3    0    0 -0.42800186325E+02 -0.86611864377E+02 -0.11158284938E+03  0.16698395916E+03  0.78098907422E+02 0.  0.
          6    2    1    2  501    0  0.15274025407E+03  0.97012040427E+02  0.14097007058E+03  0.28693778871E+03  0.17239435197E+03 0.  0.
         24    2    5    5    0    0  0.18477342284E+02  0.21828655108E+02  0.95734248690E+02  0.12647769868E+03  0.77547788689E+02 0.  0.
          5    1    5    5  501    0  0.13426291179E+03  0.75183385319E+02  0.45235821887E+02  0.16046009003E+03  0.47000000000E+01 0. -1.
        -11    1    6    6    0    0  0.11586877412E+02 -0.28566372422E+02  0.45734022385E+02  0.55153369480E+02  0.00000000000E+00 0.  1.
         12    1    6    6    0    0  0.68904648715E+01  0.50395027530E+02  0.50000226305E+02  0.71324329204E+02  0.00000000000E+00 0. -1.
         -5    1    3    3    0  503 -0.10994006775E+03 -0.10400176050E+02 -0.11061350683E+02  0.11108296736E+03  0.47000000000E+01 0.  1.
         11    1    4    4    0    0 -0.21183887182E+02 -0.22389756045E+02  0.58781774317E+01  0.31378515291E+02  0.00000000000E+00 0. -1.
        -12    1    4    4    0    0 -0.21616299143E+02 -0.64222108331E+02 -0.11746102681E+03  0.13560544387E+03  0.00000000000E+00 0.  1.
</event>
<event>
12    1  0.8331241E-002  0.1979460E+03  0.7818608E-02  0.1151524E+00
         21   -1    0    0  503  502  0.00000000000E+00  0.00000000000E+00  0.94451835615E+03  0.94451835615E+03  0.00000000000E+00 0.  1.
         21   -1    0    0  501  503 -0.00000000000E+00 -0.00000000000E+00 -0.41456187927E+02  0.41456187927E+02  0.00000000000E+00 0. -1.
          6    2    1    2  501    0  0.87812301640E+02  0.43437627354E+02  0.46003110948E+03  0.50081059387E+03  0.17200232977E+03 0.  0.
         24    2    3    3    0    0  0.10393196207E+03  0.22238853447E+02  0.45375978900E+03  0.47304999358E+03  0.81129100656E+02 0.  0.
         -6    2    1    2    0  502 -0.87812301640E+02 -0.43437627354E+02  0.44303105874E+03  0.48516395021E+03  0.17178391015E+03 0.  0.
        -24    2    5    5    0    0 -0.60195856590E+02 -0.28152357605E+01  0.41750171440E+03  0.42960601506E+03  0.81376777681E+02 0.  0.
          5    1    3    3  501    0 -0.16119660432E+02  0.21198773907E+02  0.62713204854E+01  0.27760600286E+02  0.47000000000E+01 0. -1.
        -13    1    4    4    0    0  0.57662390064E+01  0.31994812603E+02  0.15675271189E+03  0.16008850749E+03  0.00000000000E+00 0.  1.
         14    1    4    4    0    0  0.98165723065E+02 -0.97559591554E+01  0.29700707711E+03  0.31296148609E+03  0.00000000000E+00 0. -1.
         -5    1    5    5    0  502 -0.27616445050E+02 -0.40622391594E+02  0.25529344343E+02  0.55557935154E+02  0.47000000000E+01 0.  1.
         11    1    6    6    0    0 -0.18143491277E+02  0.32308797059E+02  0.26463377939E+03  0.26721542215E+03  0.00000000000E+00 0. -1.
        -12    1    6    6    0    0 -0.42052365312E+02 -0.35124032819E+02  0.15286793501E+03  0.16239059290E+03  0.00000000000E+00 0.  1.
</event>
<event>
12    1  0.8331241E-002  0.4049907E+03  0.7818608E-02  0.1042073E+00
         21   -1    0    0  503  502  0.00000000000E+00  0.00000000000E+00  0.23181879681E+03  0.23181879681E+03  0.00000000000E+00 0.  1.
         21   -1    0    0  501  503 -0.00000000000E+00 -0.00000000000E+00 -0.12119841646E+04  0.12119841646E+04  0.00000000000E+00 0. -1.
          6    2    1    2  501    0  0.34455075259E+03  0.12585842549E+03 -0.95593503284E+03  0.10381855445E+04  0.17164461386E+03 0.  0.
         24    2    3    3    0    0  0.99506477520E+02  0.79415520830E+02 -0.27611215382E+03  0.31404130684E+03  0.78585347832E+02 0.  0.
         -6    2    1    2    0  502 -0.34455075259E+03 -0.12585842549E+03 -0.24230334996E+02  0.40561741693E+03  0.17141416337E+03 0.  0.
        -24    2    5    5    0    0 -0.22766912195E+03 -0.15082714820E+03 -0.25177807221E+02  0.28600244965E+03  0.81125960723E+02 0.  0.
          5    1    3    3  501    0  0.24504427507E+03  0.46442904663E+02 -0.67982287902E+03  0.72414423769E+03  0.47000000000E+01 0. -1.
        -11    1    4    4    0    0  0.61907400640E+02  0.74021135376E+02 -0.24991957914E+03  0.26790194246E+03  0.00000000000E+00 0.  1.
         12    1    4    4    0    0  0.37599076880E+02  0.53943854537E+01 -0.26192574686E+02  0.46139364380E+02  0.00000000000E+00 0. -1.
         -5    1    5    5    0  502 -0.11688163064E+03  0.24968722706E+02  0.94747222509E+00  0.11961496728E+03  0.47000000000E+01 0.  1.
         11    1    6    6    0    0 -0.48645911994E+02 -0.46679826510E+02  0.26661343534E+02  0.72500056522E+02  0.00000000000E+00 0. -1.
        -12    1    6    6    0    0 -0.17902320996E+03 -0.10414732169E+03 -0.51839150756E+02  0.21350239312E+03  0.00000000000E+00 0.  1.
</event>
<event>
12    1  0.8331241E-002  0.2676055E+03  0.7818608E-02  0.1102678E+00
         21   -1    0    0  503  502  0.00000000000E+00  0.00000000000E+00  0.19743280334E+03  0.19743280334E+03  0.00000000000E+00 0.  1.
         21   -1    0    0  501  503 -0.00000000000E+00 -0.00000000000E+00 -0.47770880833E+03  0.47770880833E+03  0.00000000000E+00 0. -1.
          6    2    1    2  501    0 -0.48095567572E+02 -0.19866388399E+03 -0.30586761597E+03  0.40631520112E+03  0.17250078765E+03 0.  0.
         24    2    3    3    0    0 -0.88062522229E+02 -0.19195028895E+03 -0.27119383212E+03  0.35277277766E+03  0.79389022103E+02 0.  0.
         -6    2    1    2    0  502  0.48095567572E+02  0.19866388399E+03  0.25591610982E+02  0.26882641055E+03  0.17271996421E+03 0.  0.
        -24    2    5    5    0    0  0.61143283454E+02  0.15759267483E+03 -0.39156387823E+02  0.19090670534E+03  0.79612782672E+02 0.  0.
          5    1    3    3  501    0  0.39966954657E+02 -0.67135950353E+01 -0.34673783856E+02  0.53542423458E+02  0.47000000000E+01 0. -1.
        -13    1    4    4    0    0 -0.32234926698E+01 -0.46436658633E+02 -0.11080951246E+03  0.12018944306E+03  0.00000000000E+00 0.  1.
         14    1    4    4    0    0 -0.84839029559E+02 -0.14551363032E+03 -0.16038431966E+03  0.23258333461E+03  0.00000000000E+00 0. -1.
         -5    1    5    5    0  502 -0.13047715882E+02  0.41071209155E+02  0.64747998804E+02  0.77919705213E+02  0.47000000000E+01 0.  1.
         11    1    6    6    0    0  0.28794026120E+02  0.59659630395E+02 -0.55576407876E+02  0.86470252408E+02  0.00000000000E+00 0. -1.
        -12    1    6    6    0    0  0.32349257335E+02  0.97933044438E+02  0.16420020053E+02  0.10443645293E+03  0.00000000000E+00 0.  1.
</event>
<event>
12    1  0.8331241E-002  0.1900161E+03  0.7818608E-02  0.1159397E+00
         21   -1    0    0  503  502  0.00000000000E+00  0.00000000000E+00  0.11593198759E+03  0.11593198759E+03  0.00000000000E+00 0. -1.
         21   -1    0    0  501  503 -0.00000000000E+00 -0.00000000000E+00 -0.14661041312E+04  0.14661041312E+04  0.00000000000E+00 0. -1.
          6    2    1    2  501    0 -0.80366453498E+02  0.11731925014E+02 -0.13806815550E+04  0.13936956876E+04  0.17178390038E+03 0.  0.
         24    2    3    3    0    0 -0.98460261431E+02 -0.34657336227E+02 -0.78070503145E+03  0.79163815859E+03  0.79341502132E+02 0.  0.
         -6    2    1    2    0  502  0.80366453498E+02 -0.11731925014E+02  0.30509411453E+02  0.18834043112E+03  0.16716724827E+03 0.  0.
        -24    2    5    5    0    0  0.31918353715E+02  0.45090566469E+02 -0.18866579525E+02  0.98696176443E+02  0.79580443157E+02 0.  0.
          5    1    3    3  501    0  0.18093807933E+02  0.46389261240E+02 -0.59997652357E+03  0.60205752904E+03  0.47000000000E+01 0. -1.
        -11    1    4    4    0    0 -0.29750873144E+02 -0.49875075233E+02 -0.27543895975E+03  0.28149468580E+03  0.00000000000E+00 0.  1.
         12    1    4    4    0    0 -0.68709388288E+02  0.15217739007E+02 -0.50526607170E+03  0.51014347279E+03  0.00000000000E+00 0. -1.
         -5    1    5    5    0  502  0.48448099782E+02 -0.56822491482E+02  0.49375990978E+02  0.89644254673E+02  0.47000000000E+01 0.  1.
         11    1    6    6    0    0 -0.25770266423E+02  0.23593924376E+02 -0.11009537887E+02  0.36633179270E+02  0.00000000000E+00 0. -1.
        -12    1    6    6    0    0  0.57688620138E+02  0.21496642093E+02 -0.78570416379E+01  0.62062997173E+02  0.00000000000E+00 0.  1.
</event>
<event>
12    1  0.8331241E-002  0.2175569E+03  0.7818608E-02  0.1137208E+00
         21   -1    0    0  503  502  0.00000000000E+00  0.00000000000E+00  0.21693465630E+03  0.21693465630E+03  0.00000000000E+00 0. -1.
         21   -1    0    0  501  503 -0.00000000000E+00 -0.00000000000E+00 -0.37617665813E+03  0.37617665813E+03  0.00000000000E+00 0.  1.
          6    2    1    2  501    0  0.13290974937E+03  0.10380202525E+02 -0.27721878686E+03  0.35239359585E+03  0.17192510150E+03 0.  0.
         24    2    3    3    0    0  0.16254300450E+03 -0.78893946031E+01 -0.21562314168E+03  0.28148505268E+03  0.79107678489E+02 0.  0.
         -6    2    1    2    0  502 -0.13290974937E+03 -0.10380202525E+02  0.11797678504E+03  0.24071771858E+03  0.16203008409E+03 0.  0.
        -24    2    5    5    0    0 -0.45465539185E+02 -0.12735228918E+02 -0.60876371475E+00  0.93284145683E+02  0.80450356951E+02 0.  0.
          5    1    3    3  501    0 -0.29633255132E+02  0.18269597128E+02 -0.61595645181E+02  0.70908543168E+02  0.47000000000E+01 0. -1.
        -11    1    4    4    0    0 -0.57314625319E+01  0.31494301553E+01 -0.29972764530E+02  0.30677926700E+02  0.00000000000E+00 0.  1.
         12    1    4    4    0    0  0.16827446703E+03 -0.11038824758E+02 -0.18565037715E+03  0.25080712598E+03  0.00000000000E+00 0. -1.
         -5    1    5    5    0  502 -0.87444210182E+02  0.23550263928E+01  0.11858554876E+03  0.14743357290E+03  0.47000000000E+01 0.  1.
         11    1    6    6    0    0  0.14984627276E+02 -0.15942884338E+02  0.19691431304E+02  0.29435812923E+02  0.00000000000E+00 0. -1.
        -12    1    6    6    0    0 -0.60450166461E+02  0.32076554204E+01 -0.20300195019E+02  0.63848332760E+02  0.00000000000E+00 0.  1.
</event>
<event>
12    1  0.8331241E-002  0.1755194E+03  0.7818608E-02  0.1172288E+00
         21   -1    0    0  501  502  0.00000000000E+00  0.00000000000E+00  0.43606130141E+03  0.43606130141E+03  0.00000000000E+00 0.  1.
         21   -1    0    0  502  503 -0.00000000000E+00 -0.00000000000E+00 -0.80915810728E+02  0.80915810728E+02  0.00000000000E+00 0.  1.
         -6    2    1    2    0  503 -0.38686881343E+02 -0.11639192590E+02  0.85077782200E+02  0.19505198044E+03  0.17080661714E+03 0.  0.
        -24    2    3    3    0    0 -0.25893174897E+02 -0.67749706565E+02  0.83094435469E+02  0.13727575378E+03  0.81728013090E+02 0.  0.
          6    2    1    2  501    0  0.38686881343E+02  0.11639192590E+02  0.27006770848E+03  0.32192513169E+03  0.17049069670E+03 0.  0.
         24    2    5    5    0    0  0.51041618003E+02 -0.25741739157E+02  0.26559534863E+03  0.28202443522E+03  0.75690216964E+02 0.  0.
          5    1    5    5  501    0 -0.12354736660E+02  0.37380931746E+02  0.44723598467E+01  0.39900696470E+02  0.47000000000E+01 0. -1.
        -11    1    6    6    0    0  0.55006824168E+02 -0.41562776388E+02  0.14760868798E+03  0.16291574464E+03  0.00000000000E+00 0.  1.
         12    1    6    6    0    0 -0.39652061646E+01  0.15821037231E+02  0.11798666066E+03  0.11910869058E+03  0.00000000000E+00 0. -1.
         -5    1    3    3    0  503 -0.12793706447E+02  0.56110513975E+02  0.19833467301E+01  0.57776226663E+02  0.47000000000E+01 0.  1.
         11    1    4    4    0    0 -0.30661672692E+02 -0.65256866865E+02  0.97864093010E+02  0.12155647883E+03  0.00000000000E+00 0. -1.
        -12    1    4    4    0    0  0.47684977948E+01 -0.24928397001E+01 -0.14769657541E+02  0.15719274947E+02  0.00000000000E+00 0.  1.
</event>
<event>
12    1  0.8331241E-002  0.2371058E+03  0.7818608E-02  0.1122034E+00
         21   -1    0    0  503  502  0.00000000000E+00  0.00000000000E+00  0.81191629256E+03  0.81191629256E+03  0.00000000000E+00 0.  1.
         21   -1    0    0  501  503 -0.00000000000E+00 -0.00000000000E+00 -0.70114856955E+02  0.70114856955E+02  0.00000000000E+00 0.  1.
          6    2    1    2  501    0  0.10305049631E+03 -0.12589091349E+03  0.43151691720E+03  0.49152426968E+03  0.17006272656E+03 0.  0.
         24    2    3    3    0    0  0.13644133184E+03 -0.12502017021E+03  0.36134934560E+03  0.41367001999E+03  0.79393046760E+02 0.  0.
         -6    2    1    2    0  502 -0.10305049631E+03  0.12589091349E+03  0.31028451840E+03  0.39050687983E+03  0.17248540213E+03 0.  0.
        -24    2    5    5    0    0  0.23264733586E+01  0.14136992182E+02  0.12866075421E+03  0.15259402523E+03  0.80784155849E+02 0.  0.
          5    1    3    3  501    0 -0.33390835532E+02 -0.87074327931E+00  0.70167571600E+02  0.77854249695E+02  0.47000000000E+01 0. -1.
        -11    1    4    4    0    0  0.85765706472E+02 -0.11368730460E+03  0.21061914721E+03  0.25424591404E+03  0.00000000000E+00 0.  1.
         12    1    4    4    0    0  0.50675625371E+02 -0.11332865609E+02  0.15073019839E+03  0.15942410595E+03  0.00000000000E+00 0. -1.
         -5    1    5    5    0  502 -0.10537696967E+03  0.11175392131E+03  0.18162376419E+03  0.23791285460E+03  0.47000000000E+01 0.  1.
         11    1    6    6    0    0 -0.78997691383E+01 -0.26728181950E+02  0.15598827192E+02  0.31939403134E+02  0.00000000000E+00 0. -1.
        -12    1    6    6    0    0  0.10226242497E+02  0.40865174132E+02  0.11306192702E+03  0.12065462210E+03  0.00000000000E+00 0.  1.
</event>
<event>
12    1  0.8331241E-002  0.2143238E+03  0.7818608E-02  0.1138225E+00
         21   -1    0    0  501  502  0.00000000000E+00  0.00000000000E+00  0.76162441317E+03  0.76162441317E+03  0.00000000000E+00 0. -1.
         21   -1    0    0  502  503 -0.00000000000E+00 -0.00000000000E+00 -0.99753917530E+02  0.99753917530E+02  0.00000000000E+00 0.  1.
         -6    2    1    2    0  503 -0.45931558261E+02  0.11967392946E+03  0.59834221131E+02  0.22233032791E+03  0.17151992086E+03 0.  0.
        -24    2    3    3    0    0 -0.86952237525E+02  0.99393579233E+02  0.79973488844E+02  0.17211410706E+03  0.76077143258E+02 0.  0.
          6    2    1    2  501    0  0.45931558261E+02 -0.11967392946E+03  0.60203627451E+03  0.63904800279E+03  0.17176471293E+03 0.  0.
         24    2    5    5    0    0 -0.13096122149E+02 -0.50574702898E+01  0.17821616812E+03  0.19602794416E+03  0.80429260170E+02 0.  0.
          5    1    5    5  501    0  0.59027680410E+02 -0.11461645917E+03  0.42382010640E+03  0.44302005864E+03  0.47000000000E+01 0. -1.
        -13    1    6    6    0    0  0.87192892810E+01 -0.37498050775E+02  0.57992717704E+02  0.69608082319E+02  0.00000000000E+00 0.  1.
         14    1    6    6    0    0 -0.21815411430E+02  0.32440580486E+02  0.12022345041E+03  0.12641986184E+03  0.00000000000E+00 0. -1.
         -5    1    3    3    0  503  0.41020679264E+02  0.20280350232E+02 -0.20139267713E+02  0.50216220854E+02  0.47000000000E+01 0.  1.
         11    1    4    4    0    0 -0.29600126422E+02  0.42856955797E+01  0.47974981282E+02  0.56534356809E+02  0.00000000000E+00 0. -1.
        -12    1    4    4    0    0 -0.57352111103E+02  0.95107883653E+02  0.31998507562E+02  0.11557975025E+03  0.00000000000E+00 0.  1.
</event>
<event>
12    1  0.8331241E-002  0.3109980E+03  0.7818608E-02  0.1079896E+00
         21   -1    0    0  501  502  0.00000000000E+00  0.00000000000E+00  0.32920885103E+04  0.32920885103E+04  0.00000000000E+00 0. -1.
         21   -1    0    0  502  503 -0.00000000000E+00 -0.00000000000E+00 -0.60681815558E+02  0.60681815558E+02  0.00000000000E+00 0.  1.
         -6    2    1    2    0  503  0.13455006073E+03 -0.22152293701E+03  0.41096753307E+03  0.51523674284E+03  0.17145978382E+03 0.  0.
        -24    2    3    3    0    0  0.63649869069E+02 -0.14402343215E+03  0.35417107974E+03  0.39573386613E+03  0.79837862177E+02 0.  0.
          6    2    1    2  501    0 -0.13455006073E+03  0.22152293701E+03  0.28204391617E+04  0.28375335830E+04  0.17188263327E+03 0.  0.
         24    2    5    5    0    0 -0.88890998869E+02  0.58435290113E+02  0.92400113286E+03  0.93354261203E+03  0.80046374906E+02 0.  0.
          5    1    5    5  501    0 -0.45659061857E+02  0.16308764690E+03  0.18964380288E+04  0.19039909710E+04  0.47000000000E+01 0. -1.
        -13    1    6    6    0    0 -0.70747749624E+02  0.61338052501E+01  0.65937856586E+03  0.66319149630E+03  0.00000000000E+00 0.  1.
         14    1    6    6    0    0 -0.18143249245E+02  0.52301484863E+02  0.26462256700E+03  0.27035111573E+03  0.00000000000E+00 0. -1.
         -5    1    3    3    0  503  0.70900191657E+02 -0.77499504858E+02  0.56796453332E+02  0.11950287671E+03  0.47000000000E+01 0.  1.
         13    1    4    4    0    0  0.15945113144E+01 -0.44435111207E+02  0.37995313293E+02  0.58486454898E+02  0.00000000000E+00 0. -1.
        -14    1    4    4    0    0  0.62055357755E+02 -0.99588320945E+02  0.31617576645E+03  0.33724741123E+03  0.00000000000E+00 0.  1.
</event>
<event>
12    1  0.8331241E-002  0.1865416E+03  0.7818608E-02  0.1161940E+00
         21   -1    0    0  501  502  0.00000000000E+00  0.00000000000E+00  0.25152630456E+03  0.25152630456E+03  0.00000000000E+00 0. -1.
         21   -1    0    0  502  503 -0.00000000000E+00 -0.00000000000E+00 -0.30273574941E+03  0.30273574941E+03  0.00000000000E+00 0. -1.
         -6    2    1    2    0  503 -0.45579122763E+02  0.54169030897E+02 -0.23041444449E+03  0.29558814167E+03  0.17108416912E+03 0.  0.
        -24    2    3    3    0    0  0.32064880068E+02  0.57635404654E+02 -0.98643005906E+02  0.14253126025E+03  0.78960250324E+02 0.  0.
          6    2    1    2  501    0  0.45579122763E+02 -0.54169030897E+02  0.17920499964E+03  0.25867391231E+03  0.17258627023E+03 0.  0.
         24    2    5    5    0    0 -0.17272848088E+02  0.56387716499E+00  0.27597049990E+02  0.85604209989E+02  0.79169529246E+02 0.  0.
          5    1    5    5  501    0  0.62851970851E+02 -0.54732908062E+02  0.15160794965E+03  0.17306970232E+03  0.47000000000E+01 0. -1.
        -11    1    6    6    0    0  0.93584678816E+01 -0.14565779512E+02 -0.21581346034E+02  0.27667622784E+02  0.00000000000E+00 0.  1.
         12    1    6    6    0    0 -0.26631315970E+02  0.15129656677E+02  0.49178396024E+02  0.57936587205E+02  0.00000000000E+00 0. -1.
         -5    1    3    3    0  503 -0.77644002831E+02 -0.34663737568E+01 -0.13177143858E+03  0.15305688142E+03  0.47000000000E+01 0.  1.
         11    1    4    4    0    0 -0.18437405975E+02  0.47252375647E+02 -0.41228523688E+02  0.65364486603E+02  0.00000000000E+00 0. -1.
        -12    1    4    4    0    0  0.50502286043E+02  0.10383029007E+02 -0.57414482218E+02  0.77166773649E+02  0.00000000000E+00 0.  1.
</event>
<event>
12    1  0.8331241E-002  0.1781121E+03  0.7818608E-02  0.1169989E+00
         21   -1    0    0  501  502  0.00000000000E+00  0.00000000000E+00  0.10271585414E+04  0.10271585414E+04  0.00000000000E+00 0. -1.
         21   -1    0    0  502  503 -0.00000000000E+00 -0.00000000000E+00 -0.39012488104E+02  0.39012488104E+02  0.00000000000E+00 0. -1.
         -6    2    1    2    0  503 -0.38988222976E+02 -0.23153623645E+02  0.24867930333E+03  0.30588447059E+03  0.17224326293E+03 0.  0.
        -24    2    3    3    0    0  0.64649996510E+01  0.46169130247E+02  0.15507904690E+03  0.18076557650E+03  0.80332422175E+02 0.  0.
          6    2    1    2  501    0  0.38988222976E+02  0.23153623645E+02  0.73946674993E+03  0.76028655888E+03  0.17078760358E+03 0.  0.
         24    2    5    5    0    0 -0.26579054523E+02  0.12864437021E+02  0.59708817467E+03  0.60312840944E+03  0.79860190754E+02 0.  0.
          5    1    5    5  501    0  0.65567277499E+02  0.10289186624E+02  0.14237857526E+03  0.15715814943E+03  0.47000000000E+01 0. -1.
        -13    1    6    6    0    0  0.16688693790E+02  0.14494062380E+01  0.30679871431E+02  0.34955225502E+02  0.00000000000E+00 0.  1.
         14    1    6    6    0    0 -0.43267748313E+02  0.11415030783E+02  0.56640830324E+03  0.56817318394E+03  0.00000000000E+00 0. -1.
         -5    1    3    3    0  503 -0.45453222627E+02 -0.69322753893E+02  0.93600256430E+02  0.12511889409E+03  0.47000000000E+01 0.  1.
         13    1    4    4    0    0 -0.10928605719E+02 -0.14718861039E+02  0.68383544663E+01  0.19566358502E+02  0.00000000000E+00 0. -1.
        -14    1    4    4    0    0  0.17393605370E+02  0.60887991286E+02  0.14824069243E+03  0.16119921800E+03  0.00000000000E+00 0.  1.
</event>
<event>
12    1  0.8331241E-002  0.2479580E+03  0.7818608E-02  0.1114883E+00
         21   -1    0    0  501  502  0.00000000000E+00  0.00000000000E+00  0.29082662505E+03  0.29082662505E+03  0.00000000000E+00 0. -1.
         21   -1    0    0  502  503 -0.00000000000E+00 -0.00000000000E+00 -0.23602769085E+03  0.23602769085E+03  0.00000000000E+00 0.  1.
         -6    2    1    2    0  503  0.17557645274E+03  0.11814128812E+00 -0.60302661390E+02  0.25348359903E+03  0.17259901300E+03 0.  0.
        -24    2    3    3    0    0  0.89352455348E+02 -0.58462054948E+02  0.51078744645E+01  0.13032985236E+03  0.74552712145E+02 0.  0.
          6    2    1    2  501    0 -0.17557645274E+03 -0.11814128812E+00  0.11510159558E+03  0.27337071687E+03  0.17508873985E+03 0.  0.
         24    2    5    5    0    0 -0.94289134835E+02 -0.35948067920E+02  0.13020330479E+01  0.12892750267E+03  0.80236532332E+02 0.  0.
          5    1    5    5  501    0 -0.81287317908E+02  0.35829926632E+02  0.11379956253E+03  0.14444321420E+03  0.47000000000E+01 0. -1.
        -11    1    6    6    0    0 -0.10530153282E+03 -0.20154154812E+02 -0.80649614276E+01  0.10751579592E+03  0.00000000000E+00 0.  1.
         12    1    6    6    0    0  0.11012397982E+02 -0.15793913108E+02  0.93669944754E+01  0.21411706753E+02  0.00000000000E+00 0. -1.
         -5    1    3    3    0  503  0.86223997395E+02  0.58580196236E+02 -0.65410535855E+02  0.12315374667E+03  0.47000000000E+01 0.  1.
         13    1    4    4    0    0  0.36957280938E+02 -0.43484748686E+02  0.36208597366E+02  0.67585697495E+02  0.00000000000E+00 0. -1.
        -14    1    4    4    0    0  0.52395174410E+02 -0.14977306262E+02 -0.31100722901E+02  0.62744154861E+02  0.00000000000E+00 0.  1.
</event>
<event>
12    1  0.8331241E-002  0.2752522E+03  0.7818608E-02  0.1098733E+00
         21   -1    0    0  501  502  0.00000000000E+00  0.00000000000E+00  0.49798733533E+02  0.49798733533E+02  0.00000000000E+00 0.  1.
         21   -1    0    0  502  503 -0.00000000000E+00 -0.00000000000E+00 -0.17725383771E+04  0.17725383771E+04  0.00000000000E+00 0.  1.
         -6    2    1    2    0  503  0.21223482514E+03 -0.33350205900E+01 -0.12114612995E+04  0.12416742798E+04  0.17047519925E+03 0.  0.
        -24    2    3    3    0    0  0.23123906672E+03  0.15448187055E+02 -0.11184394814E+04  0.11447768147E+04  0.76791468326E+02 0.  0.
          6    2    1    2  501    0 -0.21223482514E+03  0.33350205900E+01 -0.51127834406E+03  0.58066283083E+03  0.17523993448E+03 0.  0.
         24    2    5    5    0    0 -0.72278988911E+02  0.60308228137E+02 -0.21437281571E+03  0.24748335181E+03  0.80193333197E+02 0.  0.
          5    1    5    5  501    0 -0.13995583623E+03 -0.56973207547E+02 -0.29690552835E+03  0.33317947902E+03  0.47000000000E+01 0. -1.
        -11    1    6    6    0    0 -0.60210541633E+02  0.45990390888E+02 -0.21578970959E+03  0.22870422852E+03  0.00000000000E+00 0.  1.
         12    1    6    6    0    0 -0.12068447278E+02  0.14317837249E+02  0.14168938842E+01  0.18779123288E+02  0.00000000000E+00 0. -1.
         -5    1    3    3    0  503 -0.19004241576E+02 -0.18783207645E+02 -0.93021818093E+02  0.96897465027E+02  0.47000000000E+01 0.  1.
         11    1    4    4    0    0  0.12572697070E+03 -0.10420888144E+02 -0.75430184099E+03  0.76477914027E+03  0.00000000000E+00 0. -1.
        -12    1    4    4    0    0  0.10551209601E+03  0.25869075199E+02 -0.36413764038E+03  0.37999767447E+03  0.00000000000E+00 0.  1.
</event>
<event>
12    1  0.8331241E-002  0.2059375E+03  0.7818608E-02  0.1146117E+00
         21   -1    0    0  501  502  0.00000000000E+00  0.00000000000E+00  0.16003082648E+04  0.16003082648E+04  0.00000000000E+00 0.  1.
         21   -1    0    0  502  503 -0.00000000000E+00 -0.00000000000E+00 -0.42022715178E+02  0.42022715178E+02  0.00000000000E+00 0. -1.
         -6    2    1    2    0  503  0.10225620899E+03  0.65061000650E+01  0.26006824597E+03  0.32788112902E+03  0.17138226452E+03 0.  0.
        -24    2    3    3    0    0  0.76865749427E+02  0.21307683451E+02  0.63393547230E+02  0.12896710380E+03  0.79065866356E+02 0.  0.
          6    2    1    2  501    0 -0.10225620899E+03 -0.65061000650E+01  0.12982173037E+04  0.13144498510E+04  0.17863813018E+03 0.  0.
         24    2    5    5    0    0 -0.99966994593E+02 -0.30711281603E+02  0.51739087392E+03  0.53323084537E+03  0.75533007434E+02 0.  0.
          5    1    5    5  501    0 -0.22892143990E+01  0.24205181538E+02  0.78082642976E+03  0.78121900561E+03  0.47000000000E+01 0. -1.
        -11    1    6    6    0    0 -0.68155770936E+02  0.73452921491E+01  0.39937136286E+03  0.40521185557E+03  0.00000000000E+00 0.  1.
         12    1    6    6    0    0 -0.31811223657E+02 -0.38056573752E+02  0.11801951106E+03  0.12801898979E+03  0.00000000000E+00 0. -1.
         -5    1    3    3    0  503  0.25390459565E+02 -0.14801583386E+02  0.19667469874E+03  0.19891402522E+03  0.47000000000E+01 0.  1.
         11    1    4    4    0    0 -0.44753544414E-01  0.20560010142E+02 -0.98143998155E+01  0.22782415668E+02  0.00000000000E+00 0. -1.
        -12    1    4    4    0    0  0.76910502971E+02  0.74767330894E+00  0.73207947045E+02  0.10618468813E+03  0.00000000000E+00 0.  1.
</event>
<event>
12    1  0.8331241E-002  0.1799406E+03  0.7818608E-02  0.1168099E+00
         21   -1    0    0  501  502  0.00000000000E+00  0.00000000000E+00  0.40730373450E+03  0.40730373450E+03  0.00000000000E+00 0.  1.
         21   -1    0    0  502  503 -0.00000000000E+00 -0.00000000000E+00 -0.99102336695E+02  0.99102336695E+02  0.00000000000E+00 0.  1.
         -6    2    1    2    0  503 -0.40894287153E+02 -0.32553611544E+02  0.40573446493E+02  0.18445819351E+03  0.17218170706E+03 0.  0.
        -24    2    3    3    0    0 -0.21607567024E+02 -0.80811974607E+02  0.59873398987E+02  0.12882164666E+03  0.77541798728E+02 0.  0.
          6    2    1    2  501    0  0.40894287153E+02  0.32553611544E+02  0.26762795131E+03  0.32194787768E+03  0.17115383512E+03 0.  0.
         24    2    5    5    0    0 -0.91313470778E+01 -0.15073374480E+02  0.22789700771E+03  0.24212600251E+03  0.79858417508E+02 0.  0.
          5    1    5    5  501    0  0.50025634231E+02  0.47626986024E+02  0.39730943596E+02  0.79821875178E+02  0.47000000000E+01 0. -1.
        -13    1    6    6    0    0 -0.58554790068E+01 -0.42715389242E+02  0.73273890432E+02  0.85017375468E+02  0.00000000000E+00 0.  1.
         14    1    6    6    0    0 -0.32758680710E+01  0.27642014762E+02  0.15462311728E+03  0.15710862704E+03  0.00000000000E+00 0. -1.
         -5    1    3    3    0  503 -0.19286720129E+02  0.48258363063E+02 -0.19299952493E+02  0.55636546847E+02  0.47000000000E+01 0.  1.
         11    1    4    4    0    0 -0.26723140080E+01 -0.46060679469E+02  0.73657493819E+02  0.86914635425E+02  0.00000000000E+00 0. -1.
        -12    1    4    4    0    0 -0.18935253016E+02 -0.34751295137E+02 -0.13784094832E+02  0.41907011237E+02  0.00000000000E+00 0.  1.
</event>
<event>
12    1  0.8331241E-002  0.2738232E+03  0.7818608E-02  0.1099148E+00
         21   -1    0    0  501  502  0.00000000000E+00  0.00000000000E+00  0.15503605662E+03  0.15503605662E+03  0.00000000000E+00 0. -1.
         21   -1    0    0  502  503 -0.00000000000E+00 -0.00000000000E+00 -0.48675554782E+03  0.48675554782E+03  0.00000000000E+00 0.  1.
         -6    2    1    2    0  503 -0.52728065384E+02  0.20719778738E+03 -0.13822791346E+03  0.30650343217E+03  0.17066407325E+03 0.  0.
        -24    2    3    3    0    0 -0.40655711736E+02  0.20940097217E+03 -0.73418892160E+02  0.24037556370E+03  0.82996529175E+02 0.  0.
          6    2    1    2  501    0  0.52728065384E+02 -0.20719778738E+03 -0.19349157774E+03  0.33528817227E+03  0.17107891697E+03 0.  0.
         24    2    5    5    0    0  0.80420587679E+02 -0.14080408440E+03 -0.74521477571E+02  0.19618039276E+03  0.81486408539E+02 0.  0.
          5    1    5    5  501    0 -0.27692522295E+02 -0.66393702981E+02 -0.11897010017E+03  0.13910777951E+03  0.47000000000E+01 0. -1.
        -13    1    6    6    0    0  0.44480357780E+02 -0.13805835252E+03 -0.64689302125E+02  0.15881850251E+03  0.00000000000E+00 0.  1.
         14    1    6    6    0    0  0.35940229899E+02 -0.27457318730E+01 -0.98321754462E+01  0.37361890245E+02  0.00000000000E+00 0. -1.
         -5    1    3    3    0  503 -0.12072353649E+02 -0.22031847925E+01 -0.64809021304E+02  0.66127868468E+02  0.47000000000E+01 0.  1.
         13    1    4    4    0    0 -0.27135201958E+02  0.16556817400E+03 -0.91457676611E+02  0.19108544172E+03  0.00000000000E+00 0. -1.
        -14    1    4    4    0    0 -0.13520509777E+02  0.43832798168E+02  0.18038784451E+02  0.49290121976E+02  0.00000000000E+00 0.  1.
</event>
<event>
12    1  0.8331241E-002  0.2230978E+03  0.7818608E-02  0.1131759E+00
         21   -1    0    0  501  502  0.00000000000E+00  0.00000000000E+00  0.32270537092E+03  0.32270537092E+03  0.00000000000E+00 0.  1.
         21   -1    0    0  502  503 -0.00000000000E+00 -0.00000000000E+00 -0.15368977826E+03  0.15368977826E+03  0.00000000000E+00 0.  1.
         -6    2    1    2    0  503 -0.46647533375E+02 -0.13286874506E+03  0.89878933614E+02  0.24052199409E+03  0.17303904515E+03 0.  0.
        -24    2    3    3    0    0  0.31257306143E+02 -0.42765460410E+02  0.71647121817E+02  0.11993072207E+03  0.80275551947E+02 0.  0.
          6    2    1    2  501    0  0.46647533375E+02  0.13286874506E+03  0.79136659041E+02  0.23587315509E+03  0.17188204882E+03 0.  0.
         24    2    5    5    0    0  0.37634895969E+02  0.13394493579E+03  0.28947024491E+01  0.15894909017E+03  0.76803663620E+02 0.  0.
          5    1    5    5  501    0  0.90126374061E+01 -0.10761907313E+01  0.76241956592E+02  0.76924064924E+02  0.47000000000E+01 0. -1.
        -13    1    6    6    0    0 -0.21393497938E+02  0.63505316101E+02  0.20141452145E+01  0.67042253154E+02  0.00000000000E+00 0.  1.
         14    1    6    6    0    0  0.59028393907E+02  0.70439619688E+02  0.88055723454E+00  0.91906837015E+02  0.00000000000E+00 0. -1.
         -5    1    3    3    0  503 -0.77904839519E+02 -0.90103284647E+02  0.18231811797E+02  0.12059127201E+03  0.47000000000E+01 0.  1.
         13    1    4    4    0    0  0.44054047290E+02 -0.34818172145E+02  0.10716479813E+02  0.57165611461E+02  0.00000000000E+00 0. -1.
        -14    1    4    4    0    0 -0.12796741147E+02 -0.79472882650E+01  0.60930642005E+02  0.62765110610E+02  0.00000000000E+00 0.  1.
</event>
<event>
12    1  0.8331241E-002  0.1758571E+03  0.7818608E-02  0.1172499E+00
         21   -1    0    0  501  502  0.00000000000E+00  0.00000000000E+00  0.33357669149E+03  0.33357669149E+03  0.00000000000E+00 0. -1.
         21   -1    0    0  502  503 -0.00000000000E+00 -0.00000000000E+00 -0.40905010405E+03  0.40905010405E+03  0.00000000000E+00 0. -1.
         -6    2    1    2    0  503 -0.10430775765E+01  0.30986976567E+02 -0.36488391661E+03  0.40397630296E+03  0.17057344468E+03 0.  0.
        -24    2    3    3    0    0  0.15140864242E+01  0.79362525845E+02 -0.31370345676E+03  0.33334867150E+03  0.80067315696E+02 0.  0.
          6    2    1    2  501    0  0.10430775765E+01 -0.30986976567E+02  0.28941050404E+03  0.33865049258E+03  0.17310238458E+03 0.  0.
         24    2    5    5    0    0  0.59833278179E+02 -0.31025604963E+02  0.11874472289E+03  0.15808142537E+03  0.79666922187E+02 0.  0.
          5    1    5    5  501    0 -0.58790200602E+02  0.38628395653E-01  0.17066578115E+03  0.18056906721E+03  0.47000000000E+01 0. -1.
        -11    1    6    6    0    0 -0.53095453156E+01  0.29408970086E+01 -0.89188202050E+01  0.10788211183E+02  0.00000000000E+00 0.  1.
         12    1    6    6    0    0  0.65142823494E+02 -0.33966501971E+02  0.12766354310E+03  0.14729321419E+03  0.00000000000E+00 0. -1.
         -5    1    3    3    0  503 -0.25571640006E+01 -0.48375549277E+02 -0.51180459843E+02  0.70627631458E+02  0.47000000000E+01 0.  1.
         13    1    4    4    0    0  0.20549683525E+02 -0.32788166189E+01 -0.25426326921E+02  0.32856327125E+02  0.00000000000E+00 0. -1.
        -14    1    4    4    0    0 -0.19035597101E+02  0.82641342464E+02 -0.28827712984E+03  0.30049234438E+03  0.00000000000E+00 0.  1.
</event>
<event>
12    1  0.8331241E-002  0.1976945E+03  0.7818608E-02  0.1152353E+00
         21   -1    0    0  501  502  0.00000000000E+00  0.00000000000E+00  0.23238982486E+03  0.23238982486E+03  0.00000000000E+00 0. -1.
         21   -1    0    0  502  503 -0.00000000000E+00 -0.00000000000E+00 -0.16712193062E+03  0.16712193062E+03  0.00000000000E+00 0. -1.
         -6    2    1    2    0  503 -0.84025147680E+02 -0.43107920979E+02  0.13885723551E+02  0.19818155205E+03  0.17367957842E+03 0.  0.
        -24    2    3    3    0    0 -0.90189490260E+02 -0.38869853045E+01 -0.43482964518E+02  0.12825632566E+03  0.80060377591E+02 0.  0.
          6    2    1    2  501    0  0.84025147680E+02  0.43107920979E+02  0.51382170691E+02  0.20133020344E+03  0.17022104763E+03 0.  0.
         24    2    5    5    0    0 -0.57449632537E+01 -0.20419227316E+02  0.24227096228E+02  0.87955340894E+02  0.81848887305E+02 0.  0.
          5    1    5    5  501    0  0.89770110934E+02  0.63527148295E+02  0.27155074464E+02  0.11337486254E+03  0.47000000000E+01 0. -1.
        -13    1    6    6    0    0  0.12887065005E+02 -0.44135287674E+02 -0.46341107361E+01  0.46211200427E+02  0.00000000000E+00 0.  1.
         14    1    6    6    0    0 -0.18632028259E+02  0.23716060358E+02  0.28861206964E+02  0.41744140467E+02  0.00000000000E+00 0. -1.
         -5    1    3    3    0  503  0.61643425799E+01 -0.39220935674E+02  0.57368688069E+02  0.69925226387E+02  0.47000000000E+01 0.  1.
         11    1    4    4    0    0 -0.45089371978E+02 -0.38793557814E+02 -0.38835826139E+02  0.71036701677E+02  0.00000000000E+00 0. -1.
        -12    1    4    4    0    0 -0.45100118282E+02  0.34906572510E+02 -0.46471383788E+01  0.57219623981E+02  0.00000000000E+00 0.  1.
</event>
<event>
12    1  0.8331241E-002  0.2135798E+03  0.7818608E-02  0.1138922E+00
         21   -1    0    0  501  502  0.00000000000E+00  0.00000000000E+00  0.11432211961E+04  0.11432211961E+04  0.00000000000E+00 0. -1.
         21   -1    0    0  502  503 -0.00000000000E+00 -0.00000000000E+00 -0.39832742493E+02  0.39832742493E+02  0.00000000000E+00 0.  1.
         -6    2    1    2    0  503 -0.12573042006E+03 -0.40484792583E+01  0.52325250231E+03  0.56485164752E+03  0.17157993421E+03 0.  0.
        -24    2    3    3    0    0 -0.14695788077E+03 -0.24972215177E+02  0.34819194124E+03  0.38720959772E+03  0.80457531511E+02 0.  0.
          6    2    1    2  501    0  0.12573042006E+03  0.40484792583E+01  0.58013595130E+03  0.61820229107E+03  0.17260307640E+03 0.  0.
         24    2    5    5    0    0  0.75454758085E+02 -0.12876684648E+02  0.15641014624E+03  0.19114286754E+03  0.78817716516E+02 0.  0.
          5    1    5    5  501    0  0.50275661978E+02  0.16925163907E+02  0.42372580506E+03  0.42705942354E+03  0.47000000000E+01 0. -1.
        -13    1    6    6    0    0  0.40142212150E+02  0.25406555337E+02  0.34921866505E+02  0.58961233116E+02  0.00000000000E+00 0.  1.
         14    1    6    6    0    0  0.35312545936E+02 -0.38283239985E+02  0.12148827974E+03  0.13218163442E+03  0.00000000000E+00 0. -1.
         -5    1    3    3    0  503  0.21227460709E+02  0.20923735919E+02  0.17506056107E+03  0.17764204980E+03  0.47000000000E+01 0.  1.
         13    1    4    4    0    0 -0.53111149413E+02 -0.22443500409E+02  0.22530319385E+03  0.23256404293E+03  0.00000000000E+00 0. -1.
        -14    1    4    4    0    0 -0.93846731360E+02 -0.25287147678E+01  0.12288874738E+03  0.15464555480E+03  0.00000000000E+00 0.  1.
</event>
<event>
12    1  0.8331241E-002  0.3587841E+03  0.7818608E-02  0.1059077E+00
         21   -1    0    0  503  502  0.00000000000E+00  0.00000000000E+00  0.10727173853E+04  0.10727173853E+04  0.00000000000E+00 0.  1.
         21   -1    0    0  501  503 -0.00000000000E+00 -0.00000000000E+00 -0.36575914657E+03  0.36575914657E+03  0.00000000000E+00 0. -1.
          6    2    1    2  501    0  0.95461431047E+02 -0.29992519111E+03 -0.23614467704E+03  0.42943283987E+03  0.17198909961E+03 0.  0.
         24    2    3    3    0    0  0.83762030583E+01 -0.20329681502E+03 -0.98440191182E+02  0.23994538533E+03  0.80520562156E+02 0.  0.
         -6    2    1    2    0  502 -0.95461431047E+02  0.29992519111E+03  0.94310291578E+03  0.10090436920E+04  0.17221514900E+03 0.  0.
        -24    2    5    5    0    0  0.14204176522E+02  0.10391749210E+03  0.29459451408E+03  0.32272685509E+03  0.79787790275E+02 0.  0.
          5    1    3    3  501    0  0.87085227989E+02 -0.96628376092E+02 -0.13770448586E+03  0.18948745453E+03  0.47000000000E+01 0. -1.
        -11    1    4    4    0    0  0.13411272098E+02 -0.10583807383E+03 -0.81508553593E+01  0.10699531081E+03  0.00000000000E+00 0.  1.
         12    1    4    4    0    0 -0.50350690396E+01 -0.97458741186E+02 -0.90289335823E+02  0.13295007453E+03  0.00000000000E+00 0. -1.
         -5    1    5    5    0  502 -0.10966560757E+03  0.19600769901E+03  0.64850840171E+03  0.68631683692E+03  0.47000000000E+01 0.  1.
         11    1    6    6    0    0 -0.10678288499E+02  0.73284475208E+02  0.10153105822E+03  0.12567098287E+03  0.00000000000E+00 0. -1.
        -12    1    6    6    0    0  0.24882465021E+02  0.30633016891E+02  0.19306345586E+03  0.19705587222E+03  0.00000000000E+00 0.  1.
</event>
<event>
12    1  0.8331241E-002  0.2893358E+03  0.7818608E-02  0.1091059E+00
         21   -1    0    0  503  502  0.00000000000E+00  0.00000000000E+00  0.14201342174E+03  0.14201342174E+03  0.00000000000E+00 0.  1.
         21   -1    0    0  501  503 -0.00000000000E+00 -0.00000000000E+00 -0.60736707510E+03  0.60736707510E+03  0.00000000000E+00 0. -1.
          6    2    1    2  501    0 -0.23278105923E+03  0.11043895358E+02 -0.30526574607E+03  0.41870948998E+03  0.16679769817E+03 0.  0.
         24    2    3    3    0    0 -0.14046885017E+03 -0.59669526785E+02 -0.18122811969E+03  0.24862317433E+03  0.75351849041E+02 0.  0.
         -6    2    1    2    0  502  0.23278105923E+03 -0.11043895358E+02 -0.16008790728E+03  0.33067100686E+03  0.17148232433E+03 0.  0.
        -24    2    5    5    0    0  0.61179952853E+02 -0.46619278521E+02 -0.36624883590E+02  0.11624676425E+03  0.79092252090E+02 0.  0.
          5    1    3    3  501    0 -0.92312209054E+02  0.70713422143E+02 -0.12403762639E+03  0.17008631565E+03  0.47000000000E+01 0. -1.
        -11    1    4    4    0    0  0.67741361527E+01  0.23364774909E+01 -0.18877854737E+00  0.71682414176E+01  0.00000000000E+00 0.  1.
         12    1    4    4    0    0 -0.14724298633E+03 -0.62006004276E+02 -0.18103934114E+03  0.24145493291E+03  0.00000000000E+00 0. -1.
         -5    1    5    5    0  502  0.17160110638E+03  0.35575383164E+02 -0.12346302369E+03  0.21442424260E+03  0.47000000000E+01 0.  1.
         13    1    6    6    0    0  0.38026331856E+02  0.14678242536E+02 -0.29541533412E+02  0.50340390490E+02  0.00000000000E+00 0. -1.
        -14    1    6    6    0    0  0.23153620997E+02 -0.61297521057E+02 -0.70833501783E+01  0.65906373764E+02  0.00000000000E+00 0.  1.
</event>
<event>
12    1  0.8331241E-002  0.1767934E+03  0.7818608E-02  0.1171109E+00
         21   -1    0    0  503  502  0.00000000000E+00  0.00000000000E+00  0.10333995980E+04  0.10333995980E+04  0.00000000000E+00 0. -1.
         21   -1    0    0  501  503 -0.00000000000E+00 -0.00000000000E+00 -0.32375335419E+02  0.32375335419E+02  0.00000000000E+00 0. -1.
          6    2    1    2  501    0  0.29441799372E+02 -0.28760709164E+02  0.35933524837E+03  0.40017693190E+03  0.17124765155E+03 0.  0.
         24    2    3    3    0    0  0.19066069405E+02  0.22012388433E+02  0.80529979607E+02  0.11655741370E+03  0.79072705953E+02 0.  0.
         -6    2    1    2    0  502 -0.29441799372E+02  0.28760709164E+02  0.64168901426E+03  0.66559800157E+03  0.17193577501E+03 0.  0.
        -24    2    5    5    0    0 -0.36912742223E+02 -0.41098185618E+02  0.46924833611E+03  0.47933486070E+03  0.80723579799E+02 0.  0.
          5    1    3    3  501    0  0.10375729966E+02 -0.50773097597E+02  0.27880526877E+03  0.28361951820E+03  0.47000000000E+01 0. -1.
        -11    1    4    4    0    0  0.45013600434E+02  0.91358670085E-01  0.25076071653E+02  0.51527099084E+02  0.00000000000E+00 0.  1.
         12    1    4    4    0    0 -0.25947531028E+02  0.21921029763E+02  0.55453907954E+02  0.65030314621E+02  0.00000000000E+00 0. -1.
         -5    1    5    5    0  502  0.74709428513E+01  0.69858894782E+02  0.17244067815E+03  0.18626314087E+03  0.47000000000E+01 0.  1.
         13    1    6    6    0    0  0.23527256986E+02 -0.91452688061E+00  0.15744406280E+03  0.15919485259E+03  0.00000000000E+00 0. -1.
        -14    1    6    6    0    0 -0.60439999209E+02 -0.40183658738E+02  0.31180427332E+03  0.32014000811E+03  0.00000000000E+00 0.  1.
</event>
<event>
12    1  0.8331241E-002  0.1958344E+03  0.7818608E-02  0.1153865E+00
         21   -1    0    0  503  502  0.00000000000E+00  0.00000000000E+00  0.17854949605E+03  0.17854949605E+03  0.00000000000E+00 0. -1.
         21   -1    0    0  501  503 -0.00000000000E+00 -0.00000000000E+00 -0.71084373999E+03  0.71084373999E+03  0.00000000000E+00 0.  1.
          6    2    1    2  501    0 -0.89860069995E+02 -0.26812416556E+01 -0.63920781997E+03  0.66853403420E+03  0.17398016131E+03 0.  0.
         24    2    3    3    0    0 -0.91047804717E+02  0.36007152492E+02 -0.60066167285E+03  0.61370613972E+03  0.79085794654E+02 0.  0.
         -6    2    1    2    0  502  0.89860069995E+02  0.26812416556E+01  0.10691357603E+03  0.22085920184E+03  0.17107382342E+03 0.  0.
        -24    2    5    5    0    0  0.48782003168E+02  0.17249806499E+01  0.13890068315E+03  0.16857548515E+03  0.82107460198E+02 0.  0.
          5    1    3    3  501    0  0.11877347215E+01 -0.38688394148E+02 -0.38546147118E+02  0.54827894480E+02  0.47000000000E+01 0. -1.
        -11    1    4    4    0    0 -0.79085841401E+02  0.19300507891E+02 -0.26048230411E+03  0.27290678018E+03  0.00000000000E+00 0.  1.
         12    1    4    4    0    0 -0.11961963316E+02  0.16706644601E+02 -0.34017936874E+03  0.34079935953E+03  0.00000000000E+00 0. -1.
         -5    1    5    5    0  502  0.41078066828E+02  0.95626100566E+00 -0.31987107122E+02  0.52283716695E+02  0.47000000000E+01 0.  1.
         13    1    6    6    0    0  0.43375099936E+02 -0.17577633317E+02  0.25265298621E+02  0.53185597692E+02  0.00000000000E+00 0. -1.
        -14    1    6    6    0    0  0.54069032320E+01  0.19302613967E+02  0.11363538453E+03  0.11538988745E+03  0.00000000000E+00 0.  1.
</event>
<event>
12    1  0.8331241E-002  0.2389846E+03  0.7818608E-02  0.1121951E+00
         21   -1    0    0  501  502  0.00000000000E+00  0.00000000000E+00  0.14678811026E+03  0.14678811026E+03  0.00000000000E+00 0.  1.
         21   -1    0    0  502  503 -0.00000000000E+00 -0.00000000000E+00 -0.37959829562E+03  0.37959829562E+03  0.00000000000E+00 0. -1.
         -6    2    1    2    0  503 -0.16027970244E+03  0.40209704121E+02 -0.14715423205E+03  0.28065640386E+03  0.17264775035E+03 0.  0.
        -24    2    3    3    0    0 -0.11679064516E+03 -0.12875614232E+02 -0.30091078331E+02  0.14488003963E+03  0.79239615400E+02 0.  0.
          6    2    1    2  501    0  0.16027970244E+03 -0.40209704121E+02 -0.85655953313E+02  0.24573000202E+03  0.16043655516E+03 0.  0.
         24    2    5    5    0    0  0.12170437393E+03 -0.66208143693E+02 -0.13462001359E+02  0.15971819162E+03  0.78314764424E+02 0.  0.
          5    1    5    5  501    0  0.38575328512E+02  0.25998439571E+02 -0.72193951954E+02  0.86011810402E+02  0.47000000000E+01 0. -1.
        -13    1    6    6    0    0  0.26844861131E+02 -0.48580323507E+02 -0.27964745216E+02  0.62150795459E+02  0.00000000000E+00 0.  1.
         14    1    6    6    0    0  0.94859512801E+02 -0.17627820186E+02  0.14502743856E+02  0.97567396156E+02  0.00000000000E+00 0. -1.
         -5    1    3    3    0  503 -0.43489057287E+02  0.53085318353E+02 -0.11706315371E+03  0.13577636424E+03  0.47000000000E+01 0.  1.
         13    1    4    4    0    0 -0.71365697620E+02  0.20293502946E+02 -0.44892288332E+02  0.86719124824E+02  0.00000000000E+00 0. -1.
        -14    1    4    4    0    0 -0.45424947537E+02 -0.33169117177E+02  0.14801210000E+02  0.58160914802E+02  0.00000000000E+00 0.  1.
</event>
<event>
12    1  0.8331241E-002  0.1739929E+03  0.7818608E-02  0.1173910E+00
         21   -1    0    0  501  502  0.00000000000E+00  0.00000000000E+00  0.22416525796E+03  0.22416525796E+03  0.00000000000E+00 0.  1.
         21   -1    0    0  502  503 -0.00000000000E+00 -0.00000000000E+00 -0.34836181113E+03  0.34836181113E+03  0.00000000000E+00 0.  1.
         -6    2    1    2    0  503 -0.38006695462E+01 -0.22406194396E+02 -0.28632120758E+03  0.33470796360E+03  0.17185198384E+03 0.  0.
        -24    2    3    3    0    0 -0.31218516441E+02 -0.20336614473E+02 -0.59013213218E+02  0.10569478540E+03  0.79376663253E+02 0.  0.
          6    2    1    2  501    0  0.38006695462E+01  0.22406194396E+02  0.16212465440E+03  0.23781910549E+03  0.17250229196E+03 0.  0.
         24    2    5    5    0    0 -0.19277348034E+02 -0.42182096351E+02  0.14757409268E+02  0.75204723784E+02  0.57332573214E+02 0.  0.
          5    1    5    5  501    0  0.23078017581E+02  0.64588290746E+02  0.14736724514E+03  0.16261438170E+03  0.47000000000E+01 0. -1.
        -13    1    6    6    0    0  0.20568918242E+02 -0.12692169485E+02  0.50182127577E+01  0.24685097188E+02  0.00000000000E+00 0.  1.
         14    1    6    6    0    0 -0.39846266277E+02 -0.29489926866E+02  0.97391965100E+01  0.50519626596E+02  0.00000000000E+00 0. -1.
         -5    1    3    3    0  503  0.27417846894E+02 -0.20695799227E+01 -0.22730799436E+03  0.22901317820E+03  0.47000000000E+01 0.  1.
         11    1    4    4    0    0  0.22637810699E+02 -0.24785935227E+02 -0.24792621028E+02  0.41731128858E+02  0.00000000000E+00 0. -1.
        -12    1    4    4    0    0 -0.53856327140E+02  0.44493207537E+01 -0.34220592190E+02  0.63963656541E+02  0.00000000000E+00 0.  1.
</event>
<event>
12    1  0.8331241E-002  0.2333472E+03  0.7818608E-02  0.1124424E+00
         21   -1    0    0  501  502  0.00000000000E+00  0.00000000000E+00  0.93955233939E+03  0.93955233939E+03  0.00000000000E+00 0.  1.
         21   -1    0    0  502  503 -0.00000000000E+00 -0.00000000000E+00 -0.18384797723E+03  0.18384797723E+03  0.00000000000E+00 0. -1.
         -6    2    1    2    0  503  0.22335233556E+02 -0.15547068232E+03 -0.87447953520E+02  0.24855362230E+03  0.17164429167E+03 0.  0.
        -24    2    3    3    0    0 -0.63876494454E+01 -0.34041006749E+02 -0.90170078147E+02  0.12365498307E+03  0.77203106408E+02 0.  0.
          6    2    1    2  501    0 -0.22335233556E+02  0.15547068232E+03  0.84315231568E+03  0.87484669432E+03  0.17257147912E+03 0.  0.
         24    2    5    5    0    0  0.12395419027E+02  0.22125077048E+02  0.19695554733E+03  0.21410497315E+03  0.80039280696E+02 0.  0.
          5    1    5    5  501    0 -0.34730652583E+02  0.13334560528E+03  0.64619676835E+03  0.66074172117E+03  0.47000000000E+01 0. -1.
        -13    1    6    6    0    0 -0.10795304821E+01  0.31066740265E+02  0.19540148773E+03  0.19785865952E+03  0.00000000000E+00 0.  1.
         14    1    6    6    0    0  0.13474949509E+02 -0.89416632167E+01  0.15540595967E+01  0.16246313630E+02  0.00000000000E+00 0. -1.
         -5    1    3    3    0  503  0.28722883001E+02 -0.12142967557E+03  0.27221246276E+01  0.12489863923E+03  0.47000000000E+01 0.  1.
         13    1    4    4    0    0  0.41488167991E+01 -0.57636150308E+02 -0.53173501205E+02  0.78527445735E+02  0.00000000000E+00 0. -1.
        -14    1    4    4    0    0 -0.10536466245E+02  0.23595143560E+02 -0.36996576942E+02  0.45127537335E+02  0.00000000000E+00 0.  1.
</event>
<event>
12    1  0.8331241E-002  0.2743319E+03  0.7818608E-02  0.1099187E+00
         21   -1    0    0  503  502  0.00000000000E+00  0.00000000000E+00  0.14484179996E+03  0.14484179996E+03  0.00000000000E+00 0.  1.
         21   -1    0    0  501  503 -0.00000000000E+00 -0.00000000000E+00 -0.11674786932E+04  0.11674786932E+04  0.00000000000E+00 0.  1.
          6    2    1    2  501    0  0.17311100556E+03  0.13021872990E+03 -0.10030079451E+04  0.10398475521E+04  0.16832603978E+03 0.  0.
         24    2    3    3    0    0  0.17207749033E+03  0.93568030388E+02 -0.96410075093E+03  0.98618004150E+03  0.68521364079E+02 0.  0.
         -6    2    1    2    0  502 -0.17311100556E+03 -0.13021872990E+03 -0.19628948097E+02  0.27247294109E+03  0.16410932381E+03 0.  0.
        -24    2    5    5    0    0 -0.26894860007E+02 -0.44018206992E+02 -0.36981814020E+02  0.10178930589E+03  0.79576831951E+02 0.  0.
          5    1    3    3  501    0  0.10335152342E+01  0.36650699513E+02 -0.38907194204E+02  0.53667510557E+02  0.47000000000E+01 0. -1.
        -11    1    4    4    0    0  0.34874954579E+02 -0.83001425706E+01 -0.20190501712E+03  0.20506289465E+03  0.00000000000E+00 0.  1.
         12    1    4    4    0    0  0.13720253575E+03  0.10186817296E+03 -0.76219573381E+03  0.78111714686E+03  0.00000000000E+00 0. -1.
         -5    1    5    5    0  502 -0.14621614556E+03 -0.86200522909E+02  0.17352865922E+02  0.17068363520E+03  0.47000000000E+01 0.  1.
         11    1    6    6    0    0 -0.56128846688E+01  0.19627190729E+02 -0.27142662014E+02  0.33962555726E+02  0.00000000000E+00 0. -1.
        -12    1    6    6    0    0 -0.21281975338E+02 -0.63645397721E+02 -0.98391520060E+01  0.67826750163E+02  0.00000000000E+00 0.  1.
</event>
<event>
12    1  0.8331241E-002  0.1873237E+03  0.7818608E-02  0.1160935E+00
         21   -1    0    0  501  502  0.00000000000E+00  0.00000000000E+00  0.52802720662E+03  0.52802720662E+03  0.00000000000E+00 0. -1.
         21   -1    0    0  502  503 -0.00000000000E+00 -0.00000000000E+00 -0.74508110293E+02  0.74508110293E+02  0.00000000000E+00 0.  1.
         -6    2    1    2    0  503 -0.17969067206E+02 -0.71080038148E+02  0.12744895203E+03  0.22656879910E+03  0.17238017912E+03 0.  0.
        -24    2    3    3    0    0 -0.52183043890E+02 -0.10573722049E+03  0.10404060991E+03  0.17233083298E+03  0.70498493732E+02 0.  0.
          6    2    1    2  501    0  0.17969067206E+02  0.71080038148E+02  0.32607014429E+03  0.37596651781E+03  0.17220285803E+03 0.  0.
         24    2    5    5    0    0  0.72269940493E+02  0.17617050520E+02  0.22514987524E+03  0.24942061076E+03  0.77361941429E+02 0.  0.
          5    1    5    5  501    0 -0.54300873287E+02  0.53462987628E+02  0.10092026905E+03  0.12654590705E+03  0.47000000000E+01 0.  1.
        -11    1    6    6    0    0  0.47046326056E+02 -0.12930839058E+02  0.50056233635E+02  0.69901286969E+02  0.00000000000E+00 0.  1.
         12    1    6    6    0    0  0.25223614437E+02  0.30547889578E+02  0.17509364160E+03  0.17951932379E+03  0.00000000000E+00 0. -1.
         -5    1    3    3    0  503  0.34213976684E+02  0.34657182341E+02  0.23408342118E+02  0.54237966122E+02  0.47000000000E+01 0.  1.
         11    1    4    4    0    0 -0.32473458424E+02 -0.51918647533E+02  0.96823959181E+02  0.11456417649E+03  0.00000000000E+00 0. -1.
        -12    1    4    4    0    0 -0.19709585466E+02 -0.53818572956E+02  0.72166507333E+01  0.57766656490E+02  0.00000000000E+00 0.  1.
</event>
<event>
12    1  0.8331241E-002  0.1895276E+03  0.7818608E-02  0.1159085E+00
         21   -1    0    0  503  502  0.00000000000E+00  0.00000000000E+00  0.28163305841E+03  0.28163305841E+03  0.00000000000E+00 0.  1.
         21   -1    0    0  501  503 -0.00000000000E+00 -0.00000000000E+00 -0.13386688952E+03  0.13386688952E+03  0.00000000000E+00 0.  1.
          6    2    1    2  501    0 -0.42697069008E+02  0.67131893032E+02  0.26852671400E+02  0.19142044179E+03  0.17202031511E+03 0.  0.
         24    2    3    3    0    0 -0.60541180284E+02  0.11347958470E+03  0.23949279679E+02  0.14145004541E+03  0.53774498556E+02 0.  0.
         -6    2    1    2    0  502  0.42697069008E+02 -0.67131893032E+02  0.12091349749E+03  0.22407950613E+03  0.17106086762E+03 0.  0.
        -24    2    5    5    0    0  0.51968275951E+02  0.11883542342E+02  0.10806477729E+03  0.14335420702E+03  0.77656373188E+02 0.  0.
          5    1    3    3  501    0  0.17844111277E+02 -0.46347691672E+02  0.29033917205E+01  0.49970396377E+02  0.47000000000E+01 0. -1.
        -13    1    4    4    0    0 -0.19696170754E+02  0.65698053265E+02  0.35976251635E+02  0.77449751626E+02  0.00000000000E+00 0.  1.
         14    1    4    4    0    0 -0.40845009530E+02  0.47781531439E+02 -0.12026971956E+02  0.64000293785E+02  0.00000000000E+00 0. -1.
         -5    1    5    5    0  502 -0.92712069435E+01 -0.79015435374E+02  0.12848720201E+02  0.80725299110E+02  0.47000000000E+01 0.  1.
         11    1    6    6    0    0  0.15649043746E+02  0.21105653499E+02 -0.27095490347E+01  0.26413686524E+02  0.00000000000E+00 0. -1.
        -12    1    6    6    0    0  0.36319232205E+02 -0.92221111569E+01  0.11077432633E+03  0.11694052050E+03  0.00000000000E+00 0.  1.
</event>
<event>
12    1  0.8331241E-002  0.2001166E+03  0.7818608E-02  0.1149663E+00
         21   -1    0    0  501  502  0.00000000000E+00  0.00000000000E+00  0.18630446645E+04  0.18630446645E+04  0.00000000000E+00 0.  1.
         21   -1    0    0  502  503 -0.00000000000E+00 -0.00000000000E+00 -0.22047960883E+02  0.22047960883E+02  0.00000000000E+00 0.  1.
         -6    2    1    2    0  503 -0.94390654631E+02 -0.37885977380E+02  0.76998839088E+03  0.79556820951E+03  0.17234184323E+03 0.  0.
        -24    2    3    3    0    0  0.12618333564E-01  0.16570228608E+02  0.45352009376E+03  0.46082692225E+03  0.80040016157E+02 0.  0.
          6    2    1    2  501    0  0.94390654631E+02  0.37885977380E+02  0.10710083127E+04  0.10895244158E+04  0.17221992877E+03 0.  0.
         24    2    5    5    0    0  0.12533869883E+03  0.26979366684E+02  0.65583740982E+03  0.67303227402E+03  0.80075327661E+02 0.  0.
          5    1    5    5  501    0 -0.30948044203E+02  0.10906610696E+02  0.41517090288E+03  0.41649214182E+03  0.47000000000E+01 0. -1.
        -13    1    6    6    0    0  0.74015233911E+02  0.55438632152E+02  0.40092972889E+03  0.41145636985E+03  0.00000000000E+00 0.  1.
         14    1    6    6    0    0  0.51323464924E+02 -0.28459265468E+02  0.25490768093E+03  0.26157590417E+03  0.00000000000E+00 0. -1.
         -5    1    3    3    0  503 -0.94403272965E+02 -0.54456205988E+02  0.31646829712E+03  0.33474128726E+03  0.47000000000E+01 0.  1.
         11    1    4    4    0    0 -0.28603204855E+02 -0.90878816733E+01  0.33246603225E+03  0.33381790773E+03  0.00000000000E+00 0. -1.
        -12    1    4    4    0    0  0.28615823188E+02  0.25658110282E+02  0.12105406151E+03  0.12700901451E+03  0.00000000000E+00 0.  1.
</event>
<event>
12    1  0.8331241E-002  0.1915487E+03  0.7818608E-02  0.1157837E+00
         21   -1    0    0  503  502  0.00000000000E+00  0.00000000000E+00  0.86637117926E+02  0.86637117926E+02  0.00000000000E+00 0. -1.
         21   -1    0    0  501  503 -0.00000000000E+00 -0.00000000000E+00 -0.49883128540E+03  0.49883128540E+03  0.00000000000E+00 0. -1.
          6    2    1    2  501    0  0.75970636621E+02  0.22853929584E+01 -0.32382515473E+03  0.37451819419E+03  0.17211736197E+03 0.  0.
         24    2    3    3    0    0  0.65229930890E+01 -0.49468284653E+01 -0.58154821063E+02  0.99785421461E+02  0.80672960603E+02 0.  0.
         -6    2    1    2    0  502 -0.75970636621E+02 -0.22853929584E+01 -0.88369012740E+02  0.21095020914E+03  0.17582419535E+03 0.  0.
        -24    2    5    5    0    0 -0.52477194282E+02 -0.66945189819E+02 -0.35748580613E+02  0.12421018931E+03  0.83154649610E+02 0.  0.
          5    1    3    3  501    0  0.69447643532E+02  0.72322214237E+01 -0.26567033367E+03  0.27473277273E+03  0.47000000000E+01 0. -1.
        -13    1    4    4    0    0  0.35268840442E+02 -0.11633551079E+02 -0.30352759021E+01  0.37261823850E+02  0.00000000000E+00 0.  1.
         14    1    4    4    0    0 -0.28745847353E+02  0.66867226135E+01 -0.55119545161E+02  0.62523597610E+02  0.00000000000E+00 0. -1.
         -5    1    5    5    0  502 -0.23493442340E+02  0.64659796860E+02 -0.52620432127E+02  0.86740019831E+02  0.47000000000E+01 0.  1.
         13    1    6    6    0    0 -0.27779298726E+02 -0.32236750909E+02  0.25495705826E+02  0.49607747000E+02  0.00000000000E+00 0. -1.
        -14    1    6    6    0    0 -0.24697895556E+02 -0.34708438910E+02 -0.61244286439E+02  0.74602442305E+02  0.00000000000E+00 0.  1.
</event>
<event>
12    1  0.8331241E-002  0.1977900E+03  0.7818608E-02  0.1151750E+00
         21   -1    0    0  503  502  0.00000000000E+00  0.00000000000E+00  0.21759711479E+04  0.21759711479E+04  0.00000000000E+00 0.  1.
         21   -1    0    0  501  503 -0.00000000000E+00 -0.00000000000E+00 -0.63322796699E+02  0.63322796699E+02  0.00000000000E+00 0. -1.
          6    2    1    2  501    0  0.24605501774E+02  0.93364045353E+02  0.10874332049E+03  0.22571223131E+03  0.17262278508E+03 0.  0.
         24    2    3    3    0    0  0.50798593276E+02  0.38602934477E+02  0.12563307078E+03  0.16252828579E+03  0.81000565290E+02 0.  0.
         -6    2    1    2    0  502 -0.24605501774E+02 -0.93364045353E+02  0.20039050307E+04  0.20135817133E+04  0.17191180383E+03 0.  0.
        -24    2    5    5    0    0 -0.13814260920E+02 -0.59318591133E+02  0.53205535881E+03  0.54129129000E+03  0.78764374762E+02 0.  0.
          5    1    3    3  501    0 -0.26193091502E+02  0.54761110876E+02 -0.16889750295E+02  0.63183945523E+02  0.47000000000E+01 0. -1.
        -11    1    4    4    0    0  0.29573649197E+02 -0.10280835887E+02  0.64420093501E+01  0.31965540787E+02  0.00000000000E+00 0.  1.
         12    1    4    4    0    0  0.21224944079E+02  0.48883770364E+02  0.11919106143E+03  0.13056274500E+03  0.00000000000E+00 0. -1.
         -5    1    5    5    0  502 -0.10791240854E+02 -0.34045454220E+02  0.14718496719E+04  0.14722904233E+04  0.47000000000E+01 0.  1.
         11    1    6    6    0    0 -0.11864974125E+02 -0.77528324991E+02  0.47309476660E+03  0.47955195440E+03  0.00000000000E+00 0. -1.
        -12    1    6    6    0    0 -0.19492867956E+01  0.18209733858E+02  0.58960592214E+02  0.61739335601E+02  0.00000000000E+00 0.  1.
</event>
<event>
12    1  0.8331241E-002  0.1834736E+03  0.7818608E-02  0.1164591E+00
         21   -1    0    0  501  502  0.00000000000E+00  0.00000000000E+00  0.65429829029E+02  0.65429829029E+02  0.00000000000E+00 0.  1.
         21   -1    0    0  502  503 -0.00000000000E+00 -0.00000000000E+00 -0.67941890764E+03  0.67941890764E+03  0.00000000000E+00 0.  1.
         -6    2    1    2    0  503  0.53509564964E+02  0.30805469820E+02 -0.49149404426E+03  0.52462269326E+03  0.17277246372E+03 0.  0.
        -24    2    3    3    0    0  0.10028129173E+03  0.43249850107E+02 -0.35663984100E+03  0.38126927278E+03  0.79040465412E+02 0.  0.
          6    2    1    2  501    0 -0.53509564964E+02 -0.30805469820E+02 -0.12249503435E+03  0.22022604342E+03  0.17228530478E+03 0.  0.
         24    2    5    5    0    0  0.29668649513E+02 -0.10103708813E+02 -0.91682278602E+02  0.12901916764E+03  0.85193847856E+02 0.  0.
          5    1    5    5  501    0 -0.83178214477E+02 -0.20701761006E+02 -0.30812755751E+02  0.91206875779E+02  0.47000000000E+01 0. -1.
        -11    1    6    6    0    0  0.38959337262E+02 -0.14050806951E+02 -0.49602419852E+01  0.41711618722E+02  0.00000000000E+00 0.  1.
         12    1    6    6    0    0 -0.92906877497E+01  0.39470981380E+01 -0.86722036617E+02  0.87307548915E+02  0.00000000000E+00 0. -1.
         -5    1    3    3    0  503 -0.46771726762E+02 -0.12444380287E+02 -0.13485420326E+03  0.14335342047E+03  0.47000000000E+01 0.  1.
         11    1    4    4    0    0  0.16430874884E+02 -0.20154841425E+02 -0.40686638164E+02  0.48286579993E+02  0.00000000000E+00 0. -1.
        -12    1    4    4    0    0  0.83850416843E+02  0.63404691532E+02 -0.31595320284E+03  0.33298269279E+03  0.00000000000E+00 0.  1.
</event>
<event>
12    1  0.8331241E-002  0.2795055E+03  0.7818608E-02  0.1095991E+00
         21   -1    0    0  503  502  0.00000000000E+00  0.00000000000E+00  0.63752130880E+03  0.63752130880E+03  0.00000000000E+00 0. -1.
         21   -1    0    0  501  503 -0.00000000000E+00 -0.00000000000E+00 -0.20047587518E+03  0.20047587518E+03  0.00000000000E+00 0.  1.
          6    2    1    2  501    0 -0.19594163043E+03 -0.10039074670E+03 -0.42942425368E+02  0.28255892999E+03  0.17182570374E+03 0.  0.
         24    2    3    3    0    0 -0.14972183529E+03 -0.13647840964E+03 -0.44514023669E+02  0.22371040579E+03  0.83796557782E+02 0.  0.
         -6    2    1    2    0  502  0.19594163043E+03  0.10039074670E+03  0.47998785899E+03  0.55543825400E+03  0.17219722608E+03 0.  0.
        -24    2    5    5    0    0  0.16960281662E+03  0.30020192030E+02  0.25298419991E+03  0.31627617650E+03  0.79770214254E+02 0.  0.
          5    1    3    3  501    0 -0.46219795136E+02  0.36087662944E+02  0.15715983004E+01  0.58848524199E+02  0.47000000000E+01 0. -1.
        -11    1    4    4    0    0 -0.15511386577E+02 -0.52347149609E+02  0.11320076205E+02  0.55758150175E+02  0.00000000000E+00 0.  1.
         12    1    4    4    0    0 -0.13421044871E+03 -0.84131260033E+02 -0.55834099873E+02  0.16795225562E+03  0.00000000000E+00 0. -1.
         -5    1    5    5    0  502  0.26338813804E+02  0.70370554668E+02  0.22700365908E+03  0.23916207749E+03  0.47000000000E+01 0.  1.
         13    1    6    6    0    0  0.36753322364E+01 -0.16907664618E+02  0.25735186606E+02  0.31010917747E+02  0.00000000000E+00 0. -1.
        -14    1    6    6    0    0  0.16592748439E+03  0.46927856648E+02  0.22724901331E+03  0.28526525876E+03  0.00000000000E+00 0.  1.
</event>
<event>
12    1  0.8331241E-002  0.2541225E+03  0.7818608E-02  0.1110838E+00
         21   -1    0    0  503  502  0.00000000000E+00  0.00000000000E+00  0.23163946986E+03  0.23163946986E+03  0.00000000000E+00 0. -1.
         21   -1    0    0  501  503 -0.00000000000E+00 -0.00000000000E+00 -0.28650112527E+03  0.28650112527E+03  0.00000000000E+00 0. -1.
          6    2    1    2  501    0  0.42703201917E+02  0.18152138673E+03 -0.72093155376E+02  0.26415085525E+03  0.17264030231E+03 0.  0.
         24    2    3    3    0    0  0.78693847207E+02  0.18527061161E+03 -0.53372440782E+02  0.22313941306E+03  0.80153971276E+02 0.  0.
         -6    2    1    2    0  502 -0.42703201917E+02 -0.18152138673E+03  0.17231499968E+02  0.25398973988E+03  0.17158171838E+03 0.  0.
        -24    2    5    5    0    0 -0.24386663322E+02 -0.20085846258E+03  0.42210753573E+02  0.21717301544E+03  0.66659879823E+02 0.  0.
          5    1    3    3  501    0 -0.35990645290E+02 -0.37492248752E+01 -0.18720714594E+02  0.41011442190E+02  0.47000000000E+01 0. -1.
        -13    1    4    4    0    0 -0.16074121038E+02  0.38380176601E+02 -0.14476262152E+02  0.44056526066E+02  0.00000000000E+00 0.  1.
         14    1    4    4    0    0  0.94767968245E+02  0.14689043500E+03 -0.38896178630E+02  0.17908288699E+03  0.00000000000E+00 0. -1.
         -5    1    5    5    0  502 -0.18316538595E+02  0.19337075850E+02 -0.24979253605E+02  0.36816724449E+02  0.47000000000E+01 0.  1.
         11    1    6    6    0    0 -0.25471853365E+02 -0.22538132190E+02  0.40228251377E+00  0.34013887571E+02  0.00000000000E+00 0. -1.
        -12    1    6    6    0    0  0.10851900423E+01 -0.17832033039E+03  0.41808471059E+02  0.18315912786E+03  0.00000000000E+00 0.  1.
</event>
<event>
12    1  0.8331241E-002  0.1839365E+03  0.7818608E-02  0.1164192E+00
         21   -1    0    0  503  502  0.00000000000E+00  0.00000000000E+00  0.35637279775E+03  0.35637279775E+03  0.00000000000E+00 0. -1.
         21   -1    0    0  501  503 -0.00000000000E+00 -0.00000000000E+00 -0.10904600261E+03  0.10904600261E+03  0.00000000000E+00 0. -1.
          6    2    1    2  501    0  0.34591991959E+02  0.53134403627E+02  0.38840159302E+02  0.18739126090E+03  0.17200888329E+03 0.  0.
         24    2    3    3    0    0  0.68807224853E+02  0.21587464726E+01 -0.57336345396E+01  0.11137736164E+03  0.87366742768E+02 0.  0.
         -6    2    1    2    0  502 -0.34591991959E+02 -0.53134403627E+02  0.20848663583E+03  0.27802753946E+03  0.17266373278E+03 0.  0.
        -24    2    5    5    0    0 -0.72820821823E+02 -0.40840057864E+02  0.72875160937E+02  0.13651726953E+03  0.79720721150E+02 0.  0.
          5    1    3    3  501    0 -0.34215232895E+02  0.50975657154E+02  0.44573793842E+02  0.76013899267E+02  0.47000000000E+01 0. -1.
        -13    1    4    4    0    0  0.83305444519E+02  0.17001230831E+02 -0.18505371101E+02  0.87013146685E+02  0.00000000000E+00 0.  1.
         14    1    4    4    0    0 -0.14498219666E+02 -0.14842484359E+02  0.12771736562E+02  0.24364214952E+02  0.00000000000E+00 0. -1.
         -5    1    5    5    0  502  0.38228829865E+02 -0.12294345762E+02  0.13561147490E+03  0.14151026993E+03  0.47000000000E+01 0.  1.
         13    1    6    6    0    0  0.84173499830E+01  0.69270675158E+01 -0.70211833368E+01  0.12966613303E+02  0.00000000000E+00 0. -1.
        -14    1    6    6    0    0 -0.81238171807E+02 -0.47767125380E+02  0.79896344274E+02  0.12355065623E+03  0.00000000000E+00 0.  1.
</event>
<event>
12    1  0.8331241E-002  0.2751341E+03  0.7818608E-02  0.1098424E+00
         21   -1    0    0  501  502  0.00000000000E+00  0.00000000000E+00  0.22021940621E+03  0.22021940621E+03  0.00000000000E+00 0. -1.
         21   -1    0    0  502  503 -0.00000000000E+00 -0.00000000000E+00 -0.47089261853E+03  0.47089261853E+03  0.00000000000E+00 0. -1.
         -6    2    1    2    0  503 -0.82819634273E+02  0.19813340491E+03 -0.30514196605E+03  0.41063809273E+03  0.17145286757E+03 0.  0.
        -24    2    3    3    0    0 -0.11036890842E+03  0.17780560356E+03 -0.19710349661E+03  0.29720713182E+03  0.75406645772E+02 0.  0.
          6    2    1    2  501    0  0.82819634273E+02 -0.19813340491E+03  0.54468753725E+02  0.28047393201E+03  0.17199663788E+03 0.  0.
         24    2    5    5    0    0 -0.11916610116E+01 -0.13884955864E+03  0.30513575443E+01  0.16541607354E+03  0.89847351736E+02 0.  0.
          5    1    5    5  501    0  0.84011295284E+02 -0.59283846272E+02  0.51417396181E+02  0.11505785846E+03  0.47000000000E+01 0. -1.
        -13    1    6    6    0    0  0.68318827179E+01 -0.27703858263E+02  0.39002219056E+02  0.48325474394E+02  0.00000000000E+00 0.  1.
         14    1    6    6    0    0 -0.80235437295E+01 -0.11114570037E+03 -0.35950861512E+02  0.11709059915E+03  0.00000000000E+00 0. -1.
         -5    1    3    3    0  503  0.27549274151E+02  0.20327801347E+02 -0.10803846944E+03  0.11343096091E+03  0.47000000000E+01 0.  1.
         11    1    4    4    0    0 -0.13585362760E+02  0.26571432284E+02  0.97780110416E+00  0.29858988428E+02  0.00000000000E+00 0. -1.
        -12    1    4    4    0    0 -0.96783545664E+02  0.15123417128E+03 -0.19808129771E+03  0.26734814339E+03  0.00000000000E+00 0.  1.
</event>
<event>
12    1  0.8331241E-002  0.1763784E+03  0.7818608E-02  0.1171562E+00
         21   -1    0    0  501  502  0.00000000000E+00  0.00000000000E+00  0.16603226099E+03  0.16603226099E+03  0.00000000000E+00 0.  1.
         21   -1    0    0  502  503 -0.00000000000E+00 -0.00000000000E+00 -0.24193526778E+03  0.24193526778E+03  0.00000000000E+00 0. -1.
         -6    2    1    2    0  503 -0.39455505772E+02 -0.12275257513E+02 -0.13567658246E+03  0.22252522755E+03  0.17146988944E+03 0.  0.
        -24    2    3    3    0    0 -0.14024416163E+02 -0.72651780037E+02 -0.68456003313E+02  0.12854245758E+03  0.79761981041E+02 0.  0.
          6    2    1    2  501    0  0.39455505772E+02  0.12275257513E+02  0.59773575672E+02  0.18544230122E+03  0.17061227344E+03 0.  0.
         24    2    5    5    0    0  0.52762648195E+02 -0.28345928913E+02  0.88434600326E+02  0.13376343551E+03  0.80526948380E+02 0.  0.
          5    1    5    5  501    0 -0.13307142423E+02  0.40621186426E+02 -0.28661024654E+02  0.51678865702E+02  0.47000000000E+01 0. -1.
        -13    1    6    6    0    0  0.51515064989E+02  0.17429074451E+02  0.43966241523E+02  0.69932860307E+02  0.00000000000E+00 0.  1.
         14    1    6    6    0    0  0.12475832061E+01 -0.45775003363E+02  0.44468358803E+02  0.63830575208E+02  0.00000000000E+00 0. -1.
         -5    1    3    3    0  503 -0.25431089609E+02  0.60376522524E+02 -0.67220579146E+02  0.93982769972E+02  0.47000000000E+01 0.  1.
         11    1    4    4    0    0  0.29058838810E+02 -0.31148515766E+02 -0.77200273934E+01  0.43292550980E+02  0.00000000000E+00 0. -1.
        -12    1    4    4    0    0 -0.43083254973E+02 -0.41503264271E+02 -0.60735975920E+02  0.85249906599E+02  0.00000000000E+00 0.  1.
</event>
<event>
12    1  0.8331241E-002  0.2370118E+03  0.7818608E-02  0.1122118E+00
         21   -1    0    0  501  502  0.00000000000E+00  0.00000000000E+00  0.84073576586E+03  0.84073576586E+03  0.00000000000E+00 0. -1.
         21   -1    0    0  502  503 -0.00000000000E+00 -0.00000000000E+00 -0.85883840748E+02  0.85883840748E+02  0.00000000000E+00 0. -1.
         -6    2    1    2    0  503 -0.14553753560E+03  0.69088515109E+02  0.15727843819E+03  0.28444876035E+03  0.17383956096E+03 0.  0.
        -24    2    3    3    0    0 -0.14825886142E+03  0.68910350930E+02  0.18252417146E+03  0.25862484886E+03  0.82718878286E+02 0.  0.
          6    2    1    2  501    0  0.14553753560E+03 -0.69088515109E+02  0.59757348692E+03  0.64217084626E+03  0.17127441819E+03 0.  0.
         24    2    5    5    0    0  0.25975413327E+02  0.10750921456E+02  0.32174440629E+03  0.33108692119E+03  0.72861388918E+02 0.  0.
          5    1    5    5  501    0  0.11956212228E+03 -0.79839436564E+02  0.27582908062E+03  0.31108392506E+03  0.47000000000E+01 0. -1.
        -13    1    6    6    0    0  0.42198649279E+02  0.77321557167E+01  0.30337743336E+03  0.30639578866E+03  0.00000000000E+00 0.  1.
         14    1    6    6    0    0 -0.16223235951E+02  0.30187657391E+01  0.18366972930E+02  0.24691132536E+02  0.00000000000E+00 0. -1.
         -5    1    3    3    0  503  0.27213258134E+01  0.17816417870E+00 -0.25245733268E+02  0.25823911495E+02  0.47000000000E+01 0.  1.
         13    1    4    4    0    0 -0.12284144529E+03  0.22523510033E+02  0.97289368625E+02  0.15831156128E+03  0.00000000000E+00 0. -1.
        -14    1    4    4    0    0 -0.25417416122E+02  0.46386840897E+02  0.85234802837E+02  0.10031328758E+03  0.00000000000E+00 0.  1.
</event>
<event>
12    1  0.8331241E-002  0.2871183E+03  0.7818608E-02  0.1092341E+00
         21   -1    0    0  501  502  0.00000000000E+00  0.00000000000E+00  0.60607474504E+02  0.60607474504E+02  0.00000000000E+00 0. -1.
         21   -1    0    0  502  503 -0.00000000000E+00 -0.00000000000E+00 -0.14736097656E+04  0.14736097656E+04  0.00000000000E+00 0. -1.
         -6    2    1    2    0  503  0.99566211250E+02 -0.20658265166E+03 -0.93061985138E+03  0.97285306006E+03  0.16673315899E+03 0.  0.
        -24    2    3    3    0    0  0.51814497717E+02 -0.21134868970E+03 -0.70590479357E+03  0.74302293047E+03  0.80177844853E+02 0.  0.
          6    2    1    2  501    0 -0.99566211250E+02  0.20658265166E+03 -0.48238243974E+03  0.56136418006E+03  0.17276313873E+03 0.  0.
         24    2    5    5    0    0  0.14053006362E+02  0.11091625422E+03 -0.20680140122E+03  0.24826933022E+03  0.79818157972E+02 0.  0.
          5    1    5    5  501    0 -0.11361921761E+03  0.95666397434E+02 -0.27558103852E+03  0.31309484984E+03  0.47000000000E+01 0. -1.
        -13    1    6    6    0    0  0.25494102362E+01  0.32892162180E+01 -0.85876107314E+02  0.85976882028E+02  0.00000000000E+00 0.  1.
         14    1    6    6    0    0  0.11503596126E+02  0.10762703800E+03 -0.12092529391E+03  0.16229244819E+03  0.00000000000E+00 0. -1.
         -5    1    3    3    0  503  0.47751713533E+02  0.47660380408E+01 -0.22471505780E+03  0.22983012959E+03  0.47000000000E+01 0.  1.
         11    1    4    4    0    0  0.55673335682E+02 -0.10290778289E+03 -0.45211689793E+03  0.46701094364E+03  0.00000000000E+00 0. -1.
        -12    1    4    4    0    0 -0.38588379659E+01 -0.10844090680E+03 -0.25378789564E+03  0.27601198683E+03  0.00000000000E+00 0.  1.
</event>
<event>
12    1  0.8331241E-002  0.1760643E+03  0.7818608E-02  0.1173129E+00
         21   -1    0    0  503  502  0.00000000000E+00  0.00000000000E+00  0.62935398034E+03  0.62935398034E+03  0.00000000000E+00 0. -1.
         21   -1    0    0  501  503 -0.00000000000E+00 -0.00000000000E+00 -0.59781031483E+02  0.59781031483E+02  0.00000000000E+00 0. -1.
          6    2    1    2  501    0 -0.36348361930E+02  0.59908452321E+01  0.13339687058E+03  0.22089220899E+03  0.17216721311E+03 0.  0.
         24    2    3    3    0    0 -0.42564298823E+02  0.63501943145E+02  0.11643342880E+03  0.16042723887E+03  0.79598613760E+02 0.  0.
         -6    2    1    2    0  502  0.36348361930E+02 -0.59908452321E+01  0.43617607828E+03  0.46824280283E+03  0.16626682622E+03 0.  0.
        -24    2    5    5    0    0  0.57629825210E+02 -0.15288860751E+02  0.12836287865E+03  0.15951896243E+03  0.73582095249E+02 0.  0.
          5    1    3    3  501    0  0.62159368928E+01 -0.57511097913E+02  0.16963441784E+02  0.60464970121E+02  0.47000000000E+01 0. -1.
        -11    1    4    4    0    0 -0.68169813053E+01  0.63412262632E+02  0.10507984654E+03  0.12292013844E+03  0.00000000000E+00 0.  1.
         12    1    4    4    0    0 -0.35747317518E+02  0.89680512559E-01  0.11353582258E+02  0.37507100427E+02  0.00000000000E+00 0. -1.
         -5    1    5    5    0  502 -0.21281463279E+02  0.92980155191E+01  0.30781319962E+03  0.30872384041E+03  0.47000000000E+01 0.  1.
         13    1    6    6    0    0  0.21181231290E+02  0.26506091447E+02  0.76081759292E+02  0.83304570941E+02  0.00000000000E+00 0. -1.
        -14    1    6    6    0    0  0.36448593920E+02 -0.41794952198E+02  0.52281119360E+02  0.76214391486E+02  0.00000000000E+00 0.  1.
</event>
<event>
12    1  0.8331241E-002  0.2916331E+03  0.7818608E-02  0.1089544E+00
         21   -1    0    0  501  502  0.00000000000E+00  0.00000000000E+00  0.85431012053E+02  0.85431012053E+02  0.00000000000E+00 0.  1.
         21   -1    0    0  502  503 -0.00000000000E+00 -0.00000000000E+00 -0.11113347469E+04  0.11113347469E+04  0.00000000000E+00 0. -1.
         -6    2    1    2    0  503 -0.21715290725E+03  0.90597470614E+02 -0.70736039551E+03  0.76511996873E+03  0.17229785433E+03 0.  0.
        -24    2    3    3    0    0 -0.13569977331E+03 -0.79456413245E+01 -0.46484760591E+03  0.49093043382E+03  0.80323299431E+02 0.  0.
          6    2    1    2  501    0  0.21715290725E+03 -0.90597470614E+02 -0.31854333931E+03  0.43164579019E+03  0.17171180030E+03 0.  0.
         24    2    5    5    0    0  0.12541769184E+03 -0.88711422997E+02 -0.11339389716E+03  0.20686302720E+03  0.79591595751E+02 0.  0.
          5    1    5    5  501    0  0.91735215413E+02 -0.18860476173E+01 -0.20514944215E+03  0.22478276299E+03  0.47000000000E+01 0. -1.
        -13    1    6    6    0    0  0.82288216532E+02 -0.68678039344E+02 -0.11760803271E+03  0.15912156682E+03  0.00000000000E+00 0.  1.
         14    1    6    6    0    0  0.43129475306E+02 -0.20033383653E+02  0.42141355589E+01  0.47741460380E+02  0.00000000000E+00 0. -1.
         -5    1    3    3    0  503 -0.81453133941E+02  0.98543111939E+02 -0.24251278960E+03  0.27418953492E+03  0.47000000000E+01 0.  1.
         11    1    4    4    0    0 -0.16254922170E+02  0.28513058992E+02 -0.87426235511E+02  0.93383958384E+02  0.00000000000E+00 0. -1.
        -12    1    4    4    0    0 -0.11944485114E+03 -0.36458700316E+02 -0.37742137040E+03  0.39754647543E+03  0.00000000000E+00 0.  1.
</event>
<event>
12    1  0.8331241E-002  0.1926496E+03  0.7818608E-02  0.1156956E+00
         21   -1    0    0  503  502  0.00000000000E+00  0.00000000000E+00  0.79601511995E+02  0.79601511995E+02  0.00000000000E+00 0.  1.
         21   -1    0    0  501  503 -0.00000000000E+00 -0.00000000000E+00 -0.92722891256E+03  0.92722891256E+03  0.00000000000E+00 0.  1.
          6    2    1    2  501    0  0.28590264073E+02  0.88448001617E+02 -0.78020614594E+03  0.80272385753E+03  0.16432744474E+03 0.  0.
         24    2    3    3    0    0  0.66727324583E+02  0.10737998679E+03 -0.53882125376E+03  0.55756755714E+03  0.67603549215E+02 0.  0.
         -6    2    1    2    0  502 -0.28590264073E+02 -0.88448001617E+02 -0.67421254632E+02  0.20410656703E+03  0.16874066771E+03 0.  0.
        -24    2    5    5    0    0 -0.80636778805E+02 -0.61814610339E+02 -0.65422261551E+02  0.14541872161E+03  0.80890024981E+02 0.  0.
          5    1    3    3  501    0 -0.38137060510E+02 -0.18931985169E+02 -0.24138489218E+03  0.24515630039E+03  0.47000000000E+01 0. -1.
        -13    1    4    4    0    0  0.25959964909E+02  0.97503192014E+02 -0.40136553602E+03  0.41385394252E+03  0.00000000000E+00 0.  1.
         14    1    4    4    0    0  0.40767359674E+02  0.98767947721E+01 -0.13745571773E+03  0.14371361462E+03  0.00000000000E+00 0. -1.
         -5    1    5    5    0  502  0.52046514731E+02 -0.26633391278E+02 -0.19989930808E+01  0.58687845420E+02  0.47000000000E+01 0.  1.
         11    1    6    6    0    0 -0.22625692464E+02 -0.63417066881E+02 -0.53909083675E+02  0.86254481820E+02  0.00000000000E+00 0. -1.
        -12    1    6    6    0    0 -0.58011086341E+02  0.16024565417E+01 -0.11513177876E+02  0.59164239792E+02  0.00000000000E+00 0.  1.
</event>
<event>
12    1  0.8331241E-002  0.1936870E+03  0.7818608E-02  0.1155575E+00
         21   -1    0    0  503  502  0.00000000000E+00  0.00000000000E+00  0.11024667778E+03  0.11024667778E+03  0.00000000000E+00 0.  1.
         21   -1    0    0  501  503 -0.00000000000E+00 -0.00000000000E+00 -0.36000501410E+03  0.36000501410E+03  0.00000000000E+00 0.  1.
          6    2    1    2  501    0 -0.76118782628E+02  0.44231578404E+02 -0.65054323528E+02  0.20261346090E+03  0.17049823440E+03 0.  0.
         24    2    3    3    0    0 -0.71056245900E+02  0.73114788006E+02 -0.26613673880E+00  0.13134307278E+03  0.82801990514E+02 0.  0.
         -6    2    1    2    0  502  0.76118782628E+02 -0.44231578404E+02 -0.18470401279E+03  0.26763823097E+03  0.17252289338E+03 0.  0.
        -24    2    5    5    0    0  0.67257893953E+02  0.27284647126E+01 -0.34744927514E+02  0.11017846388E+03  0.80006344096E+02 0.  0.
          5    1    3    3  501    0 -0.50625367279E+01 -0.28883209602E+02 -0.64788186789E+02  0.71270388118E+02  0.47000000000E+01 0. -1.
        -11    1    4    4    0    0 -0.58590754762E+01  0.52279429717E+02  0.25177653173E+02  0.58321366207E+02  0.00000000000E+00 0.  1.
         12    1    4    4    0    0 -0.65197170424E+02  0.20835358289E+02 -0.25443789912E+02  0.73021706577E+02  0.00000000000E+00 0. -1.
         -5    1    5    5    0  502  0.88608886746E+01 -0.46960043116E+02 -0.14995908528E+03  0.15745976710E+03  0.47000000000E+01 0.  1.
         11    1    6    6    0    0  0.72526475414E+02  0.60324023180E+00 -0.53793625440E+02  0.90300651563E+02  0.00000000000E+00 0. -1.
        -12    1    6    6    0    0 -0.52685814605E+01  0.21252244808E+01  0.19048697926E+02  0.19877812314E+02  0.00000000000E+00 0.  1.
</event>
<event>
12    1  0.8331241E-002  0.2844706E+03  0.7818608E-02  0.1093506E+00
         21   -1    0    0  501  502  0.00000000000E+00  0.00000000000E+00  0.44473339645E+03  0.44473339645E+03  0.00000000000E+00 0. -1.
         21   -1    0    0  502  503 -0.00000000000E+00 -0.00000000000E+00 -0.43033817504E+03  0.43033817504E+03  0.00000000000E+00 0.  1.
         -6    2    1    2    0  503  0.20340281483E+02 -0.22419470086E+03 -0.32594063997E+03  0.43262089372E+03  0.17391534135E+03 0.  0.
        -24    2    3    3    0    0  0.54289858625E+01 -0.24588477181E+03 -0.30284723461E+03  0.39729100148E+03  0.75065953980E+02 0.  0.
          6    2    1    2  501    0 -0.20340281483E+02  0.22419470086E+03  0.34033586139E+03  0.44245067777E+03  0.17104710685E+03 0.  0.
         24    2    5    5    0    0 -0.44134561495E+01  0.36548572348E+02  0.14160082844E+03  0.16862146707E+03  0.83827965528E+02 0.  0.
          5    1    5    5  501    0 -0.15926825333E+02  0.18764612852E+03  0.19873503295E+03  0.27382921070E+03  0.47000000000E+01 0. -1.
        -11    1    6    6    0    0  0.17743156735E+02  0.27494500035E+02  0.90835288172E+01  0.33959941679E+02  0.00000000000E+00 0.  1.
         12    1    6    6    0    0 -0.22156612884E+02  0.90540723127E+01  0.13251729962E+03  0.13466152539E+03  0.00000000000E+00 0. -1.
         -5    1    3    3    0  503  0.14911295620E+02  0.21690070950E+02 -0.23093405357E+02  0.35329892243E+02  0.47000000000E+01 0.  1.
         13    1    4    4    0    0  0.13636515083E+02 -0.11570188494E+03 -0.88226529766E+02  0.14613966360E+03  0.00000000000E+00 0. -1.
        -14    1    4    4    0    0 -0.82075292204E+01 -0.13018288688E+03 -0.21462070485E+03  0.25115133788E+03  0.00000000000E+00 0.  1.
</event>
<event>
12    1  0.8331241E-002  0.1774815E+03  0.7818608E-02  0.1170748E+00
         21   -1    0    0  501  502  0.00000000000E+00  0.00000000000E+00  0.34935683168E+03  0.34935683168E+03  0.00000000000E+00 0. -1.
         21   -1    0    0  502  503 -0.00000000000E+00 -0.00000000000E+00 -0.65592429059E+03  0.65592429059E+03  0.00000000000E+00 0. -1.
         -6    2    1    2    0  503 -0.38687947585E+02  0.20736820716E+02 -0.62062388557E+03  0.64550266848E+03  0.17196777214E+03 0.  0.
        -24    2    3    3    0    0 -0.72769438170E+02 -0.33766115617E+02 -0.38681164815E+03  0.40296943275E+03  0.79533457656E+02 0.  0.
          6    2    1    2  501    0  0.38687947585E+02 -0.20736820716E+02  0.31405642666E+03  0.35977845379E+03  0.16994800282E+03 0.  0.
         24    2    5    5    0    0  0.27124485626E+02  0.35822649544E+02  0.97455683225E+02  0.13556726008E+03  0.82836416334E+02 0.  0.
          5    1    5    5  501    0  0.11563461959E+02 -0.56559470260E+02  0.21660074344E+03  0.22421119371E+03  0.47000000000E+01 0. -1.
        -11    1    6    6    0    0  0.82687014289E+01 -0.21179955678E+02  0.61536947259E+02  0.65603032123E+02  0.00000000000E+00 0.  1.
         12    1    6    6    0    0  0.18855784197E+02  0.57002605222E+02  0.35918735966E+02  0.69964227954E+02  0.00000000000E+00 0. -1.
         -5    1    3    3    0  503  0.34081490586E+02  0.54502936333E+02 -0.23381223742E+03  0.24253323574E+03  0.47000000000E+01 0.  1.
         13    1    4    4    0    0 -0.46360802700E+02  0.11299566017E+02 -0.28037695031E+03  0.28440857667E+03  0.00000000000E+00 0. -1.
        -14    1    4    4    0    0 -0.26408635470E+02 -0.45065681634E+02 -0.10643469784E+03  0.11856085607E+03  0.00000000000E+00 0.  1.
</event>
<event>
12    1  0.8331241E-002  0.1780952E+03  0.7818608E-02  0.1170023E+00
         21   -1    0    0  503  502  0.00000000000E+00  0.00000000000E+00  0.24345680679E+03  0.24345680679E+03  0.00000000000E+00 0. -1.
         21   -1    0    0  501  503 -0.00000000000E+00 -0.00000000000E+00 -0.18184491554E+03  0.18184491554E+03  0.00000000000E+00 0. -1.
          6    2    1    2  501    0  0.41278030172E+02 -0.35752085126E+01 -0.83516717991E+02  0.19670519460E+03  0.17320864156E+03 0.  0.
         24    2    3    3    0    0  0.58666120596E+02  0.52326107452E+02 -0.26461130329E+02  0.11482276121E+03  0.79399873090E+02 0.  0.
         -6    2    1    2    0  502 -0.41278030172E+02  0.35752085126E+01  0.14512860923E+03  0.22859652773E+03  0.17168984064E+03 0.  0.
        -24    2    5    5    0    0 -0.80418519895E+02  0.34965778834E+02  0.12902696386E+03  0.17569379788E+03  0.80812184611E+02 0.  0.
          5    1    3    3  501    0 -0.17388090424E+02 -0.55901315965E+02 -0.57055587662E+02  0.81882433395E+02  0.47000000000E+01 0. -1.
        -13    1    4    4    0    0  0.17002449624E+02 -0.21119130457E+02 -0.92469691144E+01  0.28646245867E+02  0.00000000000E+00 0.  1.
         14    1    4    4    0    0  0.41663670972E+02  0.73445237909E+02 -0.17214161215E+02  0.86176515343E+02  0.00000000000E+00 0. -1.
         -5    1    5    5    0  502  0.39140489723E+02 -0.31390570321E+02  0.16101645376E+02  0.52902729841E+02  0.47000000000E+01 0.  1.
         11    1    6    6    0    0  0.14758156869E+00 -0.11554769933E+01 -0.10507075490E+02  0.10571449416E+02  0.00000000000E+00 0. -1.
        -12    1    6    6    0    0 -0.80566101464E+02  0.36121255827E+02  0.13953403935E+03  0.16512234847E+03  0.00000000000E+00 0.  1.
</event>
<event>
12    1  0.8331241E-002  0.1818931E+03  0.7818608E-02  0.1166590E+00
         21   -1    0    0  503  502  0.00000000000E+00  0.00000000000E+00  0.10731195016E+03  0.10731195016E+03  0.00000000000E+00 0.  1.
         21   -1    0    0  501  503 -0.00000000000E+00 -0.00000000000E+00 -0.87928555245E+03  0.87928555245E+03  0.00000000000E+00 0.  1.
          6    2    1    2  501    0 -0.60168733891E+01 -0.51523517809E+02 -0.78591171118E+03  0.80668599906E+03  0.17433934626E+03 0.  0.
         24    2    3    3    0    0 -0.56042764445E+02 -0.80576765150E+02 -0.51879639289E+03  0.53333756899E+03  0.75271898406E+02 0.  0.
         -6    2    1    2    0  502  0.60168733891E+01  0.51523517809E+02  0.13938108891E+02  0.17991150355E+03  0.17170615183E+03 0.  0.
        -24    2    5    5    0    0  0.56297894807E+01 -0.37978092257E+01 -0.50249040521E+02  0.95042903884E+02  0.80386999079E+02 0.  0.
          5    1    3    3  501    0  0.50025891056E+02  0.29053247341E+02 -0.26711531829E+03  0.27334843007E+03  0.47000000000E+01 0. -1.
        -11    1    4    4    0    0  0.88767898953E+01 -0.51448333696E+02 -0.20062543334E+03  0.20730724286E+03  0.00000000000E+00 0.  1.
         12    1    4    4    0    0 -0.64919554341E+02 -0.29128431454E+02 -0.31817095955E+03  0.32603032613E+03  0.00000000000E+00 0. -1.
         -5    1    5    5    0  502  0.38708390838E+00  0.55321327035E+02  0.64187149412E+02  0.84868599661E+02  0.47000000000E+01 0.  1.
         13    1    6    6    0    0 -0.34809612729E+02 -0.14487861997E+02 -0.31810766954E+02  0.49330844081E+02  0.00000000000E+00 0. -1.
        -14    1    6    6    0    0  0.40439402209E+02  0.10690052771E+02 -0.18438273567E+02  0.45712059803E+02  0.00000000000E+00 0.  1.
</event>
<event>
12    1  0.8331241E-002  0.1752070E+03  0.7818608E-02  0.1173404E+00
         21   -1    0    0  501  502  0.00000000000E+00  0.00000000000E+00  0.11026339732E+03  0.11026339732E+03  0.00000000000E+00 0.  1.
         21   -1    0    0  502  503 -0.00000000000E+00 -0.00000000000E+00 -0.30046115343E+03  0.30046115343E+03  0.00000000000E+00 0.  1.
         -6    2    1    2    0  503  0.16068570840E+01 -0.31445103517E+02 -0.32047030625E+02  0.17469670589E+03  0.16882106016E+03 0.  0.
        -24    2    3    3    0    0 -0.24980403740E+02  0.27898205486E+02 -0.67092564313E+02  0.10067785564E+03  0.65056037300E+02 0.  0.
          6    2    1    2  501    0 -0.16068570840E+01  0.31445103517E+02 -0.15815072548E+03  0.23602784486E+03  0.17235462005E+03 0.  0.
         24    2    5    5    0    0  0.58659108711E+02 -0.13037481039E+02 -0.10161295217E+03  0.14206350709E+03  0.79031519345E+02 0.  0.
          5    1    5    5  501    0 -0.60265965795E+02  0.44482584556E+02 -0.56537773312E+02  0.93964337773E+02  0.47000000000E+01 0. -1.
        -13    1    6    6    0    0 -0.43109169081E+01  0.10733414688E+02 -0.63844083215E+02  0.64883412033E+02  0.00000000000E+00 0.  1.
         14    1    6    6    0    0  0.62970025619E+02 -0.23770895728E+02 -0.37768868955E+02  0.77180095052E+02  0.00000000000E+00 0. -1.
         -5    1    3    3    0  503  0.26587260824E+02 -0.59343309002E+02  0.35045533687E+02  0.74018850254E+02  0.47000000000E+01 0.  1.
         13    1    4    4    0    0 -0.40816033574E+02  0.39606044245E+01 -0.20234311367E+02  0.45728135110E+02  0.00000000000E+00 0. -1.
        -14    1    4    4    0    0  0.15835629834E+02  0.23937601061E+02 -0.46858252946E+02  0.54949720526E+02  0.00000000000E+00 0.  1.
</event>
<event>
12    1  0.8331241E-002  0.1806708E+03  0.7818608E-02  0.1167864E+00
         21   -1    0    0  503  502  0.00000000000E+00  0.00000000000E+00  0.17643905333E+03  0.17643905333E+03  0.00000000000E+00 0. -1.
         21   -1    0    0  501  503 -0.00000000000E+00 -0.00000000000E+00 -0.32141575328E+03  0.32141575328E+03  0.00000000000E+00 0. -1.
          6    2    1    2  501    0  0.54687510678E+02 -0.65361224123E+01 -0.23674727372E+03  0.29781070081E+03  0.17207119800E+03 0.  0.
         24    2    3    3    0    0  0.46451497370E+02  0.39215825609E+02 -0.63358642105E+02  0.11823681563E+03  0.79183359711E+02 0.  0.
         -6    2    1    2    0  502 -0.54687510678E+02  0.65361224123E+01  0.91770573771E+02  0.20004410581E+03  0.16900402758E+03 0.  0.
        -24    2    5    5    0    0 -0.75563408453E+02  0.35841601107E+02  0.10222470345E+02  0.11078718809E+03  0.71936451658E+02 0.  0.
          5    1    3    3  501    0  0.82360133082E+01 -0.45751948021E+02 -0.17338863162E+03  0.17957388517E+03  0.47000000000E+01 0. -1.
        -11    1    4    4    0    0  0.38427528950E+02 -0.11662771360E+02 -0.51114189988E+01  0.40482364323E+02  0.00000000000E+00 0.  1.
         12    1    4    4    0    0  0.80239684200E+01  0.50878596968E+02 -0.58247223107E+02  0.77754451309E+02  0.00000000000E+00 0. -1.
         -5    1    5    5    0  502  0.20875897775E+02 -0.29305478695E+02  0.81548103426E+02  0.89256917725E+02  0.47000000000E+01 0.  1.
         13    1    6    6    0    0 -0.57376710563E+02  0.16020600155E+02  0.39150379010E+02  0.71284631731E+02  0.00000000000E+00 0. -1.
        -14    1    6    6    0    0 -0.18186697891E+02  0.19821000952E+02 -0.28927908665E+02  0.39502556356E+02  0.00000000000E+00 0.  1.
</event>
<event>
12    1  0.8331241E-002  0.1838063E+03  0.7818608E-02  0.1164214E+00
         21   -1    0    0  501  502  0.00000000000E+00  0.00000000000E+00  0.19616001583E+03  0.19616001583E+03  0.00000000000E+00 0. -1.
         21   -1    0    0  502  503 -0.00000000000E+00 -0.00000000000E+00 -0.38687169649E+03  0.38687169649E+03  0.00000000000E+00 0. -1.
         -6    2    1    2    0  503  0.63945370422E+02 -0.12584444618E+02 -0.31256177055E+03  0.36250460068E+03  0.17166055593E+03 0.  0.
        -24    2    3    3    0    0  0.41425288913E+02 -0.55407185400E+02 -0.29051493500E+03  0.30912769409E+03  0.79843553558E+02 0.  0.
          6    2    1    2  501    0 -0.63945370422E+02  0.12584444618E+02  0.12185008989E+03  0.22052711163E+03  0.17186443469E+03 0.  0.
         24    2    5    5    0    0 -0.52344498049E+02  0.29580810387E+02  0.45167546408E+01  0.10131025775E+03  0.81414964428E+02 0.  0.
          5    1    5    5  501    0 -0.11600872373E+02 -0.16996365769E+02  0.11733333525E+03  0.11921685388E+03  0.47000000000E+01 0. -1.
        -13    1    6    6    0    0  0.47451275039E+01  0.41193719488E+02 -0.66354846567E+01  0.41993671153E+02  0.00000000000E+00 0.  1.
         14    1    6    6    0    0 -0.57089625553E+02 -0.11612909101E+02  0.11152239297E+02  0.59316586592E+02  0.00000000000E+00 0. -1.
         -5    1    3    3    0  503  0.22520081509E+02  0.42822740782E+02 -0.22046835553E+02  0.53376906590E+02  0.47000000000E+01 0.  1.
         13    1    4    4    0    0  0.32818614334E+02 -0.63964534917E+02 -0.13335175710E+03  0.15149658179E+03  0.00000000000E+00 0. -1.
        -14    1    4    4    0    0  0.86066745787E+01  0.85573495177E+01 -0.15716317790E+03  0.15763111230E+03  0.00000000000E+00 0.  1.
</event>
<event>
12    1  0.8331241E-002  0.1898483E+03  0.7818608E-02  0.1159735E+00
         21   -1    0    0  503  502  0.00000000000E+00  0.00000000000E+00  0.15986451209E+03  0.15986451209E+03  0.00000000000E+00 0.  1.
         21   -1    0    0  501  503 -0.00000000000E+00 -0.00000000000E+00 -0.27486281502E+03  0.27486281502E+03  0.00000000000E+00 0.  1.
          6    2    1    2  501    0 -0.51337769371E+02 -0.59675515645E+02 -0.15556552333E+03  0.24544451063E+03  0.17275891300E+03 0.  0.
         24    2    3    3    0    0 -0.95947033094E+01 -0.23154332349E+02 -0.16857460166E+03  0.18828152862E+03  0.80027221984E+02 0.  0.
         -6    2    1    2    0  502  0.51337769371E+02  0.59675515645E+02  0.40567220402E+02  0.18928281648E+03  0.16728882662E+03 0.  0.
        -24    2    5    5    0    0 -0.99468868340E+01 -0.17982060023E+02  0.37380699797E+02  0.90193200182E+02  0.79468242722E+02 0.  0.
          5    1    3    3  501    0 -0.41743066061E+02 -0.36521183296E+02  0.13009078326E+02  0.57162982011E+02  0.47000000000E+01 0. -1.
        -11    1    4    4    0    0 -0.10899051237E+02 -0.45942488637E+02 -0.55235206290E+02  0.72666564484E+02  0.00000000000E+00 0.  1.
         12    1    4    4    0    0  0.13043479275E+01  0.22788156288E+02 -0.11333939537E+03  0.11561496414E+03  0.00000000000E+00 0. -1.
         -5    1    5    5    0  502  0.61284656205E+02  0.77657575668E+02  0.31865206043E+01  0.99089616299E+02  0.47000000000E+01 0.  1.
         13    1    6    6    0    0 -0.17833651589E+01  0.29762946368E+02  0.13915319642E+01  0.29848781030E+02  0.00000000000E+00 0. -1.
        -14    1    6    6    0    0 -0.81635216751E+01 -0.47745006391E+02  0.35989167833E+02  0.60344419151E+02  0.00000000000E+00 0.  1.
</event>
<event>
12    1  0.8331241E-002  0.1895623E+03  0.7818608E-02  0.1159135E+00
         21   -1    0    0  501  502  0.00000000000E+00  0.00000000000E+00  0.18976369060E+03  0.18976369060E+03  0.00000000000E+00 0.  1.
         21   -1    0    0  502  503 -0.00000000000E+00 -0.00000000000E+00 -0.27043568388E+03  0.27043568388E+03  0.00000000000E+00 0.  1.
         -6    2    1    2    0  503 -0.22971325647E+02  0.71472501248E+02 -0.16717925887E+03  0.25183099696E+03  0.17272505955E+03 0.  0.
        -24    2    3    3    0    0  0.16384868101E+02  0.83220436786E+02 -0.17712220744E+03  0.20931186948E+03  0.72422906146E+02 0.  0.
          6    2    1    2  501    0  0.22971325647E+02 -0.71472501248E+02  0.86507265584E+02  0.20836837752E+03  0.17406284358E+03 0.  0.
         24    2    5    5    0    0  0.10263853473E+02  0.18914255463E+02  0.82439072170E+02  0.11688129736E+03  0.80012132238E+02 0.  0.
          5    1    5    5  501    0  0.12707472174E+02 -0.90386756711E+02  0.40681934137E+01  0.91487080155E+02  0.47000000000E+01 0. -1.
        -11    1    6    6    0    0  0.22621640060E+02 -0.26829200380E+02  0.29613067571E+02  0.45918170292E+02  0.00000000000E+00 0.  1.
         12    1    6    6    0    0 -0.12357786587E+02  0.45743455842E+02  0.52826004599E+02  0.70963127071E+02  0.00000000000E+00 0. -1.
         -5    1    3    3    0  503 -0.39356193748E+02 -0.11747935538E+02  0.99429485687E+01  0.42519127483E+02  0.47000000000E+01 0.  1.
         11    1    4    4    0    0 -0.10581339128E+01  0.37496690403E+01  0.70015311377E+01  0.80125591144E+01  0.00000000000E+00 0. -1.
        -12    1    4    4    0    0  0.17443002014E+02  0.79470767745E+02 -0.18412373858E+03  0.20129931036E+03  0.00000000000E+00 0.  1.
</event>
<event>
12    1  0.8331241E-002  0.2331911E+03  0.7818608E-02  0.1124698E+00
         21   -1    0    0  501  502  0.00000000000E+00  0.00000000000E+00  0.18820498539E+03  0.18820498539E+03  0.00000000000E+00 0. -1.
         21   -1    0    0  502  503 -0.00000000000E+00 -0.00000000000E+00 -0.35895000752E+03  0.35895000752E+03  0.00000000000E+00 0. -1.
         -6    2    1    2    0  503 -0.12540743577E+03  0.92968845815E+02 -0.20817701242E+03  0.31259517769E+03  0.17322772693E+03 0.  0.
        -24    2    3    3    0    0  0.51751346929E+01  0.55417706215E+02 -0.10045915011E+03  0.13913877494E+03  0.78547142979E+02 0.  0.
          6    2    1    2  501    0  0.12540743577E+03 -0.92968845815E+02  0.37431990297E+02  0.23455981522E+03  0.17101731427E+03 0.  0.
         24    2    5    5    0    0  0.10354961111E+03  0.65628771214E+01  0.96570961205E+01  0.12883440145E+03  0.75759159014E+02 0.  0.
          5    1    5    5  501    0  0.21857824660E+02 -0.99531722936E+02  0.27774894176E+02  0.10572541377E+03  0.47000000000E+01 0. -1.
        -11    1    6    6    0    0  0.24560329579E+02 -0.27954232280E+02 -0.13487237703E+02  0.39579722994E+02  0.00000000000E+00 0.  1.
         12    1    6    6    0    0  0.78989281534E+02  0.34517109402E+02  0.23144333823E+02  0.89254678459E+02  0.00000000000E+00 0. -1.
         -5    1    3    3    0  503 -0.13058257047E+03  0.37551139599E+02 -0.10771786232E+03  0.17345640276E+03  0.47000000000E+01 0.  1.
         13    1    4    4    0    0  0.11751520560E+01  0.26392050472E+02  0.73479206556E+01  0.27421036604E+02  0.00000000000E+00 0. -1.
        -14    1    4    4    0    0  0.39999826370E+01  0.29025655743E+02 -0.10780707076E+03  0.11171773833E+03  0.00000000000E+00 0.  1.
</event>
<event>
12    1  0.8331241E-002  0.1873782E+03  0.7818608E-02  0.1160948E+00
         21   -1    0    0  503  502  0.00000000000E+00  0.00000000000E+00  0.89631155182E+02  0.89631155182E+02  0.00000000000E+00 0.  1.
         21   -1    0    0  501  503 -0.00000000000E+00 -0.00000000000E+00 -0.62935731795E+03  0.62935731795E+03  0.00000000000E+00 0. -1.
          6    2    1    2  501    0  0.76603946315E+01 -0.74626963947E+02 -0.49138412560E+03  0.52589823376E+03  0.17170535223E+03 0.  0.
         24    2    3    3    0    0 -0.34651847711E+02 -0.85055516592E+02 -0.23002664124E+03  0.26089086557E+03  0.81954844924E+02 0.  0.
         -6    2    1    2    0  502 -0.76603946315E+01  0.74626963947E+02 -0.48342037167E+02  0.19309023937E+03  0.17122798425E+03 0.  0.
        -24    2    5    5    0    0 -0.45812642156E+02  0.93415275748E+01 -0.72419883198E+02  0.11359423404E+03  0.73979376903E+02 0.  0.
          5    1    3    3  501    0  0.42312242343E+02  0.10428552645E+02 -0.26135748436E+03  0.26500736818E+03  0.47000000000E+01 0. -1.
        -13    1    4    4    0    0 -0.61934130096E+01 -0.40645714699E+02 -0.22710704532E+02  0.46970294745E+02  0.00000000000E+00 0.  1.
         14    1    4    4    0    0 -0.28458434702E+02 -0.44409801893E+02 -0.20731593671E+03  0.21392057083E+03  0.00000000000E+00 0. -1.
         -5    1    5    5    0  502  0.38152247525E+02  0.65285436372E+02  0.24077846031E+02  0.79496005328E+02  0.47000000000E+01 0.  1.
         13    1    6    6    0    0  0.17180660327E+02  0.24101157412E+00 -0.36904895740E+02  0.40708776761E+02  0.00000000000E+00 0. -1.
        -14    1    6    6    0    0 -0.62993302483E+02  0.91005160006E+01 -0.35514987458E+02  0.72885457283E+02  0.00000000000E+00 0.  1.
</event>
<event>
12    1  0.8331241E-002  0.1823028E+03  0.7818608E-02  0.1166135E+00
         21   -1    0    0  503  502  0.00000000000E+00  0.00000000000E+00  0.10055677228E+04  0.10055677228E+04  0.00000000000E+00 0. -1.
         21   -1    0    0  501  503 -0.00000000000E+00 -0.00000000000E+00 -0.47928336086E+02  0.47928336086E+02  0.00000000000E+00 0. -1.
          6    2    1    2  501    0  0.34595184132E+02 -0.46419424058E+02  0.17930375375E+03  0.25409587592E+03  0.17047958341E+03 0.  0.
         24    2    3    3    0    0  0.61368880923E+01 -0.86935609815E+02  0.16455832344E+03  0.20222147340E+03  0.78858232566E+02 0.  0.
         -6    2    1    2    0  502 -0.34595184132E+02  0.46419424058E+02  0.77833563295E+03  0.79940018294E+03  0.17286614844E+03 0.  0.
        -24    2    5    5    0    0 -0.86398441427E+02  0.42154059748E+02  0.62024186626E+03  0.63291444822E+03  0.81480492605E+02 0.  0.
          5    1    3    3  501    0  0.28458296040E+02  0.40516185757E+02  0.14745430309E+02  0.51874402520E+02  0.47000000000E+01 0. -1.
        -11    1    4    4    0    0 -0.23941282741E+02 -0.54646879693E+02  0.13891273088E+03  0.15118271488E+03  0.00000000000E+00 0.  1.
         12    1    4    4    0    0  0.30078170833E+02 -0.32288730122E+02  0.25645592561E+02  0.51038758521E+02  0.00000000000E+00 0. -1.
         -5    1    5    5    0  502  0.51803257295E+02  0.42653643102E+01  0.15809376669E+03  0.16648573472E+03  0.47000000000E+01 0.  1.
         13    1    6    6    0    0 -0.48130586452E+02  0.59522220145E+01  0.11330284179E+03  0.12324575553E+03  0.00000000000E+00 0. -1.
        -14    1    6    6    0    0 -0.38267854975E+02  0.36201837733E+02  0.50693902446E+03  0.50966869269E+03  0.00000000000E+00 0.  1.
</event>
<event>
12    1  0.8331241E-002  0.2334630E+03  0.7818608E-02  0.1124559E+00
         21   -1    0    0  503  502  0.00000000000E+00  0.00000000000E+00  0.10911015875E+03  0.10911015875E+03  0.00000000000E+00 0.  1.
         21   -1    0    0  501  503 -0.00000000000E+00 -0.00000000000E+00 -0.82240662849E+03  0.82240662849E+03  0.00000000000E+00 0.  1.
          6    2    1    2  501    0 -0.43423068137E+02  0.15202134169E+03 -0.64943610644E+03  0.68947731706E+03  0.16916164817E+03 0.  0.
         24    2    3    3    0    0 -0.55935557156E+02  0.10835243816E+03 -0.26368609335E+03  0.30103337244E+03  0.78877741360E+02 0.  0.
         -6    2    1    2    0  502  0.43423068137E+02 -0.15202134169E+03 -0.63860363300E+02  0.24203947018E+03  0.17178157046E+03 0.  0.
        -24    2    5    5    0    0  0.72585101259E+02 -0.62533412298E+02 -0.79593282753E+02  0.14649823072E+03  0.77120790762E+02 0.  0.
          5    1    3    3  501    0  0.12512489019E+02  0.43668903530E+02 -0.38575001309E+03  0.38844394462E+03  0.47000000000E+01 0. -1.
        -13    1    4    4    0    0 -0.17557360755E+02  0.10336102063E+03 -0.17084779568E+03  0.20045131776E+03  0.00000000000E+00 0.  1.
         14    1    4    4    0    0 -0.38378196401E+02  0.49914175284E+01 -0.92838297670E+02  0.10058205467E+03  0.00000000000E+00 0. -1.
         -5    1    5    5    0  502 -0.29162033121E+02 -0.89487929393E+02  0.15732919453E+02  0.95541239459E+02  0.47000000000E+01 0.  1.
         11    1    6    6    0    0  0.10632367417E+02 -0.11224888658E+02  0.15535641343E+02  0.21918063651E+02  0.00000000000E+00 0. -1.
        -12    1    6    6    0    0  0.61952733842E+02 -0.51308523640E+02 -0.95128924095E+02  0.12458016707E+03  0.00000000000E+00 0.  1.
</event>
<event>
12    1  0.8331241E-002  0.2128943E+03  0.7818608E-02  0.1139458E+00
         21   -1    0    0  503  502  0.00000000000E+00  0.00000000000E+00  0.10687254649E+03  0.10687254649E+03  0.00000000000E+00 0.  1.
         21   -1    0    0  501  503 -0.00000000000E+00 -0.00000000000E+00 -0.76320077464E+03  0.76320077464E+03  0.00000000000E+00 0.  1.
          6    2    1    2  501    0  0.15442594865E+02 -0.12263443701E+03 -0.61850382813E+03  0.65384502771E+03  0.17230396389E+03 0.  0.
         24    2    3    3    0    0  0.71043876456E+02 -0.90300658480E+02 -0.32772830094E+03  0.35600367235E+03  0.78302836392E+02 0.  0.
         -6    2    1    2    0  502 -0.15442594865E+02  0.12263443701E+03 -0.37824400017E+02  0.21622829341E+03  0.17333871685E+03 0.  0.
        -24    2    5    5    0    0  0.26898749889E+01  0.25998861157E+02  0.40065397323E+02  0.90704863276E+02  0.77064647864E+02 0.  0.
          5    1    3    3  501    0 -0.55601281592E+02 -0.32333778531E+02 -0.29077552719E+03  0.29784135536E+03  0.47000000000E+01 0. -1.
        -11    1    4    4    0    0  0.45328650705E+01  0.48070050598E+01 -0.10176148719E+03  0.10197575417E+03  0.00000000000E+00 0.  1.
         12    1    4    4    0    0  0.66511011386E+02 -0.95107663540E+02 -0.22596681375E+03  0.25402791818E+03  0.00000000000E+00 0. -1.
         -5    1    5    5    0  502 -0.18132469854E+02  0.96635575855E+02 -0.77889797340E+02  0.12552343014E+03  0.47000000000E+01 0.  1.
         13    1    6    6    0    0  0.23148812187E+02  0.11836809108E+02 -0.15185585523E+02  0.30109459696E+02  0.00000000000E+00 0. -1.
        -14    1    6    6    0    0 -0.20458937198E+02  0.14162052049E+02  0.55250982846E+02  0.60595403580E+02  0.00000000000E+00 0.  1.
</event>
<event>
12    1  0.8331241E-002  0.2041602E+03  0.7818608E-02  0.1146447E+00
         21   -1    0    0  501  502  0.00000000000E+00  0.00000000000E+00  0.44645760926E+03  0.44645760926E+03  0.00000000000E+00 0. -1.
         21   -1    0    0  502  503 -0.00000000000E+00 -0.00000000000E+00 -0.94939354796E+02  0.94939354796E+02  0.00000000000E+00 0.  1.
         -6    2    1    2    0  503  0.27272524703E+02  0.10674255386E+03  0.21428717047E+03  0.29540148520E+03  0.17089553131E+03 0.  0.
        -24    2    3    3    0    0  0.61520708391E+02  0.12774621910E+03  0.17946808059E+03  0.24202966623E+03  0.79156006288E+02 0.  0.
          6    2    1    2  501    0 -0.27272524703E+02 -0.10674255386E+03  0.13723108399E+03  0.24599547886E+03  0.17188263960E+03 0.  0.
         24    2    5    5    0    0 -0.50418958161E+02 -0.13682619226E+02  0.26831281530E+02  0.99687190646E+02  0.80550188698E+02 0.  0.
          5    1    5    5  501    0  0.23146433458E+02 -0.93059934630E+02  0.11039980246E+03  0.14630828821E+03  0.47000000000E+01 0. -1.
        -11    1    6    6    0    0  0.10193150672E+01 -0.19130476589E+02 -0.21568792179E+02  0.28848343693E+02  0.00000000000E+00 0.  1.
         12    1    6    6    0    0 -0.51438273229E+02  0.54478573636E+01  0.48400073709E+02  0.70838846953E+02  0.00000000000E+00 0. -1.
         -5    1    3    3    0  503 -0.34248183688E+02 -0.21003665242E+02  0.34819089877E+02  0.53371818963E+02  0.47000000000E+01 0.  1.
         11    1    4    4    0    0 -0.21284842259E+01  0.81048300322E+02  0.11148685039E+03  0.13785019130E+03  0.00000000000E+00 0. -1.
        -12    1    4    4    0    0  0.63649192617E+02  0.46697918776E+02  0.67981230200E+02  0.10417947494E+03  0.00000000000E+00 0.  1.
</event>
<event>
12    1  0.8331241E-002  0.1891381E+03  0.7818608E-02  0.1159551E+00
         21   -1    0    0  501  502  0.00000000000E+00  0.00000000000E+00  0.29657481244E+03  0.29657481244E+03  0.00000000000E+00 0.  1.
         21   -1    0    0  502  503 -0.00000000000E+00 -0.00000000000E+00 -0.13258967091E+04  0.13258967091E+04  0.00000000000E+00 0.  1.
         -6    2    1    2    0  503  0.62688620999E+02 -0.51231302088E+02 -0.12882260724E+04  0.13018399512E+04  0.16942944052E+03 0.  0.
        -24    2    3    3    0    0  0.58235231356E+02 -0.62436615875E+02 -0.49199121570E+03  0.50549993034E+03  0.78645725099E+02 0.  0.
          6    2    1    2  501    0 -0.62688620999E+02  0.51231302088E+02  0.25890417577E+03  0.32063157036E+03  0.17093484772E+03 0.  0.
         24    2    5    5    0    0 -0.38034185862E+02  0.10231274084E+03  0.20305690608E+03  0.24089348606E+03  0.69878954516E+02 0.  0.
          5    1    5    5  501    0 -0.24654435137E+02 -0.51081438752E+02  0.55847269685E+02  0.79738084302E+02  0.47000000000E+01 0. -1.
        -13    1    6    6    0    0 -0.22996574175E+02  0.53730380246E+02  0.41926701697E+02  0.71928050859E+02  0.00000000000E+00 0.  1.
         14    1    6    6    0    0 -0.15037611687E+02  0.48582360594E+02  0.16113020439E+03  0.16896543520E+03  0.00000000000E+00 0. -1.
         -5    1    3    3    0  503  0.44533896434E+01  0.11205313787E+02 -0.79623485671E+03  0.79634002083E+03  0.47000000000E+01 0.  1.
         11    1    4    4    0    0  0.58149820327E+02 -0.14303640027E+02 -0.17707662216E+03  0.18692813014E+03  0.00000000000E+00 0. -1.
        -12    1    4    4    0    0  0.85411028242E-01 -0.48132975848E+02 -0.31491459354E+03  0.31857180020E+03  0.00000000000E+00 0.  1.
</event>
<event>
12    1  0.8331241E-002  0.1778501E+03  0.7818608E-02  0.1170262E+00
         21   -1    0    0  501  502  0.00000000000E+00  0.00000000000E+00  0.18292857300E+04  0.18292857300E+04  0.00000000000E+00 0. -1.
         21   -1    0    0  502  503 -0.00000000000E+00 -0.00000000000E+00 -0.25186487190E+02  0.25186487190E+02  0.00000000000E+00 0. -1.
         -6    2    1    2    0  503  0.34969089691E+02 -0.29772257157E+02  0.38079507533E+03  0.42028033975E+03  0.17181807254E+03 0.  0.
        -24    2    3    3    0    0  0.79142879707E+02 -0.88567127211E+00  0.26313003560E+03  0.29123418466E+03  0.96517122091E+02 0.  0.
          6    2    1    2  501    0 -0.34969089691E+02  0.29772257157E+02  0.14233041675E+04  0.14341918775E+04  0.17030080338E+03 0.  0.
         24    2    5    5    0    0 -0.17494409745E+02 -0.30173372416E+02  0.41860242990E+03  0.42754073905E+03  0.79665566277E+02 0.  0.
          5    1    5    5  501    0 -0.17474679946E+02  0.59945629572E+02  0.10047017376E+04  0.10066511384E+04  0.47000000000E+01 0. -1.
        -13    1    6    6    0    0  0.11959045977E+02 -0.99329972945E+01  0.12716806667E+02  0.20084829791E+02  0.00000000000E+00 0.  1.
         14    1    6    6    0    0 -0.29453455722E+02 -0.20240375121E+02  0.40588562323E+03  0.40745590926E+03  0.00000000000E+00 0. -1.
         -5    1    3    3    0  503 -0.44173790016E+02 -0.28886585885E+02  0.11766503973E+03  0.12904615509E+03  0.47000000000E+01 0.  1.
         13    1    4    4    0    0  0.33931240904E+02 -0.48141814422E+02  0.13801390415E+03  0.15005599336E+03  0.00000000000E+00 0. -1.
        -14    1    4    4    0    0  0.45211638803E+02  0.47256143150E+02  0.12511613145E+03  0.14117819129E+03  0.00000000000E+00 0.  1.
</event>
<event>
12    1  0.8331241E-002  0.1816745E+03  0.7818608E-02  0.1166588E+00
         21   -1    0    0  503  502  0.00000000000E+00  0.00000000000E+00  0.17784839594E+03  0.17784839594E+03  0.00000000000E+00 0.  1.
         21   -1    0    0  501  503 -0.00000000000E+00 -0.00000000000E+00 -0.30737143309E+03  0.30737143309E+03  0.00000000000E+00 0.  1.
          6    2    1    2  501    0 -0.19084170283E+02  0.55351019601E+02 -0.21834735679E+03  0.28299371940E+03  0.17024081790E+03 0.  0.
         24    2    3    3    0    0  0.21786365971E+00 -0.25454796054E+01 -0.20506874810E+03  0.22035998581E+03  0.80615165875E+02 0.  0.
         -6    2    1    2    0  502  0.19084170283E+02 -0.55351019601E+02  0.88824319639E+02  0.20222610962E+03  0.17198168137E+03 0.  0.
        -24    2    5    5    0    0  0.72248137475E+02 -0.62758454780E+02  0.79809703307E+02  0.14759433488E+03  0.79095397672E+02 0.  0.
          5    1    3    3  501    0 -0.19302033943E+02  0.57896499207E+02 -0.13278608689E+02  0.62633733590E+02  0.47000000000E+01 0. -1.
        -11    1    4    4    0    0 -0.17172498773E+02  0.29270494669E+02 -0.15420843448E+03  0.15789837819E+03  0.00000000000E+00 0.  1.
         12    1    4    4    0    0  0.17390362432E+02 -0.31815974274E+02 -0.50860313622E+02  0.62461607619E+02  0.00000000000E+00 0. -1.
         -5    1    5    5    0  502 -0.53163967192E+02  0.74074351791E+01  0.90146163321E+01  0.54631774739E+02  0.47000000000E+01 0.  1.
         13    1    6    6    0    0 -0.63647656340E+01 -0.73350685954E+01  0.43839976209E+02  0.44902750326E+02  0.00000000000E+00 0. -1.
        -14    1    6    6    0    0  0.78612903109E+02 -0.55423386185E+02  0.35969727099E+02  0.10269158456E+03  0.00000000000E+00 0.  1.
</event>
<event>
12    1  0.8331241E-002  0.1993341E+03  0.7818608E-02  0.1150563E+00
         21   -1    0    0  503  502  0.00000000000E+00  0.00000000000E+00  0.11331994402E+03  0.11331994402E+03  0.00000000000E+00 0. -1.
         21   -1    0    0  501  503 -0.00000000000E+00 -0.00000000000E+00 -0.35612049414E+03  0.35612049414E+03  0.00000000000E+00 0.  1.
          6    2    1    2  501    0 -0.92278500923E+02 -0.52808246155E+01 -0.15614622944E+03  0.25321082143E+03  0.17660936068E+03 0.  0.
         24    2    3    3    0    0  0.21550650017E+02  0.11136238055E+02 -0.48787078689E+02  0.95811098428E+02  0.78810793809E+02 0.  0.
         -6    2    1    2    0  502  0.92278500923E+02  0.52808246155E+01 -0.86654320675E+02  0.21622961673E+03  0.17522290666E+03 0.  0.
        -24    2    5    5    0    0  0.38056808051E+02 -0.58921091837E+02 -0.16503707999E+02  0.10666193667E+03  0.78640833256E+02 0.  0.
          5    1    3    3  501    0 -0.11382915094E+03 -0.16417062670E+02 -0.10735915075E+03  0.15739972300E+03  0.47000000000E+01 0. -1.
        -11    1    4    4    0    0 -0.18118694199E+02  0.13908984666E+02 -0.51105087102E+02  0.55977467445E+02  0.00000000000E+00 0.  1.
         12    1    4    4    0    0  0.39669344216E+02 -0.27727466117E+01  0.23180084127E+01  0.39833630983E+02  0.00000000000E+00 0. -1.
         -5    1    5    5    0  502  0.54221692872E+02  0.64201916453E+02 -0.70150612675E+02  0.10956768006E+03  0.47000000000E+01 0.  1.
         11    1    6    6    0    0  0.22692101239E+02 -0.49735476389E+02  0.26005066380E+02  0.60537695263E+02  0.00000000000E+00 0. -1.
        -12    1    6    6    0    0  0.15364706812E+02 -0.91856154479E+01 -0.42508774379E+02  0.46124241412E+02  0.00000000000E+00 0.  1.
</event>
<event>
12    1  0.8331241E-002  0.2167411E+03  0.7818608E-02  0.1136563E+00
         21   -1    0    0  501  502  0.00000000000E+00  0.00000000000E+00  0.26065855865E+02  0.26065855865E+02  0.00000000000E+00 0.  1.
         21   -1    0    0  502  503 -0.00000000000E+00 -0.00000000000E+00 -0.39292793802E+04  0.39292793802E+04  0.00000000000E+00 0.  1.
         -6    2    1    2    0  503 -0.44130134953E+02 -0.12491270662E+03 -0.49069375559E+03  0.53594939870E+03  0.17003159443E+03 0.  0.
        -24    2    3    3    0    0  0.21956195744E+02 -0.60203600621E+02 -0.36957126116E+03  0.38347835174E+03  0.79788352025E+02 0.  0.
          6    2    1    2  501    0  0.44130134953E+02  0.12491270662E+03 -0.34125197688E+04  0.34193958374E+04  0.17154027931E+03 0.  0.
         24    2    5    5    0    0  0.78628132713E+02  0.38666815183E+02 -0.20156299173E+04  0.20194130472E+04  0.87106750061E+02 0.  0.
          5    1    5    5  501    0 -0.34497997760E+02  0.86245891439E+02 -0.13968898515E+04  0.13999827902E+04  0.47000000000E+01 0. -1.
        -13    1    6    6    0    0 -0.27094367192E+00  0.44372534209E+02 -0.75809523148E+03  0.75939276741E+03  0.00000000000E+00 0.  1.
         14    1    6    6    0    0  0.78899076385E+02 -0.57057190257E+01 -0.12575346858E+04  0.12600202798E+04  0.00000000000E+00 0. -1.
         -5    1    3    3    0  503 -0.66086330696E+02 -0.64709106001E+02 -0.12112249444E+03  0.15247104697E+03  0.47000000000E+01 0.  1.
         11    1    4    4    0    0  0.34126040048E+01 -0.54566805737E+02 -0.10668463353E+03  0.11987824317E+03  0.00000000000E+00 0. -1.
        -12    1    4    4    0    0  0.18543591739E+02 -0.56367948837E+01 -0.26288662762E+03  0.26360010856E+03  0.00000000000E+00 0.  1.
</event>
<event>
12    1  0.8331241E-002  0.1733970E+03  0.7818608E-02  0.1174588E+00
         21   -1    0    0  501  502  0.00000000000E+00  0.00000000000E+00  0.13680667553E+03  0.13680667553E+03  0.00000000000E+00 0.  1.
         21   -1    0    0  502  503 -0.00000000000E+00 -0.00000000000E+00 -0.42860968805E+03  0.42860968805E+03  0.00000000000E+00 0.  1.
         -6    2    1    2    0  503 -0.20395557142E+02  0.10621077849E+02 -0.34399432888E+03  0.38522540426E+03  0.17186543498E+03 0.  0.
        -24    2    3    3    0    0  0.49419291989E+02 -0.58039479502E+01 -0.14535387350E+03  0.17398143359E+03  0.81644586222E+02 0.  0.
          6    2    1    2  501    0  0.20395557142E+02 -0.10621077849E+02  0.52191316360E+02  0.18019095931E+03  0.17092706711E+03 0.  0.
         24    2    5    5    0    0  0.14086243949E+02 -0.57117051034E+02  0.78122924910E+02  0.12637440724E+03  0.80040737260E+02 0.  0.
          5    1    5    5  501    0  0.63093131928E+01  0.46495973184E+02 -0.25931608550E+02  0.53816552076E+02  0.47000000000E+01 0. -1.
        -13    1    6    6    0    0 -0.76056652361E+01 -0.56470807728E+01  0.69159823563E+02  0.69805564680E+02  0.00000000000E+00 0.  1.
         14    1    6    6    0    0  0.21691909185E+02 -0.51469970261E+02  0.89631013464E+01  0.56568842559E+02  0.00000000000E+00 0. -1.
         -5    1    3    3    0  503 -0.69814849131E+02  0.16425025799E+02 -0.19864045538E+03  0.21124397067E+03  0.47000000000E+01 0.  1.
         13    1    4    4    0    0 -0.22645568093E+02 -0.93630092532E+00 -0.26181456794E+02  0.34628992095E+02  0.00000000000E+00 0. -1.
        -14    1    4    4    0    0  0.72064860083E+02 -0.48676470249E+01 -0.11917241671E+03  0.13935244150E+03  0.00000000000E+00 0.  1.
</event>
<event>
12    1  0.8331241E-002  0.1918934E+03  0.7818608E-02  0.1157181E+00
         21   -1    0    0  503  502  0.00000000000E+00  0.00000000000E+00  0.49366122445E+03  0.49366122445E+03  0.00000000000E+00 0.  1.
         21   -1    0    0  501  503 -0.00000000000E+00 -0.00000000000E+00 -0.10048996660E+03  0.10048996660E+03  0.00000000000E+00 0.  1.
          6    2    1    2  501    0 -0.80933775964E+02 -0.15153893366E+02  0.44389766745E+02  0.19696076293E+03  0.17332966903E+03 0.  0.
         24    2    3    3    0    0 -0.12278912027E+03 -0.24000189952E+02  0.37736769626E+02  0.15341217879E+03  0.80362028629E+02 0.  0.
         -6    2    1    2    0  502  0.80933775964E+02  0.15153893366E+02  0.34878149111E+03  0.39719042812E+03  0.17126526523E+03 0.  0.
        -24    2    5    5    0    0  0.20956077920E+02  0.67230147490E+02  0.24328728813E+03  0.26505270690E+03  0.78135670069E+02 0.  0.
          5    1    3    3  501    0  0.41855344301E+02  0.88462965864E+01  0.66529971189E+01  0.43548584139E+02  0.47000000000E+01 0. -1.
        -11    1    4    4    0    0 -0.38608128921E+02 -0.27873172949E+02 -0.19591222354E+02  0.51490944663E+02  0.00000000000E+00 0.  1.
         12    1    4    4    0    0 -0.84180991345E+02  0.38729829968E+01  0.57327991980E+02  0.10192123412E+03  0.00000000000E+00 0. -1.
         -5    1    5    5    0  502  0.59977698044E+02 -0.52076254124E+02  0.10549420298E+03  0.13213772122E+03  0.47000000000E+01 0.  1.
         13    1    6    6    0    0 -0.44051699764E+00  0.35749403943E+02  0.25376987225E+02  0.43842963154E+02  0.00000000000E+00 0. -1.
        -14    1    6    6    0    0  0.21396594918E+02  0.31480743546E+02  0.21791030091E+03  0.22120974375E+03  0.00000000000E+00 0.  1.
</event>
<event>
12    1  0.8331241E-002  0.2331191E+03  0.7818608E-02  0.1125366E+00
         21   -1    0    0  501  502  0.00000000000E+00  0.00000000000E+00  0.47766749087E+03  0.47766749087E+03  0.00000000000E+00 0.  1.
         21   -1    0    0  502  503 -0.00000000000E+00 -0.00000000000E+00 -0.11992270897E+03  0.11992270897E+03  0.00000000000E+00 0.  1.
         -6    2    1    2    0  503 -0.55500815877E+02  0.14218339470E+03  0.10046613464E+03  0.25384635852E+03  0.17620462886E+03 0.  0.
        -24    2    3    3    0    0 -0.83035901715E+01  0.14268842204E+03  0.11663870843E+03  0.20373173680E+03  0.86447075602E+02 0.  0.
          6    2    1    2  501    0  0.55500815877E+02 -0.14218339470E+03  0.25727864726E+03  0.34374384133E+03  0.16932533131E+03 0.  0.
         24    2    5    5    0    0  0.46606345235E+02 -0.14392667451E+02  0.16387276248E+03  0.18513636707E+03  0.71006280251E+02 0.  0.
          5    1    5    5  501    0  0.88944706411E+01 -0.12779072725E+03  0.93405884773E+02  0.15860747426E+03  0.47000000000E+01 0. -1.
        -13    1    6    6    0    0  0.63095285146E+02 -0.17198892207E+02  0.10299951079E+03  0.12200703309E+03  0.00000000000E+00 0.  1.
         14    1    6    6    0    0 -0.16488939910E+02  0.28062247569E+01  0.60873251694E+02  0.63129333978E+02  0.00000000000E+00 0. -1.
         -5    1    3    3    0  503 -0.47197225705E+02 -0.50502734191E+00 -0.16172573790E+02  0.50114621717E+02  0.47000000000E+01 0.  1.
         13    1    4    4    0    0 -0.62614997831E+01  0.58988334487E+02  0.10306032556E+03  0.11891282811E+03  0.00000000000E+00 0. -1.
        -14    1    4    4    0    0 -0.20420903884E+01  0.83700087558E+02  0.13578382877E+02  0.84818908694E+02  0.00000000000E+00 0.  1.
</event>
<event>
12    1  0.8331241E-002  0.2319246E+03  0.7818608E-02  0.1125644E+00
         21   -1    0    0  501  502  0.00000000000E+00  0.00000000000E+00  0.36676486655E+03  0.36676486655E+03  0.00000000000E+00 0.  1.
         21   -1    0    0  502  503 -0.00000000000E+00 -0.00000000000E+00 -0.14690489227E+03  0.14690489227E+03  0.00000000000E+00 0.  1.
         -6    2    1    2    0  503  0.60192599328E+02 -0.14059816743E+03  0.13648217311E+03  0.26910294184E+03  0.17435026823E+03 0.  0.
        -24    2    3    3    0    0  0.78205365328E+02 -0.12116493686E+03  0.16251266552E+03  0.23166249948E+03  0.80374909758E+02 0.  0.
          6    2    1    2  501    0 -0.60192599328E+02  0.14059816743E+03  0.83377801168E+02  0.24456681698E+03  0.17166850772E+03 0.  0.
         24    2    5    5    0    0 -0.10555084487E+03  0.10509544337E+03  0.36783479278E+02  0.17033114707E+03  0.73984067500E+02 0.  0.
          5    1    5    5  501    0  0.45358245545E+02  0.35502724058E+02  0.46594321890E+02  0.74235669909E+02  0.47000000000E+01 0. -1.
        -11    1    6    6    0    0 -0.67571274883E+02  0.16166784389E+02  0.18760021688E+02  0.71966523610E+02  0.00000000000E+00 0.  1.
         12    1    6    6    0    0 -0.37979569990E+02  0.88928658982E+02  0.18023457590E+02  0.98364623460E+02  0.00000000000E+00 0. -1.
         -5    1    3    3    0  503 -0.18012766000E+02 -0.19433230566E+02 -0.26030492410E+02  0.37440442363E+02  0.47000000000E+01 0.  1.
         11    1    4    4    0    0  0.46486541303E+01 -0.62658073288E+02  0.10226095224E+03  0.12002060859E+03  0.00000000000E+00 0. -1.
        -12    1    4    4    0    0  0.73556711198E+02 -0.58506863574E+02  0.60251713282E+02  0.11164189089E+03  0.00000000000E+00 0.  1.
</event>
<event>
12    1  0.8331241E-002  0.2065484E+03  0.7818608E-02  0.1146184E+00
         21   -1    0    0  501  502  0.00000000000E+00  0.00000000000E+00  0.44590894059E+02  0.44590894059E+02  0.00000000000E+00 0.  1.
         21   -1    0    0  502  503 -0.00000000000E+00 -0.00000000000E+00 -0.11794146461E+04  0.11794146461E+04  0.00000000000E+00 0.  1.
         -6    2    1    2    0  503  0.75386996379E+02  0.62128677192E+02 -0.86651410834E+03  0.89079119201E+03  0.18198647222E+03 0.  0.
        -24    2    3    3    0    0 -0.95698083109E+00  0.40608132308E+02 -0.18005198187E+03  0.19974569584E+03  0.76352410634E+02 0.  0.
          6    2    1    2  501    0 -0.75386996379E+02 -0.62128677192E+02 -0.26830964365E+03  0.33321434809E+03  0.17175146330E+03 0.  0.
         24    2    5    5    0    0 -0.64526350789E+02 -0.51358618187E+02 -0.28666202975E+03  0.30886588061E+03  0.80135231317E+02 0.  0.
          5    1    5    5  501    0 -0.10860645590E+02 -0.10770059005E+02  0.18352386092E+02  0.24348467485E+02  0.47000000000E+01 0. -1.
        -11    1    6    6    0    0 -0.85440705587E+01 -0.94893429960E+00  0.33522126262E+01  0.92270768669E+01  0.00000000000E+00 0.  1.
         12    1    6    6    0    0 -0.55982280230E+02 -0.50409683887E+02 -0.29001424237E+03  0.29963880374E+03  0.00000000000E+00 0. -1.
         -5    1    3    3    0  503  0.76343977210E+02  0.21520544884E+02 -0.68646212647E+03  0.69104549618E+03  0.47000000000E+01 0.  1.
         11    1    4    4    0    0 -0.20357756853E+02 -0.11006266576E+02 -0.99317542535E+02  0.10197818602E+03  0.00000000000E+00 0. -1.
        -12    1    4    4    0    0  0.19400776022E+02  0.51614398884E+02 -0.80734439334E+02  0.97767509823E+02  0.00000000000E+00 0.  1.
</event>
<event>
12    1  0.8331241E-002  0.2200035E+03  0.7818608E-02  0.1134607E+00
         21   -1    0    0  501  502  0.00000000000E+00  0.00000000000E+00  0.22496468247E+03  0.22496468247E+03  0.00000000000E+00 0.  1.
         21   -1    0    0  502  503 -0.00000000000E+00 -0.00000000000E+00 -0.35483582200E+03  0.35483582200E+03  0.00000000000E+00 0.  1.
         -6    2    1    2    0  503 -0.17371674207E+02 -0.12941528636E+03 -0.24959390407E+03  0.33271407835E+03  0.17706340551E+03 0.  0.
        -24    2    3    3    0    0 -0.44783954660E+02 -0.13472148957E+03 -0.12449226188E+03  0.20444833939E+03  0.78392077811E+02 0.  0.
          6    2    1    2  501    0  0.17371674207E+02  0.12941528636E+03  0.11972276455E+03  0.24708642612E+03  0.17224421677E+03 0.  0.
         24    2    5    5    0    0 -0.55130486771E+02  0.57819717412E+02  0.77568865972E+02  0.13671645735E+03  0.79321941793E+02 0.  0.
          5    1    5    5  501    0  0.72502160978E+02  0.71595568951E+02  0.42153898574E+02  0.11036996876E+03  0.47000000000E+01 0. -1.
        -13    1    6    6    0    0 -0.35548956395E+02  0.53839435757E+02  0.88130856097E+01  0.65115924484E+02  0.00000000000E+00 0.  1.
         14    1    6    6    0    0 -0.19581530375E+02  0.39802816548E+01  0.68755780362E+02  0.71600532869E+02  0.00000000000E+00 0. -1.
         -5    1    3    3    0  503  0.27412280452E+02  0.53062032065E+01 -0.12510164219E+03  0.12826573896E+03  0.47000000000E+01 0.  1.
         11    1    4    4    0    0 -0.56119417306E+02 -0.55061227245E+02 -0.41686334836E+02  0.88988079295E+02  0.00000000000E+00 0. -1.
        -12    1    4    4    0    0  0.11335462647E+02 -0.79660262324E+02 -0.82805927045E+02  0.11546026009E+03  0.00000000000E+00 0.  1.
</event>
<event>
12    1  0.8331241E-002  0.2913762E+03  0.7818608E-02  0.1090946E+00
         21   -1    0    0  501  502  0.00000000000E+00  0.00000000000E+00  0.40037519125E+03  0.40037519125E+03  0.00000000000E+00 0. -1.
         21   -1    0    0  502  503 -0.00000000000E+00 -0.00000000000E+00 -0.31368939464E+03  0.31368939464E+03  0.00000000000E+00 0.  1.
         -6    2    1    2    0  503  0.13919900979E+03 -0.19049317994E+03 -0.16641826916E+03  0.33555193985E+03  0.17098552014E+03 0.  0.
        -24    2    3    3    0    0  0.16704942393E+02 -0.10479269337E+03 -0.12181043787E+03  0.17947081172E+03  0.78175608738E+02 0.  0.
          6    2    1    2  501    0 -0.13919900979E+03  0.19049317994E+03  0.25310406577E+03  0.37851264603E+03  0.15344751275E+03 0.  0.
         24    2    5    5    0    0 -0.66621814002E+02  0.10256394706E+03  0.21130222226E+03  0.25698699663E+03  0.80223799252E+02 0.  0.
          5    1    5    5  501    0 -0.72577195790E+02  0.87929232876E+02  0.41801843512E+02  0.12152564941E+03  0.47000000000E+01 0. -1.
        -13    1    6    6    0    0 -0.34716463043E+01  0.69159105167E+02  0.68981806863E+02  0.97742129267E+02  0.00000000000E+00 0.  1.
         14    1    6    6    0    0 -0.63150167698E+02  0.33404841894E+02  0.14232041539E+03  0.15924486736E+03  0.00000000000E+00 0. -1.
         -5    1    3    3    0  503  0.12249406740E+03 -0.85700486571E+02 -0.44607831284E+02  0.15608112813E+03  0.47000000000E+01 0.  1.
         13    1    4    4    0    0 -0.79650367959E+01 -0.21153393611E+02  0.72276769558E+01  0.23730722421E+02  0.00000000000E+00 0. -1.
        -14    1    4    4    0    0  0.24669979189E+02 -0.83639299756E+02 -0.12903811483E+03  0.15574008930E+03  0.00000000000E+00 0.  1.
</event>
<event>
12    1  0.8331241E-002  0.1870898E+03  0.7818608E-02  0.1161668E+00
         21   -1    0    0  501  502  0.00000000000E+00  0.00000000000E+00  0.61758460812E+03  0.61758460812E+03  0.00000000000E+00 0. -1.
         21   -1    0    0  502  503 -0.00000000000E+00 -0.00000000000E+00 -0.10321591910E+03  0.10321591910E+03  0.00000000000E+00 0. -1.
         -6    2    1    2    0  503 -0.51100027660E+01  0.71126927362E+02  0.14207966359E+02  0.18762854503E+03  0.17296662302E+03 0.  0.
        -24    2    3    3    0    0  0.63425901502E+02  0.29861472385E+02 -0.16647877232E+01  0.10593373326E+03  0.79401711631E+02 0.  0.
          6    2    1    2  501    0  0.51100027660E+01 -0.71126927362E+02  0.50016072266E+03  0.53317198218E+03  0.17037154155E+03 0.  0.
         24    2    5    5    0    0  0.63730763177E+02 -0.36944502708E+02  0.38012505081E+03  0.39520283990E+03  0.79143691827E+02 0.  0.
          5    1    5    5  501    0 -0.58620760411E+02 -0.34182424654E+02  0.12003567185E+03  0.13796914229E+03  0.47000000000E+01 0. -1.
        -11    1    6    6    0    0  0.13929168248E+01 -0.32200923311E+02  0.23478563583E+03  0.23698762515E+03  0.00000000000E+00 0.  1.
         12    1    6    6    0    0  0.62337846352E+02 -0.47435793978E+01  0.14533941497E+03  0.15821521475E+03  0.00000000000E+00 0. -1.
         -5    1    3    3    0  503 -0.68535904268E+02  0.41265454977E+02  0.15872754083E+02  0.81694811772E+02  0.47000000000E+01 0.  1.
         13    1    4    4    0    0 -0.10857653901E+02 -0.95855735192E+01  0.14267118844E+02  0.20330335660E+02  0.00000000000E+00 0. -1.
        -14    1    4    4    0    0  0.74283555402E+02  0.39447045905E+02 -0.15931906567E+02  0.85603397600E+02  0.00000000000E+00 0.  1.
</event>
<event>
12    1  0.8331241E-002  0.2182012E+03  0.7818608E-02  0.1135535E+00
         21   -1    0    0  501  502  0.00000000000E+00  0.00000000000E+00  0.24410176382E+03  0.24410176382E+03  0.00000000000E+00 0. -1.
         21   -1    0    0  502  503 -0.00000000000E+00 -0.00000000000E+00 -0.49844642428E+03  0.49844642428E+03  0.00000000000E+00 0.  1.
         -6    2    1    2    0  503  0.75759425377E+02  0.10718007962E+03 -0.41769956686E+03  0.47125864078E+03  0.17431212910E+03 0.  0.
        -24    2    3    3    0    0  0.91927614364E+02  0.78431926136E+02 -0.17795839959E+03  0.22921363681E+03  0.79167202760E+02 0.  0.
          6    2    1    2  501    0 -0.75759425377E+02 -0.10718007962E+03  0.16335490640E+03  0.27128954732E+03  0.17229664257E+03 0.  0.
         24    2    5    5    0    0 -0.83667902547E+02 -0.43216095818E+02  0.35056895799E+02  0.12763578037E+03  0.78701700318E+02 0.  0.
          5    1    5    5  501    0  0.79084771700E+01 -0.63963983805E+02  0.12829801060E+03  0.14365376695E+03  0.47000000000E+01 0. -1.
        -13    1    6    6    0    0 -0.97361063144E+01 -0.64323384500E+01 -0.23612782585E+02  0.26338759376E+02  0.00000000000E+00 0.  1.
         14    1    6    6    0    0 -0.73931796232E+02 -0.36783757368E+02  0.58669678384E+02  0.10129702099E+03  0.00000000000E+00 0. -1.
         -5    1    3    3    0  503 -0.16168188988E+02  0.28748153488E+02 -0.23974116727E+03  0.24204500397E+03  0.47000000000E+01 0.  1.
         11    1    4    4    0    0  0.13982014142E+02  0.63330260396E+02 -0.86227388623E+02  0.10789523229E+03  0.00000000000E+00 0. -1.
        -12    1    4    4    0    0  0.77945600222E+02  0.15101665740E+02 -0.91731010968E+02  0.12131840452E+03  0.00000000000E+00 0.  1.
</event>
<event>
12    1  0.8331241E-002  0.1983336E+03  0.7818608E-02  0.1154169E+00
         21   -1    0    0  501  502  0.00000000000E+00  0.00000000000E+00  0.29552997307E+03  0.29552997307E+03  0.00000000000E+00 0.  1.
         21   -1    0    0  502  503 -0.00000000000E+00 -0.00000000000E+00 -0.12414487067E+03  0.12414487067E+03  0.00000000000E+00 0. -1.
         -6    2    1    2    0  503  0.62136315172E+02 -0.34621726230E+02  0.85930783034E+02  0.21614885812E+03  0.18513952523E+03 0.  0.
        -24    2    3    3    0    0  0.62585788748E+02 -0.11133970490E+02 -0.24993560964E+02  0.10266680321E+03  0.76647557943E+02 0.  0.
          6    2    1    2  501    0 -0.62136315172E+02  0.34621726230E+02  0.85454319364E+02  0.20352598562E+03  0.17047228671E+03 0.  0.
         24    2    5    5    0    0 -0.10110219040E+03  0.23043478465E+02  0.94046416322E+02  0.16171319591E+03  0.80955385893E+02 0.  0.
          5    1    5    5  501    0  0.38965875226E+02  0.11578247765E+02 -0.85920969580E+01  0.41812789713E+02  0.47000000000E+01 0. -1.
        -13    1    6    6    0    0  0.10511563342E+02 -0.80166927611E+01  0.12546186847E+01  0.13279096157E+02  0.00000000000E+00 0.  1.
         14    1    6    6    0    0 -0.11161375374E+03  0.31060171226E+02  0.92791797637E+02  0.14843409975E+03  0.00000000000E+00 0. -1.
         -5    1    3    3    0  503 -0.44947357623E+00 -0.23487755740E+02  0.11092434400E+03  0.11348205491E+03  0.47000000000E+01 0.  1.
         11    1    4    4    0    0  0.75315569552E+02  0.33171388353E+01 -0.60143895433E+01  0.75628111893E+02  0.00000000000E+00 0. -1.
        -12    1    4    4    0    0 -0.12729780804E+02 -0.14451109325E+02 -0.18979171421E+02  0.27038691312E+02  0.00000000000E+00 0.  1.
</event>
<event>
12    1  0.8331241E-002  0.1932733E+03  0.7818608E-02  0.1155730E+00
         21   -1    0    0  501  502  0.00000000000E+00  0.00000000000E+00  0.10749047999E+03  0.10749047999E+03  0.00000000000E+00 0. -1.
         21   -1    0    0  502  503 -0.00000000000E+00 -0.00000000000E+00 -0.46338196508E+03  0.46338196508E+03  0.00000000000E+00 0. -1.
         -6    2    1    2    0  503  0.73414336853E+02 -0.45151368665E+02 -0.32132296766E+03  0.37453209114E+03  0.17203931760E+03 0.  0.
        -24    2    3    3    0    0 -0.98643822198E+01 -0.36938303873E+02 -0.79365870270E+02  0.11846935183E+03  0.79210489397E+02 0.  0.
          6    2    1    2  501    0 -0.73414336853E+02  0.45151368665E+02 -0.34568517437E+02  0.19634035393E+03  0.17299202651E+03 0.  0.
         24    2    5    5    0    0 -0.66303536053E+02  0.38379114958E+02  0.43564531897E+02  0.11745252023E+03  0.77640908739E+02 0.  0.
          5    1    5    5  501    0 -0.71108007998E+01  0.67722537074E+01 -0.78133049333E+02  0.78887833704E+02  0.47000000000E+01 0. -1.
        -13    1    6    6    0    0 -0.15159119017E+02 -0.18688190762E+02 -0.76873656186E+01  0.25261491513E+02  0.00000000000E+00 0.  1.
         14    1    6    6    0    0 -0.51144417036E+02  0.57067305720E+02  0.51251897515E+02  0.92191028712E+02  0.00000000000E+00 0. -1.
         -5    1    3    3    0  503  0.83278719073E+02 -0.82130647925E+01 -0.24195709739E+03  0.25606273931E+03  0.47000000000E+01 0.  1.
         11    1    4    4    0    0 -0.85313066610E+01 -0.54270028188E+02 -0.84100174002E+02  0.10045326486E+03  0.00000000000E+00 0. -1.
        -12    1    4    4    0    0 -0.13330755588E+01  0.17331724315E+02  0.47343037325E+01  0.18016086978E+02  0.00000000000E+00 0.  1.
</event>
<event>
12    1  0.8331241E-002  0.1875907E+03  0.7818608E-02  0.1160750E+00
         21   -1    0    0  501  502  0.00000000000E+00  0.00000000000E+00  0.32258867759E+03  0.32258867759E+03  0.00000000000E+00 0.  1.
         21   -1    0    0  502  503 -0.00000000000E+00 -0.00000000000E+00 -0.13144217498E+03  0.13144217498E+03  0.00000000000E+00 0.  1.
         -6    2    1    2    0  503  0.49324722398E+02  0.57860361375E+02  0.15239000742E+01  0.18759691905E+03  0.17149207593E+03 0.  0.
        -24    2    3    3    0    0  0.10583968051E+02 -0.28210068069E+02 -0.21531338043E+02  0.90321028524E+02  0.82379981522E+02 0.  0.
          6    2    1    2  501    0 -0.49324722398E+02 -0.57860361375E+02  0.18962260253E+03  0.26643393353E+03  0.17102502708E+03 0.  0.
         24    2    5    5    0    0 -0.51671151518E+02 -0.61527978082E+02  0.45328648550E+02  0.12199781513E+03  0.79832202347E+02 0.  0.
          5    1    5    5  501    0  0.23464291194E+01  0.36676167069E+01  0.14429395398E+03  0.14443611839E+03  0.47000000000E+01 0. -1.
        -13    1    6    6    0    0 -0.74122153403E+01 -0.36958202881E+01  0.48404849771E+02  0.49108344558E+02  0.00000000000E+00 0.  1.
         14    1    6    6    0    0 -0.44258936177E+02 -0.57832157794E+02 -0.30762012212E+01  0.72889470574E+02  0.00000000000E+00 0. -1.
         -5    1    3    3    0  503  0.38740754347E+02  0.86070429444E+02  0.23055238118E+02  0.97275890521E+02  0.47000000000E+01 0.  1.
         13    1    4    4    0    0 -0.20090951750E+02  0.16957166146E+02  0.89718663440E+01  0.27779240660E+02  0.00000000000E+00 0. -1.
        -14    1    4    4    0    0  0.30674919801E+02 -0.45167234215E+02 -0.30503204387E+02  0.62541787865E+02  0.00000000000E+00 0.  1.
</event>
<event>
12    1  0.8331241E-002  0.2103128E+03  0.7818608E-02  0.1144850E+00
         21   -1    0    0  503  502  0.00000000000E+00  0.00000000000E+00  0.17582937840E+03  0.17582937840E+03  0.00000000000E+00 0.  1.
         21   -1    0    0  501  503 -0.00000000000E+00 -0.00000000000E+00 -0.47148035501E+03  0.47148035501E+03  0.00000000000E+00 0.  1.
          6    2    1    2  501    0  0.77017138459E+02 -0.40883740399E+02 -0.38168502708E+03  0.43579231220E+03  0.19138536942E+03 0.  0.
         24    2    3    3    0    0  0.79185013696E+02 -0.38304136210E+02 -0.39969666362E+03  0.41687504253E+03  0.79308920873E+02 0.  0.
         -6    2    1    2    0  502 -0.77017138459E+02  0.40883740399E+02  0.86034050461E+02  0.21151742121E+03  0.17243735614E+03 0.  0.
        -24    2    5    5    0    0 -0.10111698724E+03  0.61121198067E+02  0.25293901507E+02  0.14294765310E+03  0.76379343482E+02 0.  0.
          5    1    3    3  501    0 -0.21678752373E+01 -0.25796041890E+01  0.18011636542E+02  0.18917269669E+02  0.47000000000E+01 0. -1.
        -13    1    4    4    0    0  0.87747711011E+02 -0.49623665044E+02 -0.30776252850E+03  0.32385172976E+03  0.00000000000E+00 0.  1.
         14    1    4    4    0    0 -0.85626973147E+01  0.11319528833E+02 -0.91934135117E+02  0.93023312766E+02  0.00000000000E+00 0. -1.
         -5    1    5    5    0  502  0.24099848784E+02 -0.20237457668E+02  0.60740148954E+02  0.68569768115E+02  0.47000000000E+01 0.  1.
         13    1    6    6    0    0 -0.35989331849E+02  0.53734227519E+02  0.39634746431E+02  0.75851910580E+02  0.00000000000E+00 0. -1.
        -14    1    6    6    0    0 -0.65127655394E+02  0.73869705486E+01 -0.14340844924E+02  0.67095742519E+02  0.00000000000E+00 0.  1.
</event>
<event>
12    1  0.8331241E-002  0.1932677E+03  0.7818608E-02  0.1155654E+00
         21   -1    0    0  503  502  0.00000000000E+00  0.00000000000E+00  0.12440739546E+03  0.12440739546E+03  0.00000000000E+00 0.  1.
         21   -1    0    0  501  503 -0.00000000000E+00 -0.00000000000E+00 -0.31722733630E+03  0.31722733630E+03  0.00000000000E+00 0.  1.
          6    2    1    2  501    0 -0.28352410185E+02 -0.83174477279E+02 -0.14873988506E+03  0.24387694485E+03  0.17213528977E+03 0.  0.
         24    2    3    3    0    0 -0.57984275286E+02 -0.11200524353E+03 -0.10251974644E+03  0.18168649761E+03  0.81193190888E+02 0.  0.
         -6    2    1    2    0  502  0.28352410185E+02  0.83174477279E+02 -0.44080055774E+02  0.19775778692E+03  0.17159032063E+03 0.  0.
        -24    2    5    5    0    0  0.51980539217E+02  0.14737542543E+02  0.21943543425E+02  0.99660344702E+02  0.80817656428E+02 0.  0.
          5    1    3    3  501    0  0.29631865102E+02  0.28830766253E+02 -0.46220138626E+02  0.62190447231E+02  0.47000000000E+01 0. -1.
        -13    1    4    4    0    0 -0.53427846657E+02 -0.11664203766E+03 -0.11192312608E+03  0.17025476763E+03  0.00000000000E+00 0.  1.
         14    1    4    4    0    0 -0.45564286289E+01  0.46367941310E+01  0.94033796457E+01  0.11431729984E+02  0.00000000000E+00 0. -1.
         -5    1    5    5    0  502 -0.23628129033E+02  0.68436934737E+02 -0.66023599199E+02  0.98097442214E+02  0.47000000000E+01 0.  1.
         11    1    6    6    0    0 -0.15897543272E+02 -0.15826057033E+02  0.86444564793E+01  0.24040020614E+02  0.00000000000E+00 0. -1.
        -12    1    6    6    0    0  0.67878082490E+02  0.30563599576E+02  0.13299086945E+02  0.75620324087E+02  0.00000000000E+00 0.  1.
</event>
<event>
12    1  0.8331241E-002  0.1954450E+03  0.7818608E-02  0.1154417E+00
         21   -1    0    0  501  502  0.00000000000E+00  0.00000000000E+00  0.97084083422E+02  0.97084083422E+02  0.00000000000E+00 0. -1.
         21   -1    0    0  502  503 -0.00000000000E+00 -0.00000000000E+00 -0.38673098741E+03  0.38673098741E+03  0.00000000000E+00 0. -1.
         -6    2    1    2    0  503 -0.85207378655E+02 -0.17881678218E+02 -0.15354178063E+03  0.24854339547E+03  0.17498196832E+03 0.  0.
        -24    2    3    3    0    0 -0.95951008999E+02 -0.32020448591E+02 -0.41501124621E+02  0.13500692987E+03  0.79199889601E+02 0.  0.
          6    2    1    2  501    0  0.85207378655E+02  0.17881678218E+02 -0.13610512335E+03  0.23527167536E+03  0.17102077310E+03 0.  0.
         24    2    5    5    0    0  0.92989978922E+02  0.63441076879E+01 -0.28160634558E+02  0.12633230203E+03  0.80495001803E+02 0.  0.
          5    1    5    5  501    0 -0.77826002669E+01  0.11537570530E+02 -0.10794448880E+03  0.10893937333E+03  0.47000000000E+01 0. -1.
        -11    1    6    6    0    0 -0.11617282146E+02  0.12677400896E+02  0.19193055785E+01  0.17302065537E+02  0.00000000000E+00 0.  1.
         12    1    6    6    0    0  0.10460726107E+03 -0.63332932085E+01 -0.30079940137E+02  0.10903023649E+03  0.00000000000E+00 0. -1.
         -5    1    3    3    0  503  0.10743630344E+02  0.14138770373E+02 -0.11204065601E+03  0.11353646559E+03  0.47000000000E+01 0.  1.
         13    1    4    4    0    0 -0.10564819351E+03 -0.12434811225E+02 -0.37468323561E+02  0.11278315740E+03  0.00000000000E+00 0. -1.
        -14    1    4    4    0    0  0.96971845130E+01 -0.19585637366E+02 -0.40328010596E+01  0.22223772473E+02  0.00000000000E+00 0.  1.
</event>
<event>
12    1  0.8331241E-002  0.1785766E+03  0.7818608E-02  0.1169695E+00
         21   -1    0    0  503  502  0.00000000000E+00  0.00000000000E+00  0.30502923552E+03  0.30502923552E+03  0.00000000000E+00 0.  1.
         21   -1    0    0  501  503 -0.00000000000E+00 -0.00000000000E+00 -0.13593504602E+03  0.13593504602E+03  0.00000000000E+00 0.  1.
          6    2    1    2  501    0  0.38660165242E+02  0.20473583299E+02 -0.23787528969E+02  0.17810890489E+03  0.17100631414E+03 0.  0.
         24    2    3    3    0    0 -0.31670190774E+02 -0.28388672851E+02 -0.77287605007E+01  0.90851509225E+02  0.79908355381E+02 0.  0.
         -6    2    1    2    0  502 -0.38660165242E+02 -0.20473583299E+02  0.19288171846E+03  0.26285537665E+03  0.17313525269E+03 0.  0.
        -24    2    5    5    0    0 -0.44624068333E+02  0.19899474584E+02  0.35809198589E+02  0.10049953769E+03  0.80190783819E+02 0.  0.
          5    1    3    3  501    0  0.70330356016E+02  0.48862256150E+02 -0.16058768468E+02  0.87257395664E+02  0.47000000000E+01 0. -1.
        -13    1    4    4    0    0 -0.53903846723E+01  0.23023078738E+02 -0.20980020656E+02  0.31611385104E+02  0.00000000000E+00 0.  1.
         14    1    4    4    0    0 -0.26279806102E+02 -0.51411751589E+02  0.13251260155E+02  0.59240124121E+02  0.00000000000E+00 0. -1.
         -5    1    5    5    0  502  0.59639030910E+01 -0.40373057883E+02  0.15707251987E+03  0.16235583895E+03  0.47000000000E+01 0.  1.
         11    1    6    6    0    0  0.24958281272E+00 -0.25612515741E+02  0.24784531923E+02  0.35641777127E+02  0.00000000000E+00 0. -1.
        -12    1    6    6    0    0 -0.44873651145E+02  0.45511990325E+02  0.11024666666E+02  0.64857760565E+02  0.00000000000E+00 0.  1.
</event>
<event>
12    1  0.8331241E-002  0.2037584E+03  0.7818608E-02  0.1146806E+00
         21   -1    0    0  501  502  0.00000000000E+00  0.00000000000E+00  0.95932440602E+03  0.95932440602E+03  0.00000000000E+00 0.  1.
         21   -1    0    0  502  503 -0.00000000000E+00 -0.00000000000E+00 -0.43561173142E+02  0.43561173142E+02  0.00000000000E+00 0.  1.
         -6    2    1    2    0  503 -0.34916980067E+02  0.10120990960E+03  0.40369845938E+03  0.45177050595E+03  0.17222515102E+03 0.  0.
        -24    2    3    3    0    0  0.10436565422E+02  0.94267497095E+01  0.28266977912E+03  0.29317944702E+03  0.76512735016E+02 0.  0.
          6    2    1    2  501    0  0.34916980067E+02 -0.10120990960E+03  0.51206477350E+03  0.55111507321E+03  0.17336334781E+03 0.  0.
         24    2    5    5    0    0  0.44006675898E+02 -0.16196831907E+00  0.28114504057E+03  0.29884671994E+03  0.91270008350E+02 0.  0.
          5    1    5    5  501    0 -0.90896958307E+01 -0.10104794128E+03  0.23091973293E+03  0.25226835327E+03  0.47000000000E+01 0. -1.
        -11    1    6    6    0    0  0.44907796742E+02 -0.13093390166E+02  0.28200228883E+03  0.28585562436E+03  0.00000000000E+00 0.  1.
         12    1    6    6    0    0 -0.90112084451E+00  0.12931421847E+02 -0.85724825868E+00  0.12991095578E+02  0.00000000000E+00 0. -1.
         -5    1    3    3    0  503 -0.45353545489E+02  0.91783159888E+02  0.12102868026E+03  0.15859105893E+03  0.47000000000E+01 0.  1.
         13    1    4    4    0    0  0.21948197361E+02 -0.14482534654E+02  0.33438196669E+02  0.42539160475E+02  0.00000000000E+00 0. -1.
        -14    1    4    4    0    0 -0.11511631939E+02  0.23909284364E+02  0.24923158245E+03  0.25064028655E+03  0.00000000000E+00 0.  1.
</event>
<event>
12    1  0.8331241E-002  0.2063714E+03  0.7818608E-02  0.1144779E+00
         21   -1    0    0  501  502  0.00000000000E+00  0.00000000000E+00  0.18863411922E+03  0.18863411922E+03  0.00000000000E+00 0. -1.
         21   -1    0    0  502  503 -0.00000000000E+00 -0.00000000000E+00 -0.31015592421E+03  0.31015592421E+03  0.00000000000E+00 0.  1.
         -6    2    1    2    0  503  0.86773291635E+02  0.69249695339E+02  0.70744773640E+02  0.21673400273E+03  0.17217340240E+03 0.  0.
        -24    2    3    3    0    0  0.54709621884E+02  0.11175683207E+03  0.29359252301E+02  0.14913380326E+03  0.76786674223E+02 0.  0.
          6    2    1    2  501    0 -0.86773291635E+02 -0.69249695339E+02 -0.19226657863E+03  0.28205604071E+03  0.17396565292E+03 0.  0.
         24    2    5    5    0    0 -0.34085575513E+02  0.30883857444E+02 -0.88872143057E+02  0.12870929920E+03  0.80945579127E+02 0.  0.
          5    1    5    5  501    0 -0.52687716122E+02 -0.10013355278E+03 -0.10339443558E+03  0.15334674151E+03  0.47000000000E+01 0. -1.
        -11    1    6    6    0    0 -0.26273645340E+02  0.31786906278E+01 -0.95560071362E+02  0.99157126583E+02  0.00000000000E+00 0.  1.
         12    1    6    6    0    0 -0.78119301737E+01  0.27705166816E+02  0.66879283046E+01  0.29552172617E+02  0.00000000000E+00 0. -1.
         -5    1    3    3    0  503  0.32063669751E+02 -0.42507136732E+02  0.41385521340E+02  0.67600199464E+02  0.47000000000E+01 0.  1.
         11    1    4    4    0    0  0.13966354963E+02 -0.96008671539E+01 -0.27106094449E+01  0.17163424035E+02  0.00000000000E+00 0. -1.
        -12    1    4    4    0    0  0.40743266922E+02  0.12135769923E+03  0.32069861746E+02  0.13197037923E+03  0.00000000000E+00 0.  1.
</event>
<event>
12    1  0.8331241E-002  0.2104473E+03  0.7818608E-02  0.1141219E+00
         21   -1    0    0  501  502  0.00000000000E+00  0.00000000000E+00  0.62732651701E+02  0.62732651701E+02  0.00000000000E+00 0. -1.
         21   -1    0    0  502  503 -0.00000000000E+00 -0.00000000000E+00 -0.77956998092E+03  0.77956998092E+03  0.00000000000E+00 0. -1.
         -6    2    1    2    0  503  0.97196401385E+02 -0.72210673392E+02 -0.48794847323E+03  0.53139606794E+03  0.17212363784E+03 0.  0.
        -24    2    3    3    0    0  0.96909018694E+02 -0.10882865392E+03 -0.37243893907E+03  0.41012982545E+03  0.90888264215E+02 0.  0.
          6    2    1    2  501    0 -0.97196401385E+02  0.72210673392E+02 -0.22888885599E+03  0.31090656468E+03  0.17207923108E+03 0.  0.
         24    2    5    5    0    0 -0.41768059393E+02  0.78959949657E+02 -0.62415719498E+02  0.13525563528E+03  0.80119413367E+02 0.  0.
          5    1    5    5  501    0 -0.55428341992E+02 -0.67492762657E+01 -0.16647313649E+03  0.17565092940E+03  0.47000000000E+01 0. -1.
        -11    1    6    6    0    0  0.16560592113E+02  0.21899729411E+02 -0.43587611924E+02  0.51514379280E+02  0.00000000000E+00 0.  1.
         12    1    6    6    0    0 -0.58328651505E+02  0.57060220246E+02 -0.18828107575E+02  0.83741255996E+02  0.00000000000E+00 0. -1.
         -5    1    3    3    0  503  0.28738269089E+00  0.36617980524E+02 -0.11550953416E+03  0.12126624249E+03  0.47000000000E+01 0.  1.
         13    1    4    4    0    0  0.68598493025E+01 -0.83197546492E+01 -0.14694533773E+03  0.14734044974E+03  0.00000000000E+00 0. -1.
        -14    1    4    4    0    0  0.90049169392E+02 -0.10050889927E+03 -0.22549360134E+03  0.26278937571E+03  0.00000000000E+00 0.  1.
</event>
<event>
12    1  0.8331241E-002  0.1856751E+03  0.7818608E-02  0.1163480E+00
         21   -1    0    0  501  502  0.00000000000E+00  0.00000000000E+00  0.62393548308E+03  0.62393548308E+03  0.00000000000E+00 0.  1.
         21   -1    0    0  502  503 -0.00000000000E+00 -0.00000000000E+00 -0.67997714736E+02  0.67997714736E+02  0.00000000000E+00 0.  1.
         -6    2    1    2    0  503  0.58827836886E+02  0.25693184387E+02  0.12328718176E+03  0.22287885900E+03  0.17422514883E+03 0.  0.
        -24    2    3    3    0    0 -0.33642297880E+02 -0.16853986381E+02  0.39641206783E+02  0.91046667580E+02  0.72816271112E+02 0.  0.
          6    2    1    2  501    0 -0.58827836886E+02 -0.25693184387E+02  0.43265058658E+03  0.46905433882E+03  0.16942428567E+03 0.  0.
         24    2    5    5    0    0 -0.54537642330E+02 -0.57869410920E+02  0.41845879902E+03  0.43331623370E+03  0.79573668751E+02 0.  0.
          5    1    5    5  501    0 -0.42901945558E+01  0.32176226534E+02  0.14191787564E+02  0.35738105120E+02  0.47000000000E+01 0. -1.
        -11    1    6    6    0    0 -0.51305057727E+02 -0.62973391539E+02  0.21601038284E+03  0.23077769062E+03  0.00000000000E+00 0.  1.
         12    1    6    6    0    0 -0.32325846028E+01  0.51039806181E+01  0.20244841618E+03  0.20253854308E+03  0.00000000000E+00 0. -1.
         -5    1    3    3    0  503  0.92470134766E+02  0.42547170768E+02  0.83645974977E+02  0.13183219142E+03  0.47000000000E+01 0.  1.
         13    1    4    4    0    0 -0.98538244331E-01  0.39740871441E+01  0.50054812137E+02  0.50212421734E+02  0.00000000000E+00 0. -1.
        -14    1    4    4    0    0 -0.33543759636E+02 -0.20828073526E+02 -0.10413605354E+02  0.40834245846E+02  0.00000000000E+00 0.  1.
</event>
<event>
12    1  0.8331241E-002  0.2348790E+03  0.7818608E-02  0.1123280E+00
         21   -1    0    0  503  502  0.00000000000E+00  0.00000000000E+00  0.21417876227E+04  0.21417876227E+04  0.00000000000E+00 0. -1.
         21   -1    0    0  501  503 -0.00000000000E+00 -0.00000000000E+00 -0.31024867819E+02  0.31024867819E+02  0.00000000000E+00 0. -1.
          6    2    1    2  501    0  0.51318588479E+02 -0.15195481139E+03  0.15034671181E+04  0.15216779972E+04  0.17136712021E+03 0.  0.
         24    2    3    3    0    0 -0.21982518378E+02 -0.84742403628E+02  0.10842818595E+04  0.10908312368E+04  0.81124164721E+02 0.  0.
         -6    2    1    2    0  502 -0.51318588479E+02  0.15195481139E+03  0.60729563683E+03  0.65113449331E+03  0.17159334382E+03 0.  0.
        -24    2    5    5    0    0 -0.93948344806E+02  0.72164726804E+02  0.33293570303E+03  0.36220679129E+03  0.79457775057E+02 0.  0.
          5    1    3    3  501    0  0.73301106857E+02 -0.67212407763E+02  0.41918525855E+03  0.43084676047E+03  0.47000000000E+01 0. -1.
        -11    1    4    4    0    0 -0.22171818356E+01 -0.23176380185E+01  0.53826225278E+03  0.53827180876E+03  0.00000000000E+00 0.  1.
         12    1    4    4    0    0 -0.19765336542E+02 -0.82424765610E+02  0.54601960675E+03  0.55255942800E+03  0.00000000000E+00 0. -1.
         -5    1    5    5    0  502  0.42629756326E+02  0.79790084587E+02  0.27435993379E+03  0.28892770202E+03  0.47000000000E+01 0.  1.
         13    1    6    6    0    0 -0.45609301184E+02  0.67969387615E+02  0.27347163768E+03  0.28545889831E+03  0.00000000000E+00 0. -1.
        -14    1    6    6    0    0 -0.48339043622E+02  0.41953391883E+01  0.59464065353E+02  0.76747892984E+02  0.00000000000E+00 0.  1.
</event>
<event>
12    1  0.8331241E-002  0.1914420E+03  0.7818608E-02  0.1157634E+00
         21   -1    0    0  501  502  0.00000000000E+00  0.00000000000E+00  0.52444212067E+03  0.52444212067E+03  0.00000000000E+00 0.  1.
         21   -1    0    0  502  503 -0.00000000000E+00 -0.00000000000E+00 -0.72618426147E+02  0.72618426147E+02  0.00000000000E+00 0.  1.
         -6    2    1    2    0  503  0.33276678835E+02 -0.71765794338E+02  0.16162275559E+03  0.25054335147E+03  0.17433413106E+03 0.  0.
        -24    2    3    3    0    0 -0.18310562933E+02  0.22289964335E+02  0.69491971978E+02  0.10905872142E+03  0.78946509253E+02 0.  0.
          6    2    1    2  501    0 -0.33276678835E+02  0.71765794338E+02  0.29020093893E+03  0.34651719534E+03  0.17204625866E+03 0.  0.
         24    2    5    5    0    0  0.33715293207E+01  0.38936172149E+02  0.52272916915E+02  0.10350956395E+03  0.80339151568E+02 0.  0.
          5    1    5    5  501    0 -0.36648208156E+02  0.32829622189E+02  0.23792802202E+03  0.24300763139E+03  0.47000000000E+01 0. -1.
        -11    1    6    6    0    0 -0.37215114553E+01 -0.50442958242E+01  0.58228075591E+02  0.58564523005E+02  0.00000000000E+00 0.  1.
         12    1    6    6    0    0  0.70930407759E+01  0.43980467973E+02 -0.59551586753E+01  0.44945040944E+02  0.00000000000E+00 0. -1.
         -5    1    3    3    0  503  0.51587241768E+02 -0.94055758673E+02  0.92130783611E+02  0.14148463005E+03  0.47000000000E+01 0.  1.
         13    1    4    4    0    0 -0.19013481654E+02  0.51446135411E+02  0.43761553706E+02  0.70166166463E+02  0.00000000000E+00 0. -1.
        -14    1    4    4    0    0  0.70291872131E+00 -0.29156171077E+02  0.25730418272E+02  0.38892554956E+02  0.00000000000E+00 0.  1.
</event>
<event>
12    1  0.8331241E-002  0.1889096E+03  0.7818608E-02  0.1160547E+00
         21   -1    0    0  503  502  0.00000000000E+00  0.00000000000E+00  0.31550417112E+04  0.31550417112E+04  0.00000000000E+00 0. -1.
         21   -1    0    0  501  503 -0.00000000000E+00 -0.00000000000E+00 -0.11005819385E+03  0.11005819385E+03  0.00000000000E+00 0. -1.
          6    2    1    2  501    0  0.59275145520E+02  0.32596282084E+02 -0.28050675761E+02  0.18626473712E+03  0.17126485746E+03 0.  0.
         24    2    3    3    0    0  0.78455504441E+02  0.66621700886E+02 -0.53077416435E+02  0.13963810265E+03  0.78024806129E+02 0.  0.
         -6    2    1    2    0  502 -0.59275145520E+02 -0.32596282084E+02  0.30730341931E+04  0.30788351680E+04  0.17638247847E+03 0.  0.
        -24    2    5    5    0    0 -0.45848037680E+02 -0.89109265620E+02  0.23462770385E+04  0.23497452857E+04  0.79021912424E+02 0.  0.
          5    1    3    3  501    0 -0.19180358921E+02 -0.34025418802E+02  0.25026740674E+02  0.46626634468E+02  0.47000000000E+01 0. -1.
        -11    1    4    4    0    0 -0.92145911082E+01  0.27101429171E+02  0.22130203892E+01  0.28710513957E+02  0.00000000000E+00 0.  1.
         12    1    4    4    0    0  0.87670095549E+02  0.39520271715E+02 -0.55290436824E+02  0.11092758870E+03  0.00000000000E+00 0. -1.
         -5    1    5    5    0  502 -0.13427107840E+02  0.56512983536E+02  0.72675715466E+03  0.72908988224E+03  0.47000000000E+01 0.  1.
         13    1    6    6    0    0 -0.35536267204E+01 -0.51515459256E+02  0.17567224030E+04  0.17574811725E+04  0.00000000000E+00 0. -1.
        -14    1    6    6    0    0 -0.42294410960E+02 -0.37593806364E+02  0.58955463553E+03  0.59226411317E+03  0.00000000000E+00 0.  1.
</event>
<event>
12    1  0.8331241E-002  0.1960766E+03  0.7818608E-02  0.1153419E+00
         21   -1    0    0  501  502  0.00000000000E+00  0.00000000000E+00  0.18832268720E+03  0.18832268720E+03  0.00000000000E+00 0. -1.
         21   -1    0    0  502  503 -0.00000000000E+00 -0.00000000000E+00 -0.30154101001E+03  0.30154101001E+03  0.00000000000E+00 0.  1.
         -6    2    1    2    0  503  0.69859183942E+02 -0.59403466380E+02 -0.19706494402E+03  0.27799391041E+03  0.17331169801E+03 0.  0.
        -24    2    3    3    0    0  0.16440614248E+02 -0.58851524654E+02 -0.36782881488E+02  0.10897829635E+03  0.82398379558E+02 0.  0.
          6    2    1    2  501    0 -0.69859183942E+02  0.59403466380E+02  0.83846621208E+02  0.21186978679E+03  0.17160848833E+03 0.  0.
         24    2    5    5    0    0 -0.50778543435E+02  0.73534792480E+02 -0.47688896018E+01  0.12000813007E+03  0.79958631779E+02 0.  0.
          5    1    5    5  501    0 -0.19080640507E+02 -0.14131326100E+02  0.88615510809E+02  0.91861656721E+02  0.47000000000E+01 0. -1.
        -11    1    6    6    0    0 -0.27116292290E+02 -0.10407501515E+02  0.11592822759E+02  0.31273038466E+02  0.00000000000E+00 0.  1.
         12    1    6    6    0    0 -0.23662251145E+02  0.83942293995E+02 -0.16361712360E+02  0.88735091603E+02  0.00000000000E+00 0. -1.
         -5    1    3    3    0  503  0.53418569694E+02 -0.55194172615E+00 -0.16028206253E+03  0.16901561406E+03  0.47000000000E+01 0.  1.
         13    1    4    4    0    0  0.83620759979E+00 -0.24122759995E+02  0.26047941398E+02  0.35511998592E+02  0.00000000000E+00 0. -1.
        -14    1    4    4    0    0  0.15604406648E+02 -0.34728764658E+02 -0.62830822887E+02  0.73466297757E+02  0.00000000000E+00 0.  1.
</event>
<event>
12    1  0.8331241E-002  0.1743116E+03  0.7818608E-02  0.1173469E+00
         21   -1    0    0  501  502  0.00000000000E+00  0.00000000000E+00  0.10555514639E+04  0.10555514639E+04  0.00000000000E+00 0. -1.
         21   -1    0    0  502  503 -0.00000000000E+00 -0.00000000000E+00 -0.44530495101E+02  0.44530495101E+02  0.00000000000E+00 0. -1.
         -6    2    1    2    0  503 -0.27970011580E+02 -0.13244787982E+02  0.17797997790E+03  0.24899922387E+03  0.17136509270E+03 0.  0.
        -24    2    3    3    0    0  0.36858544313E+02 -0.40460296090E+02  0.13572518331E+03  0.16683485685E+03  0.80105906324E+02 0.  0.
          6    2    1    2  501    0  0.27970011580E+02  0.13244787982E+02  0.83304099093E+03  0.85108273517E+03  0.17154236671E+03 0.  0.
         24    2    5    5    0    0 -0.15681506620E+02 -0.50980913066E+02  0.51287444916E+03  0.52159965490E+03  0.78619566521E+02 0.  0.
          5    1    5    5  501    0  0.43651518200E+02  0.64225701048E+02  0.32016654177E+03  0.32948308027E+03  0.47000000000E+01 0. -1.
        -11    1    6    6    0    0  0.14629945153E+01 -0.31785162982E+02  0.59314689951E+02  0.67310247234E+02  0.00000000000E+00 0.  1.
         12    1    6    6    0    0 -0.17144501136E+02 -0.19195750085E+02  0.45355975921E+03  0.45428940766E+03  0.00000000000E+00 0. -1.
         -5    1    3    3    0  503 -0.64828555893E+02  0.27215508108E+02  0.42254794594E+02  0.82164367015E+02  0.47000000000E+01 0.  1.
         13    1    4    4    0    0  0.11821462641E+02 -0.14046330767E+02  0.12840598269E+03  0.12971176807E+03  0.00000000000E+00 0. -1.
        -14    1    4    4    0    0  0.25037081672E+02 -0.26413965323E+02  0.73192006228E+01  0.37123088779E+02  0.00000000000E+00 0.  1.
</event>
<event>
12    1  0.8331241E-002  0.1983203E+03  0.7818608E-02  0.1151469E+00
         21   -1    0    0  501  502  0.00000000000E+00  0.00000000000E+00  0.14829369983E+03  0.14829369983E+03  0.00000000000E+00 0. -1.
         21   -1    0    0  502  503 -0.00000000000E+00 -0.00000000000E+00 -0.27317719460E+03  0.27317719460E+03  0.00000000000E+00 0. -1.
         -6    2    1    2    0  503 -0.36866728123E+02  0.90254968554E+02 -0.10268127656E+03  0.22332570369E+03  0.17270150660E+03 0.  0.
        -24    2    3    3    0    0 -0.24675204871E+02  0.69174943168E+00 -0.10141606315E+03  0.13280557210E+03  0.82114297544E+02 0.  0.
          6    2    1    2  501    0  0.36866728123E+02 -0.90254968554E+02 -0.22202218207E+02  0.19814519074E+03  0.17106566905E+03 0.  0.
         24    2    5    5    0    0  0.79496070816E+01  0.19240522366E+02 -0.15495300142E+02  0.84599890656E+02  0.80521073135E+02 0.  0.
          5    1    5    5  501    0  0.28917121042E+02 -0.10949549092E+03 -0.67069180654E+01  0.11354530008E+03  0.47000000000E+01 0. -1.
        -13    1    6    6    0    0 -0.67584325581E+01  0.15425636417E+02 -0.46835008056E+02  0.49770921722E+02  0.00000000000E+00 0.  1.
         14    1    6    6    0    0  0.14708039640E+02  0.38148859487E+01  0.31339707914E+02  0.34828968933E+02  0.00000000000E+00 0. -1.
         -5    1    3    3    0  503 -0.12191523253E+02  0.89563219122E+02 -0.12652134026E+01  0.90520131594E+02  0.47000000000E+01 0.  1.
         13    1    4    4    0    0 -0.53381421026E+01  0.16483038907E+02 -0.10601359930E+03  0.10742006130E+03  0.00000000000E+00 0. -1.
        -14    1    4    4    0    0 -0.19337062768E+02 -0.15791289475E+02  0.45975361462E+01  0.25385510796E+02  0.00000000000E+00 0.  1.
</event>
<event>
12    1  0.8331241E-002  0.1880024E+03  0.7818608E-02  0.1160283E+00
         21   -1    0    0  503  502  0.00000000000E+00  0.00000000000E+00  0.22957120797E+04  0.22957120797E+04  0.00000000000E+00 0.  1.
         21   -1    0    0  501  503 -0.00000000000E+00 -0.00000000000E+00 -0.16623057673E+02  0.16623057673E+02  0.00000000000E+00 0.  1.
          6    2    1    2  501    0 -0.52463739294E+02 -0.54798845082E+02  0.82517255084E+03  0.84631829573E+03  0.17201616688E+03 0.  0.
         24    2    3    3    0    0 -0.20474945020E+02 -0.10125128078E+03  0.59873963069E+03  0.61291934743E+03  0.80684173551E+02 0.  0.
         -6    2    1    2    0  502  0.52463739294E+02  0.54798845082E+02  0.14539164712E+04  0.14660168416E+04  0.17197940988E+03 0.  0.
        -24    2    5    5    0    0  0.13773182474E+02 -0.20519791138E+02  0.42217132069E+03  0.43079222750E+03  0.82113073732E+02 0.  0.
          5    1    3    3  501    0 -0.31988794274E+02  0.46452435697E+02  0.22643292016E+03  0.23339894831E+03  0.47000000000E+01 0. -1.
        -13    1    4    4    0    0 -0.25901100772E+02 -0.62515263977E+02  0.52595787757E+03  0.53029304562E+03  0.00000000000E+00 0.  1.
         14    1    4    4    0    0  0.54261557520E+01 -0.38736016802E+02  0.72781753114E+02  0.82626301807E+02  0.00000000000E+00 0. -1.
         -5    1    5    5    0  502  0.38690556820E+02  0.75318636221E+02  0.10317451505E+04  0.10352246141E+04  0.47000000000E+01 0.  1.
         11    1    6    6    0    0 -0.10026849019E+01 -0.15329388929E+02  0.10014768831E+02  0.18338242465E+02  0.00000000000E+00 0. -1.
        -12    1    6    6    0    0  0.14775867375E+02 -0.51904022094E+01  0.41215655186E+03  0.41245398504E+03  0.00000000000E+00 0.  1.
</event>
<event>
12    1  0.8331241E-002  0.2108663E+03  0.7818608E-02  0.1142288E+00
         21   -1    0    0  501  502  0.00000000000E+00  0.00000000000E+00  0.24044978761E+03  0.24044978761E+03  0.00000000000E+00 0. -1.
         21   -1    0    0  502  503 -0.00000000000E+00 -0.00000000000E+00 -0.20357787111E+03  0.20357787111E+03  0.00000000000E+00 0.  1.
         -6    2    1    2    0  503 -0.22130323582E+02  0.10736457866E+03 -0.58697607902E+02  0.21888352360E+03  0.18013240618E+03 0.  0.
        -24    2    3    3    0    0 -0.13048408407E+02  0.12549171946E+02  0.31212801281E+02  0.87817073990E+02  0.80061581560E+02 0.  0.
          6    2    1    2  501    0  0.22130323582E+02 -0.10736457866E+03  0.95569524405E+02  0.22514413512E+03  0.17187042681E+03 0.  0.
         24    2    5    5    0    0  0.79761343054E+02 -0.82451390914E+02  0.58055438419E+02  0.15185431334E+03  0.80803433346E+02 0.  0.
          5    1    5    5  501    0 -0.57631019472E+02 -0.24913187749E+02  0.37514085986E+02  0.73289821781E+02  0.47000000000E+01 0. -1.
        -11    1    6    6    0    0  0.44348046375E+02 -0.65105677318E+02  0.75153378220E+02  0.10887391191E+03  0.00000000000E+00 0.  1.
         12    1    6    6    0    0  0.35413296679E+02 -0.17345713596E+02 -0.17097939801E+02  0.42980401432E+02  0.00000000000E+00 0. -1.
         -5    1    3    3    0  503 -0.90819151746E+01  0.94815406718E+02 -0.89910409182E+02  0.13106644961E+03  0.47000000000E+01 0.  1.
         13    1    4    4    0    0  0.21171987025E+02 -0.14955372570E+02 -0.98243322166E+01  0.27720636839E+02  0.00000000000E+00 0. -1.
        -14    1    4    4    0    0 -0.34220395432E+02  0.27504544516E+02  0.41037133497E+02  0.60096437151E+02  0.00000000000E+00 0.  1.
</event>
<event>
12    1  0.8331241E-002  0.2111772E+03  0.7818608E-02  0.1141745E+00
         21   -1    0    0  503  502  0.00000000000E+00  0.00000000000E+00  0.42229714692E+03  0.42229714692E+03  0.00000000000E+00 0. -1.
         21   -1    0    0  501  503 -0.00000000000E+00 -0.00000000000E+00 -0.36125642849E+03  0.36125642849E+03  0.00000000000E+00 0.  1.
          6    2    1    2  501    0 -0.75825610206E+01 -0.10725051900E+03 -0.30093841860E+03  0.36447755306E+03  0.17527060745E+03 0.  0.
         24    2    3    3    0    0 -0.45093784179E+02 -0.48340293460E+02 -0.73551107858E+02  0.12656037078E+03  0.78978026318E+02 0.  0.
         -6    2    1    2    0  502  0.75825610206E+01  0.10725051900E+03  0.36197913704E+03  0.41907602235E+03  0.18175711210E+03 0.  0.
        -24    2    5    5    0    0 -0.43527698664E+02  0.10930610594E+03  0.18172349023E+03  0.23164424199E+03  0.82420522915E+02 0.  0.
          5    1    3    3  501    0  0.37511223158E+02 -0.58910225542E+02 -0.22738731075E+03  0.23791718228E+03  0.47000000000E+01 0. -1.
        -11    1    4    4    0    0  0.14100816727E+02 -0.15725558014E+02 -0.51183337285E+02  0.55370210609E+02  0.00000000000E+00 0.  1.
         12    1    4    4    0    0 -0.59194600906E+02 -0.32614735446E+02 -0.22367770573E+02  0.71190160170E+02  0.00000000000E+00 0. -1.
         -5    1    5    5    0  502  0.51110259684E+02 -0.20555869424E+01  0.18025564680E+03  0.18743178036E+03  0.47000000000E+01 0.  1.
         11    1    6    6    0    0 -0.52962152682E+02  0.77673435983E+02  0.17395412930E+03  0.19773262598E+03  0.00000000000E+00 0. -1.
        -12    1    6    6    0    0  0.94344540181E+01  0.31632669961E+02  0.77693609315E+01  0.33911616016E+02  0.00000000000E+00 0.  1.
</event>
<event>
12    1  0.8331241E-002  0.2137062E+03  0.7818608E-02  0.1139590E+00
         21   -1    0    0  503  502  0.00000000000E+00  0.00000000000E+00  0.26596318610E+02  0.26596318610E+02  0.00000000000E+00 0. -1.
         21   -1    0    0  501  503 -0.00000000000E+00 -0.00000000000E+00 -0.25575461516E+04  0.25575461516E+04  0.00000000000E+00 0.  1.
          6    2    1    2  501    0 -0.95514165949E+02  0.69565345382E+02 -0.20318456833E+04  0.20430534112E+04  0.17806759149E+03 0.  0.
         24    2    3    3    0    0 -0.68886934480E+02  0.11669741294E+03 -0.16282778049E+04  0.16358439273E+04  0.79580455352E+02 0.  0.
         -6    2    1    2    0  502  0.95514165949E+02 -0.69565345382E+02 -0.49910414967E+03  0.54108905898E+03  0.17236625063E+03 0.  0.
        -24    2    5    5    0    0  0.82312913889E+02 -0.90683124623E+02 -0.49496426315E+03  0.51540906060E+03  0.75219898119E+02 0.  0.
          5    1    3    3  501    0 -0.26627231469E+02 -0.47132067560E+02 -0.40356787843E+03  0.40720948386E+03  0.47000000000E+01 0. -1.
        -11    1    4    4    0    0 -0.54068801921E+02  0.70213409259E+02 -0.13785140523E+04  0.13813596022E+04  0.00000000000E+00 0.  1.
         12    1    4    4    0    0 -0.14818132559E+02  0.46484003683E+02 -0.24976375255E+03  0.25448432513E+03  0.00000000000E+00 0. -1.
         -5    1    5    5    0  502  0.13201252060E+02  0.21117779240E+02 -0.41398865147E+01  0.25679998371E+02  0.47000000000E+01 0.  1.
         13    1    6    6    0    0  0.86945714360E+02 -0.61440760749E+02 -0.30265777472E+03  0.32083680107E+03  0.00000000000E+00 0. -1.
        -14    1    6    6    0    0 -0.46328004709E+01 -0.29242363874E+02 -0.19230648843E+03  0.19457225953E+03  0.00000000000E+00 0.  1.
</event>
<event>
12    1  0.8331241E-002  0.2021723E+03  0.7818608E-02  0.1148352E+00
         21   -1    0    0  503  502  0.00000000000E+00  0.00000000000E+00  0.88275325271E+02  0.88275325271E+02  0.00000000000E+00 0. -1.
         21   -1    0    0  501  503 -0.00000000000E+00 -0.00000000000E+00 -0.47181737029E+03  0.47181737029E+03  0.00000000000E+00 0. -1.
          6    2    1    2  501    0 -0.10286560114E+03  0.31936589368E+02 -0.14339678714E+03  0.24617648068E+03  0.16863849929E+03 0.  0.
         24    2    3    3    0    0 -0.91509827275E+02  0.16522780837E+02 -0.17265737328E+03  0.21089460155E+03  0.77581657881E+02 0.  0.
         -6    2    1    2    0  502  0.10286560114E+03 -0.31936589368E+02 -0.24014525788E+03  0.31391621488E+03  0.17109169308E+03 0.  0.
        -24    2    5    5    0    0  0.85589903662E+02  0.42742046647E+02 -0.13011240743E+03  0.17973474604E+03  0.78884892136E+02 0.  0.
          5    1    3    3  501    0 -0.11355773869E+02  0.15413808532E+02  0.29260586145E+02  0.35281879133E+02  0.47000000000E+01 0. -1.
        -13    1    4    4    0    0 -0.51612299155E+02  0.41258494048E+02 -0.13646085884E+03  0.15161681553E+03  0.00000000000E+00 0.  1.
         14    1    4    4    0    0 -0.39897528119E+02 -0.24735713211E+02 -0.36196514447E+02  0.59277786026E+02  0.00000000000E+00 0. -1.
         -5    1    5    5    0  502  0.17275697482E+02 -0.74678636015E+02 -0.11003285046E+03  0.13418146884E+03  0.47000000000E+01 0.  1.
         11    1    6    6    0    0  0.36284671638E+02  0.61094749082E+02 -0.81186630150E+02  0.10789075343E+03  0.00000000000E+00 0. -1.
        -12    1    6    6    0    0  0.49305232023E+02 -0.18352702435E+02 -0.48925777277E+02  0.71843992607E+02  0.00000000000E+00 0.  1.
</event>
<event>
12    1  0.8331241E-002  0.1990924E+03  0.7818608E-02  0.1150581E+00
         21   -1    0    0  503  502  0.00000000000E+00  0.00000000000E+00  0.62321285142E+02  0.62321285142E+02  0.00000000000E+00 0.  1.
         21   -1    0    0  501  503 -0.00000000000E+00 -0.00000000000E+00 -0.63490648851E+03  0.63490648851E+03  0.00000000000E+00 0. -1.
          6    2    1    2  501    0  0.80260413327E+02 -0.57848496268E+02 -0.28641626473E+03  0.34861559536E+03  0.17236697526E+03 0.  0.
         24    2    3    3    0    0  0.64467057530E+02 -0.15542944001E+02 -0.66754274436E+02  0.12431073625E+03  0.81236945892E+02 0.  0.
         -6    2    1    2    0  502 -0.80260413327E+02  0.57848496268E+02 -0.28616893864E+03  0.34861217829E+03  0.17277038792E+03 0.  0.
        -24    2    5    5    0    0 -0.75984324381E+02  0.39524572954E+01 -0.27071781528E+03  0.29218616331E+03  0.79343424740E+02 0.  0.
          5    1    3    3  501    0  0.15793355796E+02 -0.42305552267E+02 -0.21966199029E+03  0.22430485911E+03  0.47000000000E+01 0. -1.
        -13    1    4    4    0    0  0.42363145051E+02 -0.46063042234E+01 -0.84018355690E+02  0.94206890354E+02  0.00000000000E+00 0.  1.
         14    1    4    4    0    0  0.22103912479E+02 -0.10936639778E+02  0.17264081254E+02  0.30103845901E+02  0.00000000000E+00 0. -1.
         -5    1    5    5    0  502 -0.42760889461E+01  0.53896038972E+02 -0.15451123360E+02  0.56426014981E+02  0.47000000000E+01 0.  1.
         13    1    6    6    0    0 -0.65327325157E+02  0.35807504160E+02 -0.16016172809E+03  0.17663979141E+03  0.00000000000E+00 0. -1.
        -14    1    6    6    0    0 -0.10656999223E+02 -0.31855046865E+02 -0.11055608719E+03  0.11554637190E+03  0.00000000000E+00 0.  1.
</event>
<event>
12    1  0.8331241E-002  0.2387534E+03  0.7818608E-02  0.1121683E+00
         21   -1    0    0  503  502  0.00000000000E+00  0.00000000000E+00  0.45652544415E+03  0.45652544415E+03  0.00000000000E+00 0. -1.
         21   -1    0    0  501  503 -0.00000000000E+00 -0.00000000000E+00 -0.15525546612E+03  0.15525546612E+03  0.00000000000E+00 0.  1.
          6    2    1    2  501    0 -0.82219127398E+02  0.13254927198E+03  0.29452680778E+03  0.37914274062E+03  0.18075918469E+03 0.  0.
         24    2    3    3    0    0  0.24549170932E+02  0.82732593399E+02  0.11254745934E+03  0.16230237479E+03  0.78916325658E+02 0.  0.
         -6    2    1    2    0  502  0.82219127398E+02 -0.13254927198E+03  0.67431702578E+01  0.23263816965E+03  0.17246957187E+03 0.  0.
        -24    2    5    5    0    0  0.11616138568E+02 -0.55240862544E+02  0.61950728975E+02  0.11418422611E+03  0.77547773025E+02 0.  0.
          5    1    3    3  501    0 -0.10676829833E+03  0.49816678586E+02  0.18197934844E+03  0.21684036583E+03  0.47000000000E+01 0. -1.
        -11    1    4    4    0    0  0.22747321754E+02 -0.20109820014E+01  0.55814909531E+02  0.60305794261E+02  0.00000000000E+00 0.  1.
         12    1    4    4    0    0  0.18018491784E+01  0.84743575400E+02  0.56732549807E+02  0.10199658053E+03  0.00000000000E+00 0. -1.
         -5    1    5    5    0  502  0.70602988829E+02 -0.77308409441E+02 -0.55207558717E+02  0.11845394355E+03  0.47000000000E+01 0.  1.
         11    1    6    6    0    0  0.28783046526E+02  0.72520319676E+01  0.10671248224E+02  0.31542531186E+02  0.00000000000E+00 0. -1.
        -12    1    6    6    0    0 -0.17166907957E+02 -0.62492894512E+02  0.51279480750E+02  0.82641694920E+02  0.00000000000E+00 0.  1.
</event>
<event>
12    1  0.8331241E-002  0.1737484E+03  0.7818608E-02  0.1174388E+00
         21   -1    0    0  501  502  0.00000000000E+00  0.00000000000E+00  0.19088876717E+04  0.19088876717E+04  0.00000000000E+00 0.  1.
         21   -1    0    0  502  503 -0.00000000000E+00 -0.00000000000E+00 -0.16822872344E+02  0.16822872344E+02  0.00000000000E+00 0.  1.
         -6    2    1    2    0  503  0.23302662766E+01 -0.20803007117E+02  0.11936727143E+04  0.12060300558E+04  0.17092615830E+03 0.  0.
        -24    2    3    3    0    0 -0.35006655988E+02 -0.65834365556E+02  0.88088997416E+03  0.88778957835E+03  0.81508031606E+02 0.  0.
          6    2    1    2  501    0 -0.23302662766E+01  0.20803007117E+02  0.69839208509E+03  0.71968048819E+03  0.17248276819E+03 0.  0.
         24    2    5    5    0    0  0.58259666715E+02 -0.12145842874E+02  0.49788215561E+03  0.50758831833E+03  0.78851441124E+02 0.  0.
          5    1    5    5  501    0 -0.60589932991E+02  0.32948849991E+02  0.20050992948E+03  0.21209216986E+03  0.47000000000E+01 0. -1.
        -11    1    6    6    0    0  0.44875027756E+02  0.13417868771E+02  0.44402057882E+03  0.44648413380E+03  0.00000000000E+00 0.  1.
         12    1    6    6    0    0  0.13384638959E+02 -0.25563711645E+02  0.53861576789E+02  0.61104184532E+02  0.00000000000E+00 0. -1.
         -5    1    3    3    0  503  0.37336922264E+02  0.45031358438E+02  0.31278274010E+03  0.31824047748E+03  0.47000000000E+01 0.  1.
         13    1    4    4    0    0 -0.21373454594E+01  0.28060434515E+01  0.46378871693E+03  0.46380213031E+03  0.00000000000E+00 0. -1.
        -14    1    4    4    0    0 -0.32869310528E+02 -0.68640409007E+02  0.41710125722E+03  0.42398744804E+03  0.00000000000E+00 0.  1.
</event>
<event>
12    1  0.8331241E-002  0.1965225E+03  0.7818608E-02  0.1152724E+00
         21   -1    0    0  503  502  0.00000000000E+00  0.00000000000E+00  0.50581012928E+02  0.50581012928E+02  0.00000000000E+00 0.  1.
         21   -1    0    0  501  503 -0.00000000000E+00 -0.00000000000E+00 -0.96192849236E+03  0.96192849236E+03  0.00000000000E+00 0.  1.
          6    2    1    2  501    0  0.51830306057E+02 -0.79616758024E+02 -0.68568526176E+03  0.71326960673E+03  0.17194198123E+03 0.  0.
         24    2    3    3    0    0 -0.20607824554E+02 -0.85039772543E+02 -0.49298252986E+03  0.50727658565E+03  0.81494259026E+02 0.  0.
         -6    2    1    2    0  502 -0.51830306057E+02  0.79616758024E+02 -0.22566221767E+03  0.29923989855E+03  0.17203450706E+03 0.  0.
        -24    2    5    5    0    0 -0.66627771210E+02  0.57208438203E+02 -0.24030395613E+03  0.26829529842E+03  0.80773204251E+02 0.  0.
          5    1    3    3  501    0  0.72438130611E+02  0.54230145188E+01 -0.19270273190E+03  0.20599302108E+03  0.47000000000E+01 0. -1.
        -13    1    4    4    0    0  0.29290441625E+02 -0.29416467096E+02 -0.23709236005E+03  0.24069907707E+03  0.00000000000E+00 0.  1.
         14    1    4    4    0    0 -0.49898266179E+02 -0.55623305448E+02 -0.25589016981E+03  0.26657750858E+03  0.00000000000E+00 0. -1.
         -5    1    5    5    0  502  0.14797465153E+02  0.22408319821E+02  0.14641738461E+02  0.30944600132E+02  0.47000000000E+01 0.  1.
         13    1    6    6    0    0 -0.79409682026E+02  0.31854272370E+02 -0.21003366882E+03  0.22679227127E+03  0.00000000000E+00 0. -1.
        -14    1    6    6    0    0  0.12781910816E+02  0.25354165833E+02 -0.30270287308E+02  0.41503027154E+02  0.00000000000E+00 0.  1.
</event>
<event>
12    1  0.8331241E-002  0.1978475E+03  0.7818608E-02  0.1151620E+00
         21   -1    0    0  501  502  0.00000000000E+00  0.00000000000E+00  0.77533800084E+03  0.77533800084E+03  0.00000000000E+00 0. -1.
         21   -1    0    0  502  503 -0.00000000000E+00 -0.00000000000E+00 -0.61422356206E+02  0.61422356206E+02  0.00000000000E+00 0. -1.
         -6    2    1    2    0  503 -0.48742300108E+02 -0.83802933445E+02  0.18009494165E+03  0.26754034115E+03  0.17246710603E+03 0.  0.
        -24    2    3    3    0    0  0.18578764934E+02 -0.96902396130E+02  0.94260142518E+02  0.15757023402E+03  0.78791873303E+02 0.  0.
          6    2    1    2  501    0  0.48742300108E+02  0.83802933445E+02  0.53382070298E+03  0.56922001589E+03  0.17218635279E+03 0.  0.
         24    2    5    5    0    0  0.39865986400E+02  0.23497718662E+02  0.11401763112E+03  0.14498869100E+03  0.76682857652E+02 0.  0.
          5    1    5    5  501    0  0.88763137080E+01  0.60305214783E+02  0.41980307187E+03  0.42423132490E+03  0.47000000000E+01 0. -1.
        -11    1    6    6    0    0  0.29342769089E+02 -0.25179171816E+02  0.61233441302E+02  0.72419079840E+02  0.00000000000E+00 0.  1.
         12    1    6    6    0    0  0.10523217310E+02  0.48676890478E+02  0.52784189817E+02  0.72569611159E+02  0.00000000000E+00 0. -1.
         -5    1    3    3    0  503 -0.67321065042E+02  0.13099462685E+02  0.85834799130E+02  0.10997010713E+03  0.47000000000E+01 0.  1.
         13    1    4    4    0    0 -0.11761205383E+02 -0.83222967400E+02  0.91393366055E+02  0.12416575862E+03  0.00000000000E+00 0. -1.
        -14    1    4    4    0    0  0.30339970317E+02 -0.13679428730E+02  0.28667764626E+01  0.33404475396E+02  0.00000000000E+00 0.  1.
</event>
<event>
12    1  0.8331241E-002  0.1904884E+03  0.7818608E-02  0.1158207E+00
         21   -1    0    0  503  502  0.00000000000E+00  0.00000000000E+00  0.39997131845E+02  0.39997131845E+02  0.00000000000E+00 0. -1.
         21   -1    0    0  501  503 -0.00000000000E+00 -0.00000000000E+00 -0.12198908084E+04  0.12198908084E+04  0.00000000000E+00 0. -1.
          6    2    1    2  501    0  0.17100004014E+02 -0.78363366416E+02 -0.90991821594E+03  0.92947521283E+03  0.17187141771E+03 0.  0.
         24    2    3    3    0    0 -0.57290791193E+02 -0.56793960093E+02 -0.52779842654E+03  0.53955617873E+03  0.77729674430E+02 0.  0.
         -6    2    1    2    0  502 -0.17100004014E+02  0.78363366416E+02 -0.26997546063E+03  0.33041272743E+03  0.17277903164E+03 0.  0.
        -24    2    5    5    0    0  0.44415148028E+02  0.88559115430E+02 -0.17879191562E+03  0.21984783197E+03  0.80938852415E+02 0.  0.
          5    1    3    3  501    0  0.74390795207E+02 -0.21569406323E+02 -0.38211978940E+03  0.38991903410E+03  0.47000000000E+01 0. -1.
        -13    1    4    4    0    0 -0.72578444333E+02 -0.62362832532E+02 -0.44444769230E+03  0.45463227410E+03  0.00000000000E+00 0.  1.
         14    1    4    4    0    0  0.15287653140E+02  0.55688724395E+01 -0.83350734242E+02  0.84923904629E+02  0.00000000000E+00 0. -1.
         -5    1    5    5    0  502 -0.61515152042E+02 -0.10195749014E+02 -0.91183545012E+02  0.11056489547E+03  0.47000000000E+01 0.  1.
         11    1    6    6    0    0  0.15701649004E+02  0.15581682876E+02  0.25573561315E+01  0.22268154236E+02  0.00000000000E+00 0. -1.
        -12    1    6    6    0    0  0.28713499024E+02  0.72977432554E+02 -0.18134927175E+03  0.19757967773E+03  0.00000000000E+00 0.  1.
</event>
<event>
12    1  0.8331241E-002  0.2571373E+03  0.7818608E-02  0.1109281E+00
         21   -1    0    0  501  502  0.00000000000E+00  0.00000000000E+00  0.17392379162E+04  0.17392379162E+04  0.00000000000E+00 0.  1.
         21   -1    0    0  502  503 -0.00000000000E+00 -0.00000000000E+00 -0.37674104958E+02  0.37674104958E+02  0.00000000000E+00 0.  1.
         -6    2    1    2    0  503  0.18780871957E+03  0.23434782336E+02  0.82345221462E+03  0.86266629463E+03  0.17406401686E+03 0.  0.
        -24    2    3    3    0    0  0.14391213034E+03  0.62974618327E+02  0.43076411323E+03  0.46553112350E+03  0.80529509441E+02 0.  0.
          6    2    1    2  501    0 -0.18780871957E+03 -0.23434782336E+02  0.87811159661E+03  0.91424572651E+03  0.17012926900E+03 0.  0.
         24    2    5    5    0    0 -0.12350188458E+03 -0.77014087016E+02  0.65893144273E+03  0.67957970687E+03  0.80337081621E+02 0.  0.
          5    1    5    5  501    0 -0.64306834997E+02  0.53579304680E+02  0.21918015389E+03  0.23466601964E+03  0.47000000000E+01 0. -1.
        -13    1    6    6    0    0 -0.95736134235E+02 -0.68414003499E+02  0.34930208378E+03  0.36858897027E+03  0.00000000000E+00 0.  1.
         14    1    6    6    0    0 -0.27765750343E+02 -0.86000835172E+01  0.30962935894E+03  0.31099073660E+03  0.00000000000E+00 0. -1.
         -5    1    3    3    0  503  0.43896589234E+02 -0.39539835991E+02  0.39268810139E+03  0.39713517114E+03  0.47000000000E+01 0.  1.
         11    1    4    4    0    0 -0.40006598134E+01  0.21386684188E+01 -0.13792628866E+01  0.47414710437E+01  0.00000000000E+00 0. -1.
        -12    1    4    4    0    0  0.14791279015E+03  0.60835949908E+02  0.43214337611E+03  0.46078965246E+03  0.00000000000E+00 0.  1.
</event>
<event>
12    1  0.8331241E-002  0.2017278E+03  0.7818608E-02  0.1148807E+00
         21   -1    0    0  501  502  0.00000000000E+00  0.00000000000E+00  0.36310043101E+03  0.36310043101E+03  0.00000000000E+00 0. -1.
         21   -1    0    0  502  503 -0.00000000000E+00 -0.00000000000E+00 -0.23906103008E+03  0.23906103008E+03  0.00000000000E+00 0. -1.
         -6    2    1    2    0  503 -0.67933990950E+02  0.82807001419E+02 -0.15876810221E+03  0.25477952854E+03  0.16802759080E+03 0.  0.
        -24    2    3    3    0    0 -0.60353880001E+02  0.12021381641E+03 -0.14745755605E+03  0.21469528794E+03  0.79097303006E+02 0.  0.
          6    2    1    2  501    0  0.67933990950E+02 -0.82807001419E+02  0.28280750314E+03  0.34738193255E+03  0.17094471803E+03 0.  0.
         24    2    5    5    0    0  0.10137661849E+03 -0.41900888680E+02  0.25202437271E+03  0.28605159328E+03  0.79223268868E+02 0.  0.
          5    1    5    5  501    0 -0.33442627537E+02 -0.40906112739E+02  0.30783130428E+02  0.61330339270E+02  0.47000000000E+01 0. -1.
        -11    1    6    6    0    0 -0.67977559715E+01 -0.12762883527E+00 -0.17657344994E+01  0.70244995331E+01  0.00000000000E+00 0.  1.
         12    1    6    6    0    0  0.10817437446E+03 -0.41773259845E+02  0.25379010721E+03  0.27902709375E+03  0.00000000000E+00 0. -1.
         -5    1    3    3    0  503 -0.75801109495E+01 -0.37406814986E+02 -0.11310546166E+02  0.40084240594E+02  0.47000000000E+01 0.  1.
         11    1    4    4    0    0 -0.30674412650E+02  0.19538406413E+02 -0.85256868151E+02  0.92689818662E+02  0.00000000000E+00 0. -1.
        -12    1    4    4    0    0 -0.29679467350E+02  0.10067540999E+03 -0.62200687895E+02  0.12200546928E+03  0.00000000000E+00 0.  1.
</event>
<event>
12    1  0.8331241E-002  0.1781846E+03  0.7818608E-02  0.1169634E+00
         21   -1    0    0  501  502  0.00000000000E+00  0.00000000000E+00  0.75643464547E+03  0.75643464547E+03  0.00000000000E+00 0.  1.
         21   -1    0    0  502  503 -0.00000000000E+00 -0.00000000000E+00 -0.45629649843E+02  0.45629649843E+02  0.00000000000E+00 0.  1.
         -6    2    1    2    0  503  0.24168507790E+02  0.40939803426E+02  0.24118005408E+03  0.29986260865E+03  0.17172530771E+03 0.  0.
        -24    2    3    3    0    0 -0.50637050310E+02  0.31577317764E+02  0.16652025684E+03  0.19365666257E+03  0.78820486910E+02 0.  0.
          6    2    1    2  501    0 -0.24168507790E+02 -0.40939803426E+02  0.46962494154E+03  0.50220168666E+03  0.17146067796E+03 0.  0.
         24    2    5    5    0    0  0.12613146920E+02 -0.77960071317E+02  0.22262974905E+03  0.24970989378E+03  0.80957777218E+02 0.  0.
          5    1    5    5  501    0 -0.36781654710E+02  0.37020267891E+02  0.24699519249E+03  0.25249179288E+03  0.47000000000E+01 0. -1.
        -11    1    6    6    0    0  0.16585082449E+01  0.14791067435E+02  0.11381471318E+02  0.18736707684E+02  0.00000000000E+00 0.  1.
         12    1    6    6    0    0  0.10954638675E+02 -0.92751138752E+02  0.21124827773E+03  0.23097318609E+03  0.00000000000E+00 0. -1.
         -5    1    3    3    0  503  0.74805558100E+02  0.93624856623E+01  0.74659797242E+02  0.10620594609E+03  0.47000000000E+01 0.  1.
         13    1    4    4    0    0 -0.19858715269E+02  0.17964615159E+02  0.32746685480E+01  0.26978128624E+02  0.00000000000E+00 0. -1.
        -14    1    4    4    0    0 -0.30778335041E+02  0.13612702605E+02  0.16324558829E+03  0.16667853394E+03  0.00000000000E+00 0.  1.
</event>
<event>
12    1  0.8331241E-002  0.2197449E+03  0.7818608E-02  0.1134102E+00
         21   -1    0    0  501  502  0.00000000000E+00  0.00000000000E+00  0.98827065397E+03  0.98827065397E+03  0.00000000000E+00 0. -1.
         21   -1    0    0  502  503 -0.00000000000E+00 -0.00000000000E+00 -0.12031530960E+03  0.12031530960E+03  0.00000000000E+00 0. -1.
         -6    2    1    2    0  503  0.16609627036E+02  0.13559467843E+03  0.67742967705E+01  0.21984925845E+03  0.17212207533E+03 0.  0.
        -24    2    3    3    0    0  0.35484183538E+02  0.35729626690E+01 -0.42272579440E+01  0.85949644856E+02  0.78086992499E+02 0.  0.
          6    2    1    2  501    0 -0.16609627036E+02 -0.13559467843E+03  0.86118104761E+03  0.88873670511E+03  0.17192538420E+03 0.  0.
         24    2    5    5    0    0 -0.67336441781E+02 -0.85083544407E+02  0.39244627741E+03  0.41454374947E+03  0.77839794760E+02 0.  0.
          5    1    5    5  501    0  0.50726814746E+02 -0.50511134021E+02  0.46873477020E+03  0.47419295565E+03  0.47000000000E+01 0. -1.
        -13    1    6    6    0    0 -0.70734927070E+02 -0.47788574002E+02  0.33693914756E+03  0.34758476214E+03  0.00000000000E+00 0.  1.
         14    1    6    6    0    0  0.33984852882E+01 -0.37294970405E+02  0.55507129850E+02  0.66958987327E+02  0.00000000000E+00 0. -1.
         -5    1    3    3    0  503 -0.18874556502E+02  0.13202171576E+03  0.11001554714E+02  0.13389961360E+03  0.47000000000E+01 0.  1.
         11    1    4    4    0    0 -0.10511817900E+02  0.23471644110E+02 -0.20893411555E+02  0.33135344259E+02  0.00000000000E+00 0. -1.
        -12    1    4    4    0    0  0.45996001438E+02 -0.19898681441E+02  0.16666153611E+02  0.52814300597E+02  0.00000000000E+00 0.  1.
</event>
<event>
12    1  0.8331241E-002  0.1898534E+03  0.7818608E-02  0.1158715E+00
         21   -1    0    0  503  502  0.00000000000E+00  0.00000000000E+00  0.98847828100E+03  0.98847828100E+03  0.00000000000E+00 0. -1.
         21   -1    0    0  501  503 -0.00000000000E+00 -0.00000000000E+00 -0.47217483694E+02  0.47217483694E+02  0.00000000000E+00 0. -1.
          6    2    1    2  501    0  0.70216073131E+02 -0.37229068232E+02  0.22181178267E+03  0.29161834001E+03  0.17182691540E+03 0.  0.
         24    2    3    3    0    0 -0.17520782843E+02 -0.41261478413E+02  0.15955296511E+03  0.18385811270E+03  0.79606340800E+02 0.  0.
         -6    2    1    2    0  502 -0.70216073131E+02  0.37229068232E+02  0.71944901464E+03  0.74407742468E+03  0.17241818004E+03 0.  0.
        -24    2    5    5    0    0  0.28985715805E+02  0.14839167963E+02  0.28696803215E+03  0.29977550844E+03  0.80338853347E+02 0.  0.
          5    1    3    3  501    0  0.87736855974E+02  0.40324101808E+01  0.62258817553E+02  0.10776022732E+03  0.47000000000E+01 0. -1.
        -11    1    4    4    0    0 -0.36833952794E+01  0.23866965950E+02  0.33446967157E+02  0.41254079512E+02  0.00000000000E+00 0.  1.
         12    1    4    4    0    0 -0.13837387563E+02 -0.65128444363E+02  0.12610599796E+03  0.14260403318E+03  0.00000000000E+00 0. -1.
         -5    1    5    5    0  502 -0.99201788936E+02  0.22389900269E+02  0.43248098248E+03  0.44430191624E+03  0.47000000000E+01 0.  1.
         11    1    6    6    0    0 -0.15326142398E+02 -0.23200867498E+02  0.78369165823E+02  0.83155859958E+02  0.00000000000E+00 0. -1.
        -12    1    6    6    0    0  0.44311858203E+02  0.38040035462E+02  0.20859886633E+03  0.21661964849E+03  0.00000000000E+00 0.  1.
</event>
<event>
12    1  0.8331241E-002  0.2726490E+03  0.7818608E-02  0.1100360E+00
         21   -1    0    0  503  502  0.00000000000E+00  0.00000000000E+00  0.13172733448E+03  0.13172733448E+03  0.00000000000E+00 0.  1.
         21   -1    0    0  501  503 -0.00000000000E+00 -0.00000000000E+00 -0.59519567335E+03  0.59519567335E+03  0.00000000000E+00 0. -1.
          6    2    1    2  501    0  0.16886410217E+03 -0.11928937282E+03 -0.32685724019E+03  0.42564437604E+03  0.17774262269E+03 0.  0.
         24    2    3    3    0    0  0.17445948477E+03 -0.81600953852E+02 -0.32604766751E+03  0.38724553962E+03  0.80976533462E+02 0.  0.
         -6    2    1    2    0  502 -0.16886410217E+03  0.11928937282E+03 -0.13661109868E+03  0.30127863179E+03  0.17135104965E+03 0.  0.
        -24    2    5    5    0    0 -0.41268295972E+02  0.12052534249E+03 -0.67600190253E+02  0.15613452111E+03  0.59822842853E+02 0.  0.
          5    1    3    3  501    0 -0.55953825937E+01 -0.37688418970E+02 -0.80957267940E+00  0.38398836424E+02  0.47000000000E+01 0. -1.
        -11    1    4    4    0    0  0.10595349272E+02  0.13312089487E+02 -0.13136389399E+02  0.21495066391E+02  0.00000000000E+00 0.  1.
         12    1    4    4    0    0  0.16386413549E+03 -0.94913043339E+02 -0.31291127811E+03  0.36575047323E+03  0.00000000000E+00 0. -1.
         -5    1    5    5    0  502 -0.12759580620E+03 -0.12359696646E+01 -0.69010908430E+02  0.14514411067E+03  0.47000000000E+01 0.  1.
         13    1    6    6    0    0 -0.54900047426E+02  0.92452776773E+02 -0.40821065169E+02  0.11501256671E+03  0.00000000000E+00 0. -1.
        -14    1    6    6    0    0  0.13631751453E+02  0.28072565713E+02 -0.26779125083E+02  0.41121954400E+02  0.00000000000E+00 0.  1.
</event>
<event>
12    1  0.8331241E-002  0.1830224E+03  0.7818608E-02  0.1165048E+00
         21   -1    0    0  501  502  0.00000000000E+00  0.00000000000E+00  0.34800148683E+02  0.34800148683E+02  0.00000000000E+00 0.  1.
         21   -1    0    0  502  503 -0.00000000000E+00 -0.00000000000E+00 -0.96189450253E+03  0.96189450253E+03  0.00000000000E+00 0.  1.
         -6    2    1    2    0  503  0.17049311083E+01  0.62294122194E+02 -0.43785897885E+03  0.47434566211E+03  0.17146386602E+03 0.  0.
        -24    2    3    3    0    0 -0.42740785207E+02  0.85218088668E+02 -0.36218309644E+03  0.38351692703E+03  0.82581720821E+02 0.  0.
          6    2    1    2  501    0 -0.17049311083E+01 -0.62294122194E+02 -0.48923537499E+03  0.52234898910E+03  0.17208646030E+03 0.  0.
         24    2    5    5    0    0 -0.43621637091E+02 -0.82464274517E+02 -0.42958714496E+03  0.44656081963E+03  0.78538186396E+02 0.  0.
          5    1    5    5  501    0  0.41916705982E+02  0.20170152323E+02 -0.59648230031E+02  0.75788169466E+02  0.47000000000E+01 0. -1.
        -11    1    6    6    0    0 -0.32337116444E+02  0.58224186160E+01 -0.10850391054E+03  0.11336969727E+03  0.00000000000E+00 0.  1.
         12    1    6    6    0    0 -0.11284520647E+02 -0.88286693133E+02 -0.32108323442E+03  0.33319112236E+03  0.00000000000E+00 0. -1.
         -5    1    3    3    0  503  0.44445716315E+02 -0.22923966474E+02 -0.75675882407E+02  0.90828735078E+02  0.47000000000E+01 0.  1.
         11    1    4    4    0    0  0.12987573912E+02  0.31240558568E+02 -0.20990291414E+03  0.21261204797E+03  0.00000000000E+00 0. -1.
        -12    1    4    4    0    0 -0.55728359119E+02  0.53977530100E+02 -0.15228018230E+03  0.17090487906E+03  0.00000000000E+00 0.  1.
</event>
<event>
12    1  0.8331241E-002  0.1792048E+03  0.7818608E-02  0.1169244E+00
         21   -1    0    0  501  502  0.00000000000E+00  0.00000000000E+00  0.21124230955E+02  0.21124230955E+02  0.00000000000E+00 0. -1.
         21   -1    0    0  502  503 -0.00000000000E+00 -0.00000000000E+00 -0.14992157502E+04  0.14992157502E+04  0.00000000000E+00 0.  1.
         -6    2    1    2    0  503  0.41664809905E+02 -0.26025814386E+02 -0.71701451709E+03  0.73906979867E+03  0.17233992630E+03 0.  0.
        -24    2    3    3    0    0  0.24274588288E+02  0.24679483024E+02 -0.63557529420E+03  0.64145891804E+03  0.79468587617E+02 0.  0.
          6    2    1    2  501    0 -0.41664809905E+02  0.26025814386E+02 -0.76107700219E+03  0.78127018252E+03  0.16950396876E+03 0.  0.
         24    2    5    5    0    0  0.22688751254E+01  0.62511650404E+02 -0.63323568762E+03  0.64117422746E+03  0.78766107305E+02 0.  0.
          5    1    5    5  501    0 -0.43933685030E+02 -0.36485836018E+02 -0.12784131457E+03  0.14009595505E+03  0.47000000000E+01 0. -1.
        -13    1    6    6    0    0  0.31604492566E+01  0.72767662369E+02 -0.62067381577E+03  0.62493288176E+03  0.00000000000E+00 0.  1.
         14    1    6    6    0    0 -0.89157413124E+00 -0.10256011965E+02 -0.12561871851E+02  0.16241345704E+02  0.00000000000E+00 0. -1.
         -5    1    3    3    0  503  0.17390221617E+02 -0.50705297410E+02 -0.81439222891E+02  0.97610880635E+02  0.47000000000E+01 0.  1.
         11    1    4    4    0    0  0.14817370950E+01  0.81840920447E+01 -0.39503109127E+01  0.92075981516E+01  0.00000000000E+00 0. -1.
        -12    1    4    4    0    0  0.22792851193E+02  0.16495390979E+02 -0.63162498328E+03  0.63225131988E+03  0.00000000000E+00 0.  1.
</event>
<event>
12    1  0.8331241E-002  0.2741859E+03  0.7818608E-02  0.1099051E+00
         21   -1    0    0  501  502  0.00000000000E+00  0.00000000000E+00  0.50414811153E+03  0.50414811153E+03  0.00000000000E+00 0. -1.
         21   -1    0    0  502  503 -0.00000000000E+00 -0.00000000000E+00 -0.32434828526E+03  0.32434828526E+03  0.00000000000E+00 0.  1.
         -6    2    1    2    0  503  0.93740347979E+01  0.21247749083E+03 -0.21513965701E+03  0.34771046022E+03  0.17141451366E+03 0.  0.
        -24    2    3    3    0    0  0.46367360864E+02  0.18505535777E+03 -0.11258704006E+03  0.23519553322E+03  0.79029612583E+02 0.  0.
          6    2    1    2  501    0 -0.93740347979E+01 -0.21247749083E+03  0.39493948328E+03  0.48078593657E+03  0.17304151153E+03 0.  0.
         24    2    5    5    0    0 -0.26972037464E+02 -0.23071020216E+03  0.32722047823E+03  0.40832853456E+03  0.75526568696E+02 0.  0.
          5    1    5    5  501    0  0.17598002666E+02  0.18232711335E+02  0.67719005054E+02  0.72457402010E+02  0.47000000000E+01 0. -1.
        -13    1    6    6    0    0  0.89613485039E+01 -0.95327396341E+01  0.17778607595E+01  0.13203775249E+02  0.00000000000E+00 0.  1.
         14    1    6    6    0    0 -0.35933385968E+02 -0.22117746253E+03  0.32544261747E+03  0.39512475931E+03  0.00000000000E+00 0. -1.
         -5    1    3    3    0  503 -0.36993326066E+02  0.27422133055E+02 -0.10255261695E+03  0.11251492700E+03  0.47000000000E+01 0.  1.
         13    1    4    4    0    0 -0.51834737738E+01  0.13337373328E+03 -0.74574876381E+02  0.15289484398E+03  0.00000000000E+00 0. -1.
        -14    1    4    4    0    0  0.51550834638E+02  0.51681624496E+02 -0.38012163682E+02  0.82300689245E+02  0.00000000000E+00 0.  1.
</event>
<event>
12    1  0.8331241E-002  0.2390063E+03  0.7818608E-02  0.1120592E+00
         21   -1    0    0  503  502  0.00000000000E+00  0.00000000000E+00  0.33856369103E+03  0.33856369103E+03  0.00000000000E+00 0. -1.
         21   -1    0    0  501  503 -0.00000000000E+00 -0.00000000000E+00 -0.22476419276E+03  0.22476419276E+03  0.00000000000E+00 0. -1.
          6    2    1    2  501    0 -0.13705596399E+03 -0.88679395948E+02 -0.84528848850E+02  0.25275073245E+03  0.17346306217E+03 0.  0.
         24    2    3    3    0    0 -0.14314048745E+03 -0.50227620801E+02 -0.14471775746E+02  0.17246596472E+03  0.80765485542E+02 0.  0.
         -6    2    1    2    0  502  0.13705596399E+03  0.88679395948E+02  0.19832834712E+03  0.31057715134E+03  0.17457279609E+03 0.  0.
        -24    2    5    5    0    0  0.15616724810E+03  0.10683424080E+03  0.14733523275E+03  0.25298177579E+03  0.80562669312E+02 0.  0.
          5    1    3    3  501    0  0.60845234622E+01 -0.38451775147E+02 -0.70057073104E+02  0.80284767731E+02  0.47000000000E+01 0. -1.
        -11    1    4    4    0    0 -0.98944162558E+02 -0.72210147859E+02 -0.10878753893E+02  0.12297398117E+03  0.00000000000E+00 0.  1.
         12    1    4    4    0    0 -0.44196324892E+02  0.21982527058E+02 -0.35930218530E+01  0.49491983551E+02  0.00000000000E+00 0. -1.
         -5    1    5    5    0  502 -0.19111284113E+02 -0.18154844847E+02  0.50993114370E+02  0.57595375552E+02  0.47000000000E+01 0.  1.
         11    1    6    6    0    0  0.38789299109E+02  0.58354772562E+02  0.88878919055E+02  0.11317840544E+03  0.00000000000E+00 0. -1.
        -12    1    6    6    0    0  0.11737794899E+03  0.48479468233E+02  0.58456313693E+02  0.13980337035E+03  0.00000000000E+00 0.  1.
</event>
<event>
12    1  0.8331241E-002  0.4961308E+03  0.7818608E-02  0.1014955E+00
         21   -1    0    0  503  502  0.00000000000E+00  0.00000000000E+00  0.11759817441E+04  0.11759817441E+04  0.00000000000E+00 0. -1.
         21   -1    0    0  501  503 -0.00000000000E+00 -0.00000000000E+00 -0.30088730483E+03  0.30088730483E+03  0.00000000000E+00 0.  1.
          6    2    1    2  501    0 -0.20599128852E+03  0.41411379122E+03  0.28634684803E+02  0.49695644658E+03  0.17950799870E+03 0.  0.
         24    2    3    3    0    0 -0.92125355834E+02  0.25264989710E+03 -0.35906507043E+02  0.28905335575E+03  0.99717167680E+02 0.  0.
         -6    2    1    2    0  502  0.20599128852E+03 -0.41411379122E+03  0.84645975446E+03  0.97991260235E+03  0.17266137171E+03 0.  0.
        -24    2    5    5    0    0  0.11129986485E+03 -0.19209170469E+03  0.54044780241E+03  0.59013615690E+03  0.83005864999E+02 0.  0.
          5    1    3    3  501    0 -0.11386593269E+03  0.16146389412E+03  0.64541191846E+02  0.20790309083E+03  0.47000000000E+01 0. -1.
        -11    1    4    4    0    0 -0.10159300397E+03  0.13589141410E+03 -0.21960165263E+02  0.17108437609E+03  0.00000000000E+00 0.  1.
         12    1    4    4    0    0  0.94676481399E+01  0.11675848300E+03 -0.13946341780E+02  0.11796897967E+03  0.00000000000E+00 0. -1.
         -5    1    5    5    0  502  0.94691423673E+02 -0.22202208653E+03  0.30601195205E+03  0.38977644544E+03  0.47000000000E+01 0.  1.
         13    1    6    6    0    0  0.36649813072E+02 -0.14266718433E+03  0.34743981848E+03  0.37737456425E+03  0.00000000000E+00 0. -1.
        -14    1    6    6    0    0  0.74650051777E+02 -0.49424520362E+02  0.19300798393E+03  0.21276159265E+03  0.00000000000E+00 0.  1.
</event>
<event>
12    1  0.8331241E-002  0.2968291E+03  0.7818608E-02  0.1087071E+00
         21   -1    0    0  501  502  0.00000000000E+00  0.00000000000E+00  0.37788239502E+03  0.37788239502E+03  0.00000000000E+00 0.  1.
         21   -1    0    0  502  503 -0.00000000000E+00 -0.00000000000E+00 -0.63650358380E+03  0.63650358380E+03  0.00000000000E+00 0. -1.
         -6    2    1    2    0  503 -0.95454804920E+02  0.21934029012E+03 -0.53363504691E+03  0.60973781132E+03  0.17260374447E+03 0.  0.
        -24    2    3    3    0    0 -0.44638823801E+02  0.95917717670E+02 -0.40143965340E+03  0.42181999047E+03  0.74736041384E+02 0.  0.
          6    2    1    2  501    0  0.95454804920E+02 -0.21934029012E+03  0.27501385813E+03  0.40464816750E+03  0.17574337723E+03 0.  0.
         24    2    5    5    0    0  0.75231612654E+02 -0.16668893871E+03  0.28494123435E+03  0.34718700575E+03  0.76826506478E+02 0.  0.
          5    1    5    5  501    0  0.20223192267E+02 -0.52651351414E+02 -0.99273762165E+01  0.57461161751E+02  0.47000000000E+01 0. -1.
        -11    1    6    6    0    0  0.39975763811E+02 -0.25329688506E+02  0.38960651789E+02  0.61299161494E+02  0.00000000000E+00 0.  1.
         12    1    6    6    0    0  0.35255848843E+02 -0.14135925020E+03  0.24598058256E+03  0.28588784425E+03  0.00000000000E+00 0. -1.
         -5    1    3    3    0  503 -0.50815981120E+02  0.12342257245E+03 -0.13219539351E+03  0.18791782085E+03  0.47000000000E+01 0.  1.
         13    1    4    4    0    0 -0.57367321507E+02  0.99922054058E+02 -0.34150506927E+03  0.36041800566E+03  0.00000000000E+00 0. -1.
        -14    1    4    4    0    0  0.12728497707E+02 -0.40043363883E+01 -0.59934584128E+02  0.61401984808E+02  0.00000000000E+00 0.  1.
</event>
<event>
12    1  0.8331241E-002  0.1815813E+03  0.7818608E-02  0.1167084E+00
         21   -1    0    0  503  502  0.00000000000E+00  0.00000000000E+00  0.45231428182E+03  0.45231428182E+03  0.00000000000E+00 0. -1.
         21   -1    0    0  501  503 -0.00000000000E+00 -0.00000000000E+00 -0.11103447967E+03  0.11103447967E+03  0.00000000000E+00 0. -1.
          6    2    1    2  501    0 -0.38033253904E+02  0.31082961948E+02  0.37274269559E+01  0.18161953343E+03  0.17481156222E+03 0.  0.
         24    2    3    3    0    0  0.25037976670E+02 -0.33230813603E+02  0.17801361956E+02  0.90326557255E+02  0.78171677798E+02 0.  0.
         -6    2    1    2    0  502  0.38033253904E+02 -0.31082961948E+02  0.33755237519E+03  0.38172922807E+03  0.17135611642E+03 0.  0.
        -24    2    5    5    0    0  0.58183244469E+02 -0.42007018249E+02  0.10800104790E+03  0.15098855330E+03  0.77352681679E+02 0.  0.
          5    1    3    3  501    0 -0.63071230574E+02  0.64313775550E+02 -0.14073935000E+02  0.91292976170E+02  0.47000000000E+01 0. -1.
        -13    1    4    4    0    0  0.45958076586E+01  0.88667540308E+01  0.38047512168E+02  0.39336420239E+02  0.00000000000E+00 0.  1.
         14    1    4    4    0    0  0.20442169011E+02 -0.42097567633E+02 -0.20246150212E+02  0.50990137016E+02  0.00000000000E+00 0. -1.
         -5    1    5    5    0  502 -0.20149990565E+02  0.10924056301E+02  0.22955132730E+03  0.23074067476E+03  0.47000000000E+01 0.  1.
         13    1    6    6    0    0  0.17077385572E+01  0.12801868227E+02  0.54052262088E+02  0.55573835912E+02  0.00000000000E+00 0. -1.
        -14    1    6    6    0    0  0.56475505912E+02 -0.54808886476E+02  0.53948785807E+02  0.95414717391E+02  0.00000000000E+00 0.  1.
</event>
<event>
12    1  0.8331241E-002  0.2235566E+03  0.7818608E-02  0.1132019E+00
         21   -1    0    0  503  502  0.00000000000E+00  0.00000000000E+00  0.20745167591E+03  0.20745167591E+03  0.00000000000E+00 0. -1.
         21   -1    0    0  501  503 -0.00000000000E+00 -0.00000000000E+00 -0.33492139401E+03  0.33492139401E+03  0.00000000000E+00 0.  1.
          6    2    1    2  501    0  0.24834339625E+02  0.14158239901E+03 -0.21032778701E+03  0.30395536022E+03  0.16579735489E+03 0.  0.
         24    2    3    3    0    0  0.49121843571E+02  0.56914892161E+02 -0.48082460217E+02  0.11928239082E+03  0.79146101061E+02 0.  0.
         -6    2    1    2    0  502 -0.24834339625E+02 -0.14158239901E+03  0.82858068911E+02  0.23841770970E+03  0.17121689338E+03 0.  0.
        -24    2    5    5    0    0 -0.24586268667E+02 -0.17255412717E+03  0.65523167641E+02  0.20261410253E+03  0.79873510239E+02 0.  0.
          5    1    3    3  501    0 -0.24287503945E+02  0.84667506852E+02 -0.16224532679E+03  0.18467296941E+03  0.47000000000E+01 0. -1.
        -13    1    4    4    0    0  0.35645439094E+02  0.61730420117E+02 -0.65453903986E+02  0.96775284257E+02  0.00000000000E+00 0.  1.
         14    1    4    4    0    0  0.13476404477E+02 -0.48155279562E+01  0.17371443769E+02  0.22507106561E+02  0.00000000000E+00 0. -1.
         -5    1    5    5    0  502 -0.24807095863E+00  0.30971728154E+02  0.17334901270E+02  0.35803607166E+02  0.47000000000E+01 0.  1.
         11    1    6    6    0    0  0.25760124125E+02 -0.92695660104E+02  0.43974018528E+02  0.10578177396E+03  0.00000000000E+00 0. -1.
        -12    1    6    6    0    0 -0.50346392792E+02 -0.79858467063E+02  0.21549149112E+02  0.96832328570E+02  0.00000000000E+00 0.  1.
</event>
<event>
12    1  0.8331241E-002  0.1956001E+03  0.7818608E-02  0.1153743E+00
         21   -1    0    0  501  502  0.00000000000E+00  0.00000000000E+00  0.14654871429E+03  0.14654871429E+03  0.00000000000E+00 0.  1.
         21   -1    0    0  502  503 -0.00000000000E+00 -0.00000000000E+00 -0.42284560600E+03  0.42284560600E+03  0.00000000000E+00 0.  1.
         -6    2    1    2    0  503 -0.89028190681E+02  0.41701709952E+02 -0.31527027926E+03  0.37101855028E+03  0.16909868220E+03 0.  0.
        -24    2    3    3    0    0  0.16442689072E+02  0.13593824173E+02 -0.17449953531E+03  0.19282581174E+03  0.79224691656E+02 0.  0.
          6    2    1    2  501    0  0.89028190681E+02 -0.41701709952E+02  0.38973387548E+02  0.19837577001E+03  0.16783613986E+03 0.  0.
         24    2    5    5    0    0  0.99212979747E+02 -0.30777272114E+02  0.80514512525E+02  0.15398175764E+03  0.80233030161E+02 0.  0.
          5    1    5    5  501    0 -0.10184789066E+02 -0.10924437837E+02 -0.41541124977E+02  0.44394012375E+02  0.47000000000E+01 0. -1.
        -13    1    6    6    0    0  0.89812118496E+02 -0.29848468405E+02  0.25300727495E+02  0.97965680249E+02  0.00000000000E+00 0.  1.
         14    1    6    6    0    0  0.94008612505E+01 -0.92880370960E+00  0.55213785030E+02  0.56016077387E+02  0.00000000000E+00 0. -1.
         -5    1    3    3    0  503 -0.10547087975E+03  0.28107885779E+02 -0.14077074394E+03  0.17819273854E+03  0.47000000000E+01 0.  1.
         11    1    4    4    0    0  0.65488594403E+01 -0.13213086126E-01  0.75534546151E+01  0.99971201442E+01  0.00000000000E+00 0. -1.
        -12    1    4    4    0    0  0.98938296315E+01  0.13607037259E+02 -0.18205298993E+03  0.18282869159E+03  0.00000000000E+00 0.  1.
</event>
<event>
12    1  0.8331241E-002  0.1818314E+03  0.7818608E-02  0.1166617E+00
         21   -1    0    0  503  502  0.00000000000E+00  0.00000000000E+00  0.20966350045E+03  0.20966350045E+03  0.00000000000E+00 0. -1.
         21   -1    0    0  501  503 -0.00000000000E+00 -0.00000000000E+00 -0.15635743112E+03  0.15635743112E+03  0.00000000000E+00 0. -1.
          6    2    1    2  501    0  0.17778846713E+02 -0.49379842841E+02  0.13969275485E+02  0.17998318376E+03  0.17159355905E+03 0.  0.
         24    2    3    3    0    0  0.40810085231E+02 -0.68155642243E+02 -0.39395746853E+02  0.11872239532E+03  0.78945092654E+02 0.  0.
         -6    2    1    2    0  502 -0.17778846713E+02  0.49379842841E+02  0.39336793846E+02  0.18603774781E+03  0.17409251561E+03 0.  0.
        -24    2    5    5    0    0  0.53645640038E+02  0.53883021319E+02  0.27215139269E+02  0.11330013420E+03  0.79467112205E+02 0.  0.
          5    1    3    3  501    0 -0.23031238518E+02  0.18775799402E+02  0.53365022338E+02  0.61260788438E+02  0.47000000000E+01 0. -1.
        -11    1    4    4    0    0 -0.52124124207E+01  0.11548419921E+02  0.82146685191E+01  0.15100199495E+02  0.00000000000E+00 0.  1.
         12    1    4    4    0    0  0.46022497652E+02 -0.79704062164E+02 -0.47610415372E+02  0.10362219582E+03  0.00000000000E+00 0. -1.
         -5    1    5    5    0  502 -0.71424486751E+02 -0.45031784782E+01  0.12121654577E+02  0.72737613610E+02  0.47000000000E+01 0.  1.
         13    1    6    6    0    0 -0.18729465311E+02  0.17214058327E+02  0.19000345044E+02  0.31751059615E+02  0.00000000000E+00 0. -1.
        -14    1    6    6    0    0  0.72375105348E+02  0.36668962993E+02  0.82147942249E+01  0.81549074582E+02  0.00000000000E+00 0.  1.
</event>
<event>
12    1  0.8331241E-002  0.1849958E+03  0.7818608E-02  0.1163305E+00
         21   -1    0    0  503  502  0.00000000000E+00  0.00000000000E+00  0.85891392926E+03  0.85891392926E+03  0.00000000000E+00 0. -1.
         21   -1    0    0  501  503 -0.00000000000E+00 -0.00000000000E+00 -0.44485004324E+02  0.44485004324E+02  0.00000000000E+00 0.  1.
          6    2    1    2  501    0  0.68651225472E+02 -0.27247759410E+01  0.25880284636E+03  0.31812315879E+03  0.17176441922E+03 0.  0.
         24    2    3    3    0    0  0.60804214820E+02  0.40164395573E+02  0.79378693856E+02  0.13341751970E+03  0.78669729332E+02 0.  0.
         -6    2    1    2    0  502 -0.68651225472E+02  0.27247759410E+01  0.55562607857E+03  0.58527577479E+03  0.17060767335E+03 0.  0.
        -24    2    5    5    0    0 -0.25175501780E+02 -0.62321774100E+02  0.28707837974E+03  0.30552383330E+03  0.80081253617E+02 0.  0.
          5    1    3    3  501    0  0.78470106520E+01 -0.42889171514E+02  0.17942415251E+03  0.18470563909E+03  0.47000000000E+01 0. -1.
        -11    1    4    4    0    0  0.34930098605E+02  0.31992089824E+02  0.92010795825E+02  0.10348715934E+03  0.00000000000E+00 0.  1.
         12    1    4    4    0    0  0.25874116215E+02  0.81723057487E+01 -0.12632101969E+02  0.29930360361E+02  0.00000000000E+00 0. -1.
         -5    1    5    5    0  502 -0.43475723692E+02  0.65046550041E+02  0.26854769883E+03  0.27975194150E+03  0.47000000000E+01 0.  1.
         11    1    6    6    0    0 -0.10940815115E+01 -0.88988475103E+01  0.20210448217E+03  0.20230325804E+03  0.00000000000E+00 0. -1.
        -12    1    6    6    0    0 -0.24081420269E+02 -0.53422926590E+02  0.84973897575E+02  0.10322057526E+03  0.00000000000E+00 0.  1.
</event>
<event>
12    1  0.8331241E-002  0.1897063E+03  0.7818608E-02  0.1159353E+00
         21   -1    0    0  503  502  0.00000000000E+00  0.00000000000E+00  0.27558708643E+03  0.27558708643E+03  0.00000000000E+00 0. -1.
         21   -1    0    0  501  503 -0.00000000000E+00 -0.00000000000E+00 -0.12985020244E+03  0.12985020244E+03  0.00000000000E+00 0. -1.
          6    2    1    2  501    0 -0.41425383328E+02 -0.59688219394E+02  0.54330271686E+02  0.19733290278E+03  0.17524197608E+03 0.  0.
         24    2    3    3    0    0 -0.51188035935E+02 -0.10584117044E+03  0.50676485342E+02  0.14978456495E+03  0.77747934692E+02 0.  0.
         -6    2    1    2    0  502  0.41425383328E+02  0.59688219394E+02  0.91406612308E+02  0.20810438609E+03  0.17226003836E+03 0.  0.
        -24    2    5    5    0    0 -0.27498120260E+02  0.35381547719E+02  0.99646400285E+02  0.13440738655E+03  0.78281159499E+02 0.  0.
          5    1    3    3  501    0  0.97626526075E+01  0.46152951043E+02  0.36537863440E+01  0.47548337832E+02  0.47000000000E+01 0. -1.
        -11    1    4    4    0    0 -0.48749288107E+02 -0.34451179825E+02 -0.40017001660E+01  0.59828007543E+02  0.00000000000E+00 0.  1.
         12    1    4    4    0    0 -0.24387478281E+01 -0.71389990611E+02  0.54678185508E+02  0.89956557409E+02  0.00000000000E+00 0. -1.
         -5    1    5    5    0  502  0.68923503588E+02  0.24306671675E+02 -0.82397879769E+01  0.73696999536E+02  0.47000000000E+01 0.  1.
         11    1    6    6    0    0 -0.11344567629E+02 -0.23121458871E+01 -0.11267116872E+02  0.16155282600E+02  0.00000000000E+00 0. -1.
        -12    1    6    6    0    0 -0.16153552632E+02  0.37693693606E+02  0.11091351716E+03  0.11825210395E+03  0.00000000000E+00 0.  1.
</event>
<event>
12    1  0.8331241E-002  0.1846011E+03  0.7818608E-02  0.1163526E+00
         21   -1    0    0  503  502  0.00000000000E+00  0.00000000000E+00  0.51580127746E+02  0.51580127746E+02  0.00000000000E+00 0.  1.
         21   -1    0    0  501  503 -0.00000000000E+00 -0.00000000000E+00 -0.65980686055E+03  0.65980686055E+03  0.00000000000E+00 0. -1.
          6    2    1    2  501    0  0.64207510875E+02 -0.21400138300E+02 -0.31615380387E+03  0.36610217342E+03  0.17174691644E+03 0.  0.
         24    2    3    3    0    0  0.98068513025E+02 -0.52398048426E+02 -0.22002550293E+03  0.25947113600E+03  0.80938617188E+02 0.  0.
         -6    2    1    2    0  502 -0.64207510875E+02  0.21400138300E+02 -0.29207292893E+03  0.34528481487E+03  0.17127299028E+03 0.  0.
        -24    2    5    5    0    0 -0.46821538003E+02  0.41059336930E+02 -0.30063602455E+03  0.31728173022E+03  0.80047182988E+02 0.  0.
          5    1    3    3  501    0 -0.33861002150E+02  0.30997910126E+02 -0.96128300946E+02  0.10663103742E+03  0.47000000000E+01 0. -1.
        -13    1    4    4    0    0 -0.33345935749E+01 -0.25922602711E+02 -0.17554832556E+02  0.31484488112E+02  0.00000000000E+00 0.  1.
         14    1    4    4    0    0  0.10140310660E+03 -0.26475445715E+02 -0.20247067037E+03  0.22798664789E+03  0.00000000000E+00 0. -1.
         -5    1    5    5    0  502 -0.17385972872E+02 -0.19659198629E+02  0.85630956223E+01  0.28003084653E+02  0.47000000000E+01 0.  1.
         13    1    6    6    0    0 -0.20183230954E+02  0.63078319058E+02 -0.21372363515E+03  0.22374992596E+03  0.00000000000E+00 0. -1.
        -14    1    6    6    0    0 -0.26638307048E+02 -0.22018982128E+02 -0.86912389405E+02  0.93531804262E+02  0.00000000000E+00 0.  1.
</event>
<event>
12    1  0.8331241E-002  0.3241473E+03  0.7818608E-02  0.1073828E+00
         21   -1    0    0  501  502  0.00000000000E+00  0.00000000000E+00  0.59225580348E+03  0.59225580348E+03  0.00000000000E+00 0.  1.
         21   -1    0    0  502  503 -0.00000000000E+00 -0.00000000000E+00 -0.17748866724E+03  0.17748866724E+03  0.00000000000E+00 0. -1.
         -6    2    1    2    0  503  0.59788374033E+02 -0.26759382807E+03  0.18832014222E+03  0.37433365060E+03  0.17169769804E+03 0.  0.
        -24    2    3    3    0    0 -0.18920352456E+02 -0.17617749410E+03  0.76158877880E+02  0.20954818716E+03  0.81937652503E+02 0.  0.
          6    2    1    2  501    0 -0.59788374033E+02  0.26759382807E+03  0.22644699401E+03  0.39541082012E+03  0.17288831391E+03 0.  0.
         24    2    5    5    0    0 -0.64066468841E+02  0.80828222852E+02  0.59671715084E+02  0.14493970992E+03  0.82517221784E+02 0.  0.
          5    1    5    5  501    0  0.42780948077E+01  0.18676560521E+03  0.16677527893E+03  0.25047111021E+03  0.47000000000E+01 0. -1.
        -11    1    6    6    0    0 -0.11713118166E+02  0.64509498024E+02  0.61746494670E+02  0.90062767426E+02  0.00000000000E+00 0.  1.
         12    1    6    6    0    0 -0.52353350675E+02  0.16318724829E+02 -0.20747795859E+01  0.54876942492E+02  0.00000000000E+00 0. -1.
         -5    1    3    3    0  503  0.78708726489E+02 -0.91416333968E+02  0.11216126434E+03  0.16478546344E+03  0.47000000000E+01 0.  1.
         13    1    4    4    0    0  0.31131007784E+02 -0.91627452802E+02  0.33133121431E+02  0.10228652643E+03  0.00000000000E+00 0. -1.
        -14    1    4    4    0    0 -0.50051360239E+02 -0.84550041296E+02  0.43025756449E+02  0.10726166073E+03  0.00000000000E+00 0.  1.
</event>
<event>
12    1  0.8331241E-002  0.1840685E+03  0.7818608E-02  0.1164259E+00
         21   -1    0    0  501  502  0.00000000000E+00  0.00000000000E+00  0.22553899601E+03  0.22553899601E+03  0.00000000000E+00 0. -1.
         21   -1    0    0  502  503 -0.00000000000E+00 -0.00000000000E+00 -0.37996157185E+03  0.37996157185E+03  0.00000000000E+00 0. -1.
         -6    2    1    2    0  503 -0.68853334126E+01 -0.68821245612E+02 -0.31310073045E+03  0.36247796401E+03  0.16903974480E+03 0.  0.
        -24    2    3    3    0    0 -0.37541620771E+02 -0.55499375381E+02 -0.31203855948E+03  0.32870669830E+03  0.78679584054E+02 0.  0.
          6    2    1    2  501    0  0.68853334126E+01  0.68821245612E+02  0.15867815461E+03  0.24302260385E+03  0.17057976893E+03 0.  0.
         24    2    5    5    0    0  0.78107440194E+02  0.19127830429E+02  0.62843595397E+02  0.11360708412E+03  0.49905971282E+02 0.  0.
          5    1    5    5  501    0 -0.71222106782E+02  0.49693415183E+02  0.95834559217E+02  0.12941551973E+03  0.47000000000E+01 0. -1.
        -11    1    6    6    0    0  0.70139386020E+02  0.29444922395E+02  0.65405918558E+02  0.10032183765E+03  0.00000000000E+00 0.  1.
         12    1    6    6    0    0  0.79680541744E+01 -0.10317091966E+02 -0.25623231608E+01  0.13285246477E+02  0.00000000000E+00 0. -1.
         -5    1    3    3    0  503  0.30656287358E+02 -0.13321870231E+02 -0.10621709771E+01  0.33771265719E+02  0.47000000000E+01 0.  1.
         13    1    4    4    0    0 -0.97724667292E+01  0.20335208441E+02 -0.65266282423E+02  0.69055842835E+02  0.00000000000E+00 0. -1.
        -14    1    4    4    0    0 -0.27769154042E+02 -0.75834583822E+02 -0.24677227705E+03  0.25965085546E+03  0.00000000000E+00 0.  1.
</event>
<event>
12    1  0.8331241E-002  0.1809342E+03  0.7818608E-02  0.1167153E+00
         21   -1    0    0  503  502  0.00000000000E+00  0.00000000000E+00  0.27738770722E+02  0.27738770722E+02  0.00000000000E+00 0. -1.
         21   -1    0    0  501  503 -0.00000000000E+00 -0.00000000000E+00 -0.13809305534E+04  0.13809305534E+04  0.00000000000E+00 0. -1.
          6    2    1    2  501    0 -0.58182963688E+02  0.20548658556E+02 -0.94796687688E+03  0.96488512412E+03  0.16898105945E+03 0.  0.
         24    2    3    3    0    0 -0.44729719322E+02 -0.32595100644E+02 -0.31317356509E+03  0.32771176653E+03  0.79083068199E+02 0.  0.
         -6    2    1    2    0  502  0.58182963688E+02 -0.20548658556E+02 -0.40522490582E+03  0.44378420002E+03  0.17008729307E+03 0.  0.
        -24    2    5    5    0    0 -0.29761702121E+02 -0.12679363068E+02 -0.14552856443E+03  0.16944778285E+03  0.80544788084E+02 0.  0.
          5    1    3    3  501    0 -0.13453244366E+02  0.53143759200E+02 -0.63479331179E+03  0.63717335759E+03  0.47000000000E+01 0. -1.
        -13    1    4    4    0    0 -0.16507214495E+02  0.95075130546E+01 -0.12474014913E+02  0.22770199448E+02  0.00000000000E+00 0.  1.
         14    1    4    4    0    0 -0.28222504827E+02 -0.42102613698E+02 -0.30069955018E+03  0.30494156708E+03  0.00000000000E+00 0. -1.
         -5    1    5    5    0  502  0.87944665809E+02 -0.78692954882E+01 -0.25969634139E+03  0.27433641717E+03  0.47000000000E+01 0.  1.
         13    1    6    6    0    0  0.30019556305E+01 -0.34730753309E+02 -0.11308770821E+03  0.11833877941E+03  0.00000000000E+00 0. -1.
        -14    1    6    6    0    0 -0.32763657751E+02  0.22051390241E+02 -0.32440856213E+02  0.51109003440E+02  0.00000000000E+00 0.  1.
</event>
<event>
12    1  0.8331241E-002  0.2168838E+03  0.7818608E-02  0.1136500E+00
         21   -1    0    0  503  502  0.00000000000E+00  0.00000000000E+00  0.72146762596E+02  0.72146762596E+02  0.00000000000E+00 0.  1.
         21   -1    0    0  501  503 -0.00000000000E+00 -0.00000000000E+00 -0.80064067331E+03  0.80064067331E+03  0.00000000000E+00 0. -1.
          6    2    1    2  501    0  0.82271514832E+02  0.10157711444E+03 -0.55400562320E+03  0.59442665105E+03  0.17127259154E+03 0.  0.
         24    2    3    3    0    0  0.10226602673E+03  0.20399255657E+02 -0.34149130101E+03  0.36601024972E+03  0.80453243435E+02 0.  0.
         -6    2    1    2    0  502 -0.82271514832E+02 -0.10157711444E+03 -0.17448828751E+03  0.27836078485E+03  0.17306661069E+03 0.  0.
        -24    2    5    5    0    0 -0.24609527704E+02 -0.80791217199E+02 -0.18320848307E+03  0.21627141303E+03  0.77943095877E+02 0.  0.
          5    1    3    3  501    0 -0.19994511898E+02  0.81177858779E+02 -0.21251432219E+03  0.22841640133E+03  0.47000000000E+01 0. -1.
        -13    1    4    4    0    0  0.28291523984E+02  0.49743430655E+01 -0.18201598645E+02  0.34006655400E+02  0.00000000000E+00 0.  1.
         14    1    4    4    0    0  0.73974502746E+02  0.15424912592E+02 -0.32328970237E+03  0.33200359432E+03  0.00000000000E+00 0. -1.
         -5    1    5    5    0  502 -0.57661987127E+02 -0.20785897238E+02  0.87201955516E+01  0.62089371828E+02  0.47000000000E+01 0.  1.
         13    1    6    6    0    0 -0.31923426367E+02 -0.11898552208E+02 -0.11139073406E+03  0.11648423211E+03  0.00000000000E+00 0. -1.
        -14    1    6    6    0    0  0.73138986624E+01 -0.68892664991E+02 -0.71817749006E+02  0.99787180918E+02  0.00000000000E+00 0.  1.
</event>
<event>
12    1  0.8331241E-002  0.5815368E+03  0.7818608E-02  0.9944710E-01
         21   -1    0    0  501  502  0.00000000000E+00  0.00000000000E+00  0.96088478685E+03  0.96088478685E+03  0.00000000000E+00 0.  1.
         21   -1    0    0  502  503 -0.00000000000E+00 -0.00000000000E+00 -0.61020368638E+03  0.61020368638E+03  0.00000000000E+00 0. -1.
         -6    2    1    2    0  503  0.50588328449E+03 -0.22937963630E+03 -0.33592761020E+03  0.67158944135E+03  0.17219786109E+03 0.  0.
        -24    2    3    3    0    0  0.27670239041E+03 -0.67435531526E+02 -0.12829239755E+03  0.32247019694E+03  0.80101965508E+02 0.  0.
          6    2    1    2  501    0 -0.50588328449E+03  0.22937963630E+03  0.68660871067E+03  0.89949903188E+03  0.17068705780E+03 0.  0.
         24    2    5    5    0    0 -0.15930128384E+03  0.85211100961E+02  0.16681992467E+03  0.25832345389E+03  0.79147260231E+02 0.  0.
          5    1    5    5  501    0 -0.34658200065E+03  0.14416853534E+03  0.51978878600E+03  0.64117557799E+03  0.47000000000E+01 0. -1.
        -13    1    6    6    0    0 -0.11829269705E+03  0.20216843600E+02  0.93825729636E+02  0.15233236847E+03  0.00000000000E+00 0.  1.
         14    1    6    6    0    0 -0.41008586788E+02  0.64994257361E+02  0.72994195036E+02  0.10599108542E+03  0.00000000000E+00 0. -1.
         -5    1    3    3    0  503  0.22918089409E+03 -0.16194410477E+03 -0.20763521265E+03  0.34911924441E+03  0.47000000000E+01 0.  1.
         11    1    4    4    0    0  0.10649485970E+03 -0.13960652135E+02 -0.88523920879E+01  0.10777021758E+03  0.00000000000E+00 0. -1.
        -12    1    4    4    0    0  0.17020753070E+03 -0.53474879391E+02 -0.11944000546E+03  0.21469997936E+03  0.00000000000E+00 0.  1.
</event>
<event>
12    1  0.8331241E-002  0.2215631E+03  0.7818608E-02  0.1133260E+00
         21   -1    0    0  501  502  0.00000000000E+00  0.00000000000E+00  0.36746653634E+03  0.36746653634E+03  0.00000000000E+00 0. -1.
         21   -1    0    0  502  503 -0.00000000000E+00 -0.00000000000E+00 -0.13914068202E+03  0.13914068202E+03  0.00000000000E+00 0. -1.
         -6    2    1    2    0  503  0.11484125266E+03 -0.69533608869E+02  0.55488422939E+02  0.22560366163E+03  0.17261115545E+03 0.  0.
        -24    2    3    3    0    0  0.45538357546E+02 -0.10212893415E+03  0.57071768330E+02  0.14885769441E+03  0.79983531093E+02 0.  0.
          6    2    1    2  501    0 -0.11484125266E+03  0.69533608869E+02  0.17283743138E+03  0.28100355673E+03  0.17625772362E+03 0.  0.
         24    2    5    5    0    0 -0.97839925522E+02  0.38956847388E+02  0.32658303732E+02  0.13644816494E+03  0.80381900509E+02 0.  0.
          5    1    5    5  501    0 -0.17001327140E+02  0.30576761482E+02  0.14017912765E+03  0.14455539179E+03  0.47000000000E+01 0. -1.
        -13    1    6    6    0    0 -0.28063722607E+02 -0.21598541073E+02 -0.66726852749E+01  0.36036012985E+02  0.00000000000E+00 0.  1.
         14    1    6    6    0    0 -0.69776202914E+02  0.60555388461E+02  0.39330989007E+02  0.10041215196E+03  0.00000000000E+00 0. -1.
         -5    1    3    3    0  503  0.69302895116E+02  0.32595325280E+02 -0.15833453916E+01  0.76745967218E+02  0.47000000000E+01 0.  1.
         13    1    4    4    0    0  0.53622205467E+02 -0.91526067244E+02  0.72485373961E+02  0.12847759082E+03  0.00000000000E+00 0. -1.
        -14    1    4    4    0    0 -0.80838479210E+01 -0.10602866906E+02 -0.15413605631E+02  0.20380103591E+02  0.00000000000E+00 0.  1.
</event>
<event>
12    1  0.8331241E-002  0.1714708E+03  0.7818608E-02  0.1178292E+00
         21   -1    0    0  501  502  0.00000000000E+00  0.00000000000E+00  0.85202669739E+03  0.85202669739E+03  0.00000000000E+00 0.  1.
         21   -1    0    0  502  503 -0.00000000000E+00 -0.00000000000E+00 -0.56971179798E+02  0.56971179798E+02  0.00000000000E+00 0.  1.
         -6    2    1    2    0  503 -0.68597530057E+01 -0.10621960772E+02  0.97775514860E+02  0.19094381597E+03  0.16352249780E+03 0.  0.
        -24    2    3    3    0    0  0.96113406355E+01 -0.61122379146E+02  0.72860542599E+02  0.13208436452E+03  0.91155348617E+02 0.  0.
          6    2    1    2  501    0  0.68597530057E+01  0.10621960772E+02  0.69728000273E+03  0.71805406122E+03  0.17100394839E+03 0.  0.
         24    2    5    5    0    0  0.18624562266E+02  0.69554632077E+02  0.50552365466E+03  0.51704645562E+03  0.81229001505E+02 0.  0.
          5    1    5    5  501    0 -0.11764809260E+02 -0.58932671306E+02  0.19175634807E+03  0.20100760560E+03  0.47000000000E+01 0. -1.
        -13    1    6    6    0    0 -0.23676538112E+02  0.11113874913E+02  0.25512276395E+03  0.25645998003E+03  0.00000000000E+00 0.  1.
         14    1    6    6    0    0  0.42301100377E+02  0.58440757165E+02  0.25040089072E+03  0.26058647559E+03  0.00000000000E+00 0. -1.
         -5    1    3    3    0  503 -0.16471093641E+02  0.50500418374E+02  0.24914972261E+02  0.58859451446E+02  0.47000000000E+01 0.  1.
         13    1    4    4    0    0  0.16575502144E+02 -0.10850877243E+02  0.78554668152E+02  0.81014348709E+02  0.00000000000E+00 0. -1.
        -14    1    4    4    0    0 -0.69641615080E+01 -0.50271501903E+02 -0.56941255533E+01  0.51070015810E+02  0.00000000000E+00 0.  1.
</event>
<event>
12    1  0.8331241E-002  0.2361413E+03  0.7818608E-02  0.1122489E+00
         21   -1    0    0  501  502  0.00000000000E+00  0.00000000000E+00  0.17871910069E+03  0.17871910069E+03  0.00000000000E+00 0. -1.
         21   -1    0    0  502  503 -0.00000000000E+00 -0.00000000000E+00 -0.40995460742E+03  0.40995460742E+03  0.00000000000E+00 0. -1.
         -6    2    1    2    0  503  0.52710361569E+02 -0.15153677880E+03 -0.25993768045E+03  0.35079452535E+03  0.17247441479E+03 0.  0.
        -24    2    3    3    0    0 -0.15702361616E+02 -0.47423361220E+02 -0.17716274695E+03  0.20114933155E+03  0.81110266464E+02 0.  0.
          6    2    1    2  501    0 -0.52710361569E+02  0.15153677880E+03  0.28702173718E+02  0.23787918275E+03  0.17326544163E+03 0.  0.
         24    2    5    5    0    0 -0.19196744594E+02  0.13787381166E+03  0.72941975610E+02  0.18052860067E+03  0.88838847970E+02 0.  0.
          5    1    5    5  501    0 -0.33513616975E+02  0.13662967139E+02 -0.44239801892E+02  0.57350582083E+02  0.47000000000E+01 0. -1.
        -13    1    6    6    0    0 -0.33057593939E+02  0.61147223209E+02 -0.57540786037E+01  0.69748812490E+02  0.00000000000E+00 0.  1.
         14    1    6    6    0    0  0.13860849345E+02  0.76726588449E+02  0.78696054214E+02  0.11077978818E+03  0.00000000000E+00 0. -1.
         -5    1    3    3    0  503  0.68412723184E+02 -0.10411341758E+03 -0.82774933495E+02  0.14964519380E+03  0.47000000000E+01 0.  1.
         13    1    4    4    0    0 -0.30826324042E+02 -0.62317551250E+02 -0.15772040203E+03  0.17236433698E+03  0.00000000000E+00 0. -1.
        -14    1    4    4    0    0  0.15123962426E+02  0.14894190030E+02 -0.19442344926E+02  0.28784994569E+02  0.00000000000E+00 0.  1.
</event>
<event>
12    1  0.8331241E-002  0.1914348E+03  0.7818608E-02  0.1157436E+00
         21   -1    0    0  503  502  0.00000000000E+00  0.00000000000E+00  0.16735817803E+03  0.16735817803E+03  0.00000000000E+00 0.  1.
         21   -1    0    0  501  503 -0.00000000000E+00 -0.00000000000E+00 -0.23458255525E+03  0.23458255525E+03  0.00000000000E+00 0.  1.
          6    2    1    2  501    0  0.57301291332E+02 -0.52040910363E+02  0.20303891729E+02  0.19250851952E+03  0.17508737170E+03 0.  0.
         24    2    3    3    0    0 -0.17049597842E+02 -0.43412576429E+02  0.58105499598E+02  0.10852307778E+03  0.78902907098E+02 0.  0.
         -6    2    1    2    0  502 -0.57301291332E+02  0.52040910363E+02 -0.87528268950E+02  0.20943221376E+03  0.17380724943E+03 0.  0.
        -24    2    5    5    0    0 -0.37056585474E+02 -0.38396753273E+02 -0.35665179220E+02  0.10312751398E+03  0.80720368815E+02 0.  0.
          5    1    3    3  501    0  0.74350889174E+02 -0.86283339338E+01 -0.37801607869E+02  0.83985441744E+02  0.47000000000E+01 0. -1.
        -13    1    4    4    0    0 -0.41946151286E+02 -0.39293678019E+01  0.14246742269E+02  0.44473466295E+02  0.00000000000E+00 0.  1.
         14    1    4    4    0    0  0.24896553444E+02 -0.39483208627E+02  0.43858757329E+02  0.64049611485E+02  0.00000000000E+00 0. -1.
         -5    1    5    5    0  502 -0.20244705858E+02  0.90437663636E+02 -0.51863089730E+02  0.10630469978E+03  0.47000000000E+01 0.  1.
         11    1    6    6    0    0 -0.24285372090E+01 -0.56915465483E+02 -0.26364538785E+02  0.62772262262E+02  0.00000000000E+00 0. -1.
        -12    1    6    6    0    0 -0.34628048265E+02  0.18518712210E+02 -0.93006404350E+01  0.40355251716E+02  0.00000000000E+00 0.  1.
</event>
<event>
12    1  0.8331241E-002  0.1876865E+03  0.7818608E-02  0.1161927E+00
         21   -1    0    0  503  502  0.00000000000E+00  0.00000000000E+00  0.52966825686E+02  0.52966825686E+02  0.00000000000E+00 0. -1.
         21   -1    0    0  501  503 -0.00000000000E+00 -0.00000000000E+00 -0.82247549961E+03  0.82247549961E+03  0.00000000000E+00 0. -1.
          6    2    1    2  501    0 -0.10376275260E+02  0.67574603157E+02 -0.18593111588E+03  0.26419046725E+03  0.17479195935E+03 0.  0.
         24    2    3    3    0    0 -0.12803347524E+02 -0.69787385971E+00 -0.17783008459E+03  0.19523585532E+03  0.79555562229E+02 0.  0.
         -6    2    1    2    0  502  0.10376275260E+02 -0.67574603157E+02 -0.58357755804E+03  0.61125185804E+03  0.16849947666E+03 0.  0.
        -24    2    5    5    0    0  0.65589121488E+02 -0.68788376890E+02 -0.43718454173E+03  0.45471771845E+03  0.81265652586E+02 0.  0.
          5    1    3    3  501    0  0.24270722644E+01  0.68272477017E+02 -0.81010312887E+01  0.68954611925E+02  0.47000000000E+01 0. -1.
        -11    1    4    4    0    0  0.23993977683E+02 -0.85826842110E+01 -0.18417860906E+02  0.31441867528E+02  0.00000000000E+00 0.  1.
         12    1    4    4    0    0 -0.36797325208E+02  0.78848103512E+01 -0.15941222369E+03  0.16379398779E+03  0.00000000000E+00 0. -1.
         -5    1    5    5    0  502 -0.55212846228E+02  0.12137737324E+01 -0.14639301631E+03  0.15653413959E+03  0.47000000000E+01 0.  1.
         11    1    6    6    0    0  0.62389896550E+02 -0.26544764805E+02 -0.36309529269E+03  0.36937151393E+03  0.00000000000E+00 0. -1.
        -12    1    6    6    0    0  0.31992249377E+01 -0.42243612085E+02 -0.74089249045E+02  0.85346204521E+02  0.00000000000E+00 0.  1.
</event>
<event>
12    1  0.8331241E-002  0.1805837E+03  0.7818608E-02  0.1167665E+00
         21   -1    0    0  503  502  0.00000000000E+00  0.00000000000E+00  0.29240808792E+03  0.29240808792E+03  0.00000000000E+00 0.  1.
         21   -1    0    0  501  503 -0.00000000000E+00 -0.00000000000E+00 -0.11104659232E+03  0.11104659232E+03  0.00000000000E+00 0. -1.
          6    2    1    2  501    0 -0.30378212609E+02  0.40402945396E+02  0.75328842253E+02  0.19404262556E+03  0.17153096589E+03 0.  0.
         24    2    3    3    0    0 -0.78681492362E+02  0.11968639938E+02  0.79470313397E+02  0.13764264023E+03  0.79346960343E+02 0.  0.
         -6    2    1    2    0  502  0.30378212609E+02 -0.40402945396E+02  0.10603265334E+03  0.20941205468E+03  0.17336450407E+03 0.  0.
        -24    2    5    5    0    0 -0.25147638096E+01  0.34437440909E+02  0.19511692326E+02  0.90286079274E+02  0.81108622229E+02 0.  0.
          5    1    3    3  501    0  0.48303279753E+02  0.28434305459E+02 -0.41414711439E+01  0.56399985328E+02  0.47000000000E+01 0. -1.
        -13    1    4    4    0    0  0.88403858026E+01  0.12896122704E+02  0.37386499066E+02  0.40524223797E+02  0.00000000000E+00 0.  1.
         14    1    4    4    0    0 -0.87521878165E+02 -0.92748276621E+00  0.42083814331E+02  0.97118416433E+02  0.00000000000E+00 0. -1.
         -5    1    5    5    0  502  0.32892976419E+02 -0.74840386305E+02  0.86520961017E+02  0.11912597540E+03  0.47000000000E+01 0.  1.
         11    1    6    6    0    0 -0.16781187144E+02 -0.72408832090E+01 -0.22789029746E+02  0.29212642954E+02  0.00000000000E+00 0. -1.
        -12    1    6    6    0    0  0.14266423334E+02  0.41678324118E+02  0.42300722073E+02  0.61073436320E+02  0.00000000000E+00 0.  1.
</event>
<event>
12    1  0.8331241E-002  0.1927448E+03  0.7818608E-02  0.1156208E+00
         21   -1    0    0  501  502  0.00000000000E+00  0.00000000000E+00  0.36552731195E+03  0.36552731195E+03  0.00000000000E+00 0. -1.
         21   -1    0    0  502  503 -0.00000000000E+00 -0.00000000000E+00 -0.12715821578E+03  0.12715821578E+03  0.00000000000E+00 0. -1.
         -6    2    1    2    0  503  0.35246199084E+02 -0.78674704010E+02  0.80251693368E+01  0.19291181589E+03  0.17239072413E+03 0.  0.
        -24    2    3    3    0    0  0.20309406752E+02 -0.27333880338E+02 -0.59790787708E+02  0.10642434876E+03  0.81188611867E+02 0.  0.
          6    2    1    2  501    0 -0.35246199084E+02  0.78674704010E+02  0.23034392683E+03  0.29977371183E+03  0.17138830204E+03 0.  0.
         24    2    5    5    0    0 -0.61949536132E+02  0.59225988543E+02  0.70944922708E+02  0.13691962604E+03  0.79801874613E+02 0.  0.
          5    1    5    5  501    0  0.26703337048E+02  0.19448715467E+02  0.15939900412E+03  0.16285408579E+03  0.47000000000E+01 0. -1.
        -13    1    6    6    0    0 -0.41994220828E+02 -0.11050123753E+01  0.58734797198E+02  0.72211578277E+02  0.00000000000E+00 0.  1.
         14    1    6    6    0    0 -0.19955315303E+02  0.60331000919E+02  0.12210125510E+02  0.64708047766E+02  0.00000000000E+00 0. -1.
         -5    1    3    3    0  503  0.14936792332E+02 -0.51340823672E+02  0.67815957044E+02  0.86487467129E+02  0.47000000000E+01 0.  1.
         11    1    4    4    0    0 -0.12574046821E+01 -0.41373367105E+02 -0.67227777049E-01  0.41392524588E+02  0.00000000000E+00 0. -1.
        -12    1    4    4    0    0  0.21566811434E+02  0.14039486767E+02 -0.59723559931E+02  0.65031824170E+02  0.00000000000E+00 0.  1.
</event>
<event>
12    1  0.8331241E-002  0.1834420E+03  0.7818608E-02  0.1165129E+00
         21   -1    0    0  503  502  0.00000000000E+00  0.00000000000E+00  0.80960807308E+02  0.80960807308E+02  0.00000000000E+00 0. -1.
         21   -1    0    0  501  503 -0.00000000000E+00 -0.00000000000E+00 -0.75617674963E+03  0.75617674963E+03  0.00000000000E+00 0. -1.
          6    2    1    2  501    0  0.49945174951E+01  0.63638412557E+02 -0.62219570722E+03  0.64867438659E+03  0.17197723391E+03 0.  0.
         24    2    3    3    0    0 -0.11992061705E+02  0.72495383904E+02 -0.61930595259E+03  0.62873872768E+03  0.79831914320E+02 0.  0.
         -6    2    1    2    0  502 -0.49945174951E+01 -0.63638412557E+02 -0.53020235105E+02  0.18846317035E+03  0.16921119493E+03 0.  0.
        -24    2    5    5    0    0  0.12679826288E+02  0.24596615639E+02 -0.55668243539E+02  0.98313824383E+02  0.76163529530E+02 0.  0.
          5    1    3    3  501    0  0.16986579200E+02 -0.88569713467E+01 -0.28897546279E+01  0.19935658910E+02  0.47000000000E+01 0. -1.
        -11    1    4    4    0    0 -0.29457812519E+02 -0.27230212374E+01 -0.12605298811E+03  0.12947792620E+03  0.00000000000E+00 0.  1.
         12    1    4    4    0    0  0.17465750815E+02  0.75218405141E+02 -0.49325296448E+03  0.49926080148E+03  0.00000000000E+00 0. -1.
         -5    1    5    5    0  502 -0.17674343783E+02 -0.88235028196E+02  0.26480084339E+01  0.90149345963E+02  0.47000000000E+01 0.  1.
         11    1    6    6    0    0 -0.19553780983E+02  0.11646909613E+02  0.93439073610E+01  0.24603037598E+02  0.00000000000E+00 0. -1.
        -12    1    6    6    0    0  0.32233607270E+02  0.12949706026E+02 -0.65012150900E+02  0.73710786785E+02  0.00000000000E+00 0.  1.
</event>
<event>
12    1  0.8331241E-002  0.2872760E+03  0.7818608E-02  0.1093224E+00
         21   -1    0    0  501  502  0.00000000000E+00  0.00000000000E+00  0.11929002799E+03  0.11929002799E+03  0.00000000000E+00 0. -1.
         21   -1    0    0  502  503 -0.00000000000E+00 -0.00000000000E+00 -0.67128079834E+03  0.67128079834E+03  0.00000000000E+00 0.  1.
         -6    2    1    2    0  503 -0.20181525696E+03  0.85397762722E+02 -0.31535009351E+03  0.42658313020E+03  0.18575604882E+03 0.  0.
        -24    2    3    3    0    0 -0.51852784005E+02  0.83593762997E+02 -0.93321201743E+02  0.15860754085E+03  0.82285338292E+02 0.  0.
          6    2    1    2  501    0  0.20181525696E+03 -0.85397762722E+02 -0.23664067684E+03  0.36398769613E+03  0.16871887024E+03 0.  0.
         24    2    5    5    0    0  0.17758425502E+03 -0.11318324552E+03 -0.23738375419E+03  0.32681490133E+03  0.78168524875E+02 0.  0.
          5    1    5    5  501    0  0.24231001938E+02  0.27785482797E+02  0.74307734468E+00  0.37172794798E+02  0.47000000000E+01 0. -1.
        -13    1    6    6    0    0  0.89198399395E+02 -0.19528435968E+02 -0.13152150876E+03  0.16011127859E+03  0.00000000000E+00 0.  1.
         14    1    6    6    0    0  0.88385855627E+02 -0.93654809551E+02 -0.10586224543E+03  0.16670362274E+03  0.00000000000E+00 0. -1.
         -5    1    3    3    0  503 -0.14996247295E+03  0.18039997247E+01 -0.22202889176E+03  0.26797558935E+03  0.47000000000E+01 0.  1.
         13    1    4    4    0    0 -0.67275119930E+01 -0.15207609435E+02 -0.20928540855E+01  0.16760395000E+02  0.00000000000E+00 0. -1.
        -14    1    4    4    0    0 -0.45125272012E+02  0.98801372432E+02 -0.91228347658E+02  0.14184714585E+03  0.00000000000E+00 0.  1.
</event>
<event>
12    1  0.8331241E-002  0.2281245E+03  0.7818608E-02  0.1127988E+00
         21   -1    0    0  503  502  0.00000000000E+00  0.00000000000E+00  0.11969367859E+04  0.11969367859E+04  0.00000000000E+00 0. -1.
         21   -1    0    0  501  503 -0.00000000000E+00 -0.00000000000E+00 -0.87441081535E+02  0.87441081535E+02  0.00000000000E+00 0. -1.
          6    2    1    2  501    0  0.12530786462E+03  0.81710829595E+02  0.99202652491E+02  0.24864970209E+03  0.17206622993E+03 0.  0.
         24    2    3    3    0    0  0.73360709089E+02  0.85577992056E+02  0.12724630814E+03  0.18930327393E+03  0.83298980934E+02 0.  0.
         -6    2    1    2    0  502 -0.12530786462E+03 -0.81710829595E+02  0.10102930518E+04  0.10357281653E+04  0.17222677262E+03 0.  0.
        -24    2    5    5    0    0 -0.56865276470E+02 -0.43828213609E+02  0.85913983497E+03  0.86546699699E+03  0.75876840143E+02 0.  0.
          5    1    3    3  501    0  0.51947155531E+02 -0.38671624613E+01 -0.28043655648E+02  0.59346428160E+02  0.47000000000E+01 0. -1.
        -13    1    4    4    0    0 -0.16930426647E+02  0.13444976812E+02  0.36266844373E+02  0.42221922608E+02  0.00000000000E+00 0.  1.
         14    1    4    4    0    0  0.90291135736E+02  0.72133015244E+02  0.90979463765E+02  0.14708135133E+03  0.00000000000E+00 0. -1.
         -5    1    5    5    0  502 -0.68442588150E+02 -0.37882615986E+02  0.15115321687E+03  0.17026116832E+03  0.47000000000E+01 0.  1.
         11    1    6    6    0    0 -0.40431519940E+02 -0.60529483032E+02  0.46809873000E+03  0.47372454775E+03  0.00000000000E+00 0. -1.
        -12    1    6    6    0    0 -0.16433756530E+02  0.16701269423E+02  0.39104110497E+03  0.39174244923E+03  0.00000000000E+00 0.  1.
</event>
<event>
12    1  0.8331241E-002  0.1803514E+03  0.7818608E-02  0.1169518E+00
         21   -1    0    0  503  502  0.00000000000E+00  0.00000000000E+00  0.24262320247E+03  0.24262320247E+03  0.00000000000E+00 0. -1.
         21   -1    0    0  501  503 -0.00000000000E+00 -0.00000000000E+00 -0.15784085500E+03  0.15784085500E+03  0.00000000000E+00 0. -1.
          6    2    1    2  501    0 -0.36389921783E+02  0.37412419850E+02 -0.45514658393E+02  0.17796926159E+03  0.16394376590E+03 0.  0.
         24    2    3    3    0    0 -0.31079441481E+02 -0.70387278844E+00  0.34135284953E+02  0.89384520015E+02  0.76537230285E+02 0.  0.
         -6    2    1    2    0  502  0.36389921783E+02 -0.37412419850E+02  0.13029700586E+03  0.22249479587E+03  0.17263461092E+03 0.  0.
        -24    2    5    5    0    0 -0.23351725484E+02 -0.15848665646E+02  0.13666157203E+03  0.15848965845E+03  0.75140556833E+02 0.  0.
          5    1    3    3  501    0 -0.53104803017E+01  0.38116292638E+02 -0.79649943346E+02  0.88584741578E+02  0.47000000000E+01 0. -1.
        -13    1    4    4    0    0  0.11878265549E+02  0.28254499006E+02  0.10075528943E+02  0.32263387764E+02  0.00000000000E+00 0.  1.
         14    1    4    4    0    0 -0.42957707030E+02 -0.28958371795E+02  0.24059756010E+02  0.57121132250E+02  0.00000000000E+00 0. -1.
         -5    1    5    5    0  502  0.59741647267E+02 -0.21563754204E+02 -0.63645661661E+01  0.64005137419E+02  0.47000000000E+01 0.  1.
         13    1    6    6    0    0 -0.59740496285E+01  0.30336130163E+02  0.53037905136E+02  0.61392095936E+02  0.00000000000E+00 0. -1.
        -14    1    6    6    0    0 -0.17377675855E+02 -0.46184795809E+02  0.83623666895E+02  0.97097562518E+02  0.00000000000E+00 0.  1.
</event>
<event>
12    1  0.8331241E-002  0.1839287E+03  0.7818608E-02  0.1164402E+00
         21   -1    0    0  503  502  0.00000000000E+00  0.00000000000E+00  0.64272126996E+03  0.64272126996E+03  0.00000000000E+00 0.  1.
         21   -1    0    0  501  503 -0.00000000000E+00 -0.00000000000E+00 -0.52503894631E+02  0.52503894631E+02  0.00000000000E+00 0.  1.
          6    2    1    2  501    0  0.60081349100E+02  0.33319562103E+00  0.31975164105E+03  0.36814495086E+03  0.17227801183E+03 0.  0.
         24    2    3    3    0    0 -0.29527755469E+02  0.18526564566E+02  0.12074339015E+03  0.14908522334E+03  0.80201718282E+02 0.  0.
         -6    2    1    2    0  502 -0.60081349100E+02 -0.33319562103E+00  0.27046573428E+03  0.32708021373E+03  0.17383864146E+03 0.  0.
        -24    2    5    5    0    0 -0.91264962912E+02 -0.43573746236E+02  0.20935617326E+03  0.24584825305E+03  0.79896129005E+02 0.  0.
          5    1    3    3  501    0  0.89609104570E+02 -0.18193368945E+02  0.19900825090E+03  0.21905972752E+03  0.47000000000E+01 0. -1.
        -13    1    4    4    0    0 -0.46600057636E+02 -0.15016625041E+02  0.78404092230E+02  0.92435199344E+02  0.00000000000E+00 0.  1.
         14    1    4    4    0    0  0.17072302167E+02  0.33543189607E+02  0.42339297923E+02  0.56650023997E+02  0.00000000000E+00 0. -1.
         -5    1    5    5    0  502  0.31183613812E+02  0.43240550615E+02  0.61109561020E+02  0.81231960680E+02  0.47000000000E+01 0.  1.
         13    1    6    6    0    0 -0.54861920363E+02  0.17664905336E+02  0.92284772740E+02  0.10880422081E+03  0.00000000000E+00 0. -1.
        -14    1    6    6    0    0 -0.36403042549E+02 -0.61238651572E+02  0.11707140052E+03  0.13704403224E+03  0.00000000000E+00 0.  1.
</event>
<event>
12    1  0.8331241E-002  0.2566812E+03  0.7818608E-02  0.1109162E+00
         21   -1    0    0  501  502  0.00000000000E+00  0.00000000000E+00  0.16080560834E+03  0.16080560834E+03  0.00000000000E+00 0.  1.
         21   -1    0    0  502  503 -0.00000000000E+00 -0.00000000000E+00 -0.97847126789E+03  0.97847126789E+03  0.00000000000E+00 0. -1.
         -6    2    1    2    0  503  0.73345919279E+02  0.17654500944E+03 -0.84314404121E+03  0.88133425182E+03  0.17120287662E+03 0.  0.
        -24    2    3    3    0    0  0.49685729525E+02  0.28307518343E+02 -0.48420121947E+03  0.49223760878E+03  0.67653937397E+02 0.  0.
          6    2    1    2  501    0 -0.73345919279E+02 -0.17654500944E+03  0.25478381664E+02  0.25794262441E+03  0.17128188849E+03 0.  0.
         24    2    5    5    0    0 -0.98057235946E+02 -0.18841465951E+03  0.33593035656E+02  0.22896892300E+03  0.78631865143E+02 0.  0.
          5    1    5    5  501    0  0.24711316667E+02  0.11869650069E+02 -0.81146539914E+01  0.28973701413E+02  0.47000000000E+01 0. -1.
        -13    1    6    6    0    0 -0.60258648122E+02 -0.12345271843E+03  0.59173341931E+02  0.14957661166E+03  0.00000000000E+00 0.  1.
         14    1    6    6    0    0 -0.37798587824E+02 -0.64961941075E+02 -0.25580306276E+02  0.79392311333E+02  0.00000000000E+00 0. -1.
         -5    1    3    3    0  503  0.23660189754E+02  0.14823749109E+03 -0.35894282174E+03  0.38909664304E+03  0.47000000000E+01 0.  1.
         11    1    4    4    0    0  0.21801309701E+02  0.38710482896E+02 -0.40829965173E+03  0.41070963489E+03  0.00000000000E+00 0. -1.
        -12    1    4    4    0    0  0.27884419824E+02 -0.10402964553E+02 -0.75901567747E+02  0.81527973891E+02  0.00000000000E+00 0.  1.
</event>
<event>
12    1  0.8331241E-002  0.1800765E+03  0.7818608E-02  0.1168989E+00
         21   -1    0    0  501  502  0.00000000000E+00  0.00000000000E+00  0.10301245818E+04  0.10301245818E+04  0.00000000000E+00 0. -1.
         21   -1    0    0  502  503 -0.00000000000E+00 -0.00000000000E+00 -0.35147241925E+02  0.35147241925E+02  0.00000000000E+00 0. -1.
         -6    2    1    2    0  503  0.41002651571E+02  0.30331738058E+02  0.31194216103E+03  0.36018809837E+03  0.17270298957E+03 0.  0.
        -24    2    3    3    0    0  0.73411941217E+02  0.35737764158E+02  0.12149249728E+03  0.16686776421E+03  0.80111940049E+02 0.  0.
          6    2    1    2  501    0 -0.41002651571E+02 -0.30331738058E+02  0.68303517881E+03  0.70508372533E+03  0.16734626514E+03 0.  0.
         24    2    5    5    0    0 -0.97579728153E+00 -0.59830744721E+02  0.23005331451E+03  0.24935683359E+03  0.75323520564E+02 0.  0.
          5    1    5    5  501    0 -0.40026854289E+02  0.29499006663E+02  0.45298186431E+03  0.45572689173E+03  0.47000000000E+01 0. -1.
        -11    1    6    6    0    0 -0.26280603204E+01 -0.71164751515E+01 -0.45850951517E+01  0.88641986203E+01  0.00000000000E+00 0.  1.
         12    1    6    6    0    0  0.16522630389E+01 -0.52714269570E+02  0.23463840966E+03  0.24049263497E+03  0.00000000000E+00 0. -1.
         -5    1    3    3    0  503 -0.32409289646E+02 -0.54060260996E+01  0.19044966375E+03  0.19332033415E+03  0.47000000000E+01 0.  1.
         13    1    4    4    0    0  0.12034092814E+02  0.44229430493E+02  0.25049821009E+02  0.52235576422E+02  0.00000000000E+00 0. -1.
        -14    1    4    4    0    0  0.61377848403E+02 -0.84916663353E+01  0.96442676269E+02  0.11463218779E+03  0.00000000000E+00 0.  1.
</event>
<event>
12    1  0.8331241E-002  0.1978619E+03  0.7818608E-02  0.1151625E+00
         21   -1    0    0  503  502  0.00000000000E+00  0.00000000000E+00  0.45515415205E+02  0.45515415205E+02  0.00000000000E+00 0. -1.
         21   -1    0    0  501  503 -0.00000000000E+00 -0.00000000000E+00 -0.10257188893E+04  0.10257188893E+04  0.00000000000E+00 0.  1.
          6    2    1    2  501    0  0.90701233205E+02 -0.35989600287E+02 -0.70588639363E+03  0.73300482556E+03  0.17175129853E+03 0.  0.
         24    2    3    3    0    0  0.57247616208E+02 -0.13555333344E+02 -0.67450910549E+03  0.68173041640E+03  0.79578832829E+02 0.  0.
         -6    2    1    2    0  502 -0.90701233205E+02  0.35989600287E+02 -0.27431708048E+03  0.33822947896E+03  0.17212598515E+03 0.  0.
        -24    2    5    5    0    0 -0.94918193973E+02 -0.92399029550E+01 -0.26325196477E+03  0.29123993217E+03  0.80151492723E+02 0.  0.
          5    1    3    3  501    0  0.33453616997E+02 -0.22434266943E+02 -0.31377288143E+02  0.51274409160E+02  0.47000000000E+01 0. -1.
        -13    1    4    4    0    0  0.26945664930E+02  0.33423244420E+02 -0.31029119563E+03  0.31324719984E+03  0.00000000000E+00 0.  1.
         14    1    4    4    0    0  0.30301951277E+02 -0.46978577764E+02 -0.36421790986E+03  0.36848321655E+03  0.00000000000E+00 0. -1.
         -5    1    5    5    0  502  0.42169607681E+01  0.45229503242E+02 -0.11065115715E+02  0.46989546789E+02  0.47000000000E+01 0.  1.
         13    1    6    6    0    0 -0.60361546585E+02  0.33297321138E+02 -0.16317429794E+03  0.17713858814E+03  0.00000000000E+00 0. -1.
        -14    1    6    6    0    0 -0.34556647388E+02 -0.42537224093E+02 -0.10007766683E+03  0.11410134403E+03  0.00000000000E+00 0.  1.
</event>
<event>
12    1  0.8331241E-002  0.2260923E+03  0.7818608E-02  0.1129593E+00
         21   -1    0    0  501  502  0.00000000000E+00  0.00000000000E+00  0.14574046913E+03  0.14574046913E+03  0.00000000000E+00 0.  1.
         21   -1    0    0  502  503 -0.00000000000E+00 -0.00000000000E+00 -0.40910861608E+03  0.40910861608E+03  0.00000000000E+00 0. -1.
         -6    2    1    2    0  503 -0.13987481400E+03  0.38609364978E+02 -0.23802347414E+03  0.32828780882E+03  0.17338415302E+03 0.  0.
        -24    2    3    3    0    0 -0.36319299097E+02  0.47118059237E+02 -0.48489085209E+02  0.11208994312E+03  0.81693090100E+02 0.  0.
          6    2    1    2  501    0  0.13987481400E+03 -0.38609364978E+02 -0.25344672799E+02  0.22656127640E+03  0.17213951571E+03 0.  0.
         24    2    5    5    0    0  0.15512159102E+03  0.88719866152E+01 -0.13724613922E+02  0.17514086482E+03  0.79652604201E+02 0.  0.
          5    1    5    5  501    0 -0.15246777019E+02 -0.47481351593E+02 -0.11620058877E+02  0.51420411578E+02  0.47000000000E+01 0. -1.
        -13    1    6    6    0    0  0.11173073614E+03 -0.25044293171E+02  0.10482940540E+02  0.11498202495E+03  0.00000000000E+00 0.  1.
         14    1    6    6    0    0  0.43390854876E+02  0.33916279786E+02 -0.24207554462E+02  0.60158839870E+02  0.00000000000E+00 0. -1.
         -5    1    3    3    0  503 -0.10355551490E+03 -0.85086942594E+01 -0.18953438894E+03  0.21619786570E+03  0.47000000000E+01 0.  1.
         13    1    4    4    0    0 -0.38268997335E+02  0.37429775057E+02 -0.70173365325E+02  0.88259874342E+02  0.00000000000E+00 0. -1.
        -14    1    4    4    0    0  0.19496982377E+01  0.96882841801E+01  0.21684280116E+02  0.23830068773E+02  0.00000000000E+00 0.  1.
</event>
<event>
12    1  0.8331241E-002  0.2856625E+03  0.7818608E-02  0.1093573E+00
         21   -1    0    0  501  502  0.00000000000E+00  0.00000000000E+00  0.45544877152E+03  0.45544877152E+03  0.00000000000E+00 0.  1.
         21   -1    0    0  502  503 -0.00000000000E+00 -0.00000000000E+00 -0.23647441993E+03  0.23647441993E+03  0.00000000000E+00 0. -1.
         -6    2    1    2    0  503 -0.20398027877E+03  0.82022786874E+02 -0.66131460714E+02  0.29321737072E+03  0.18239343382E+03 0.  0.
        -24    2    3    3    0    0 -0.13724809102E+03 -0.16676260844E+02 -0.53986037500E+01  0.15940684491E+03  0.79159719028E+02 0.  0.
          6    2    1    2  501    0  0.20398027877E+03 -0.82022786874E+02  0.28510581231E+03  0.39870582073E+03  0.17130474477E+03 0.  0.
         24    2    5    5    0    0  0.16716730839E+03 -0.11320623507E+02  0.24888900942E+03  0.31102607675E+03  0.81965943529E+02 0.  0.
          5    1    5    5  501    0  0.36812970380E+02 -0.70702163367E+02  0.36216802889E+02  0.87679743980E+02  0.47000000000E+01 0. -1.
        -13    1    6    6    0    0  0.88995905109E+01 -0.25866927915E+02  0.42298289199E+02  0.50373067607E+02  0.00000000000E+00 0.  1.
         14    1    6    6    0    0  0.15826771788E+03  0.14546304407E+02  0.20659072022E+03  0.26065300915E+03  0.00000000000E+00 0. -1.
         -5    1    3    3    0  503 -0.66732187755E+02  0.98699047719E+02 -0.60732856964E+02  0.13381052581E+03  0.47000000000E+01 0.  1.
         13    1    4    4    0    0 -0.94952536697E+02 -0.37888682406E+02 -0.29365072695E+02  0.10636655477E+03  0.00000000000E+00 0. -1.
        -14    1    4    4    0    0 -0.42295554321E+02  0.21212421562E+02  0.23966468945E+02  0.53040290134E+02  0.00000000000E+00 0.  1.
</event>
<event>
12    1  0.8331241E-002  0.1745306E+03  0.7818608E-02  0.1173347E+00
         21   -1    0    0  503  502  0.00000000000E+00  0.00000000000E+00  0.78271055350E+03  0.78271055350E+03  0.00000000000E+00 0.  1.
         21   -1    0    0  501  503 -0.00000000000E+00 -0.00000000000E+00 -0.69733170249E+02  0.69733170249E+02  0.00000000000E+00 0.  1.
          6    2    1    2  501    0 -0.30278922053E+02 -0.17922114226E+02  0.72893298345E+02  0.18914108128E+03  0.17094706896E+03 0.  0.
         24    2    3    3    0    0  0.40305405452E+02 -0.35101950470E+02  0.65137740688E+02  0.11593225164E+03  0.79628443869E+02 0.  0.
         -6    2    1    2    0  502  0.30278922053E+02  0.17922114226E+02  0.64008408491E+03  0.66330264247E+03  0.17036650040E+03 0.  0.
        -24    2    5    5    0    0 -0.25402689864E+02 -0.39673502373E+02  0.36347518383E+03  0.37528828326E+03  0.80670954177E+02 0.  0.
          5    1    3    3  501    0 -0.70584327505E+02  0.17179836243E+02  0.77555576576E+01  0.73208829640E+02  0.47000000000E+01 0. -1.
        -11    1    4    4    0    0  0.30157813851E+02 -0.57839552395E+02  0.63413296363E+02  0.90973368154E+02  0.00000000000E+00 0.  1.
         12    1    4    4    0    0  0.10147591601E+02  0.22737601926E+02  0.17244443241E+01  0.24958883486E+02  0.00000000000E+00 0. -1.
         -5    1    5    5    0  502  0.55681611916E+02  0.57595616599E+02  0.27660890108E+03  0.28801435922E+03  0.47000000000E+01 0.  1.
         11    1    6    6    0    0  0.19258152460E+02 -0.44467520140E+02  0.19430280150E+03  0.20025437687E+03  0.00000000000E+00 0. -1.
        -12    1    6    6    0    0 -0.44660842324E+02  0.47940177675E+01  0.16917238232E+03  0.17503390638E+03  0.00000000000E+00 0.  1.
</event>
<event>
12    1  0.8331241E-002  0.2184664E+03  0.7818608E-02  0.1137868E+00
         21   -1    0    0  501  502  0.00000000000E+00  0.00000000000E+00  0.15824144517E+03  0.15824144517E+03  0.00000000000E+00 0. -1.
         21   -1    0    0  502  503 -0.00000000000E+00 -0.00000000000E+00 -0.49799848022E+03  0.49799848022E+03  0.00000000000E+00 0.  1.
         -6    2    1    2    0  503 -0.47660033624E+02  0.12449648896E+03  0.49515626101E+02  0.20985356057E+03  0.15432389669E+03 0.  0.
        -24    2    3    3    0    0 -0.13636697503E+01  0.78344135202E+02  0.79355027333E+02  0.13784055528E+03  0.81013179182E+02 0.  0.
          6    2    1    2  501    0  0.47660033624E+02 -0.12449648896E+03 -0.38927266116E+03  0.44638636482E+03  0.17308011845E+03 0.  0.
         24    2    5    5    0    0  0.34418121472E+02 -0.15643118394E+03 -0.35510540413E+03  0.39755333876E+03  0.79331498923E+02 0.  0.
          5    1    5    5  501    0  0.13241912152E+02  0.31934694985E+02 -0.34167257032E+02  0.48833026061E+02  0.47000000000E+01 0. -1.
        -11    1    6    6    0    0  0.20959347744E+02 -0.63515772162E+01 -0.18161064158E+02  0.28451028845E+02  0.00000000000E+00 0.  1.
         12    1    6    6    0    0  0.13458773729E+02 -0.15007960673E+03 -0.33694433997E+03  0.36910230991E+03  0.00000000000E+00 0. -1.
         -5    1    3    3    0  503 -0.46296363874E+02  0.46152353757E+02 -0.29839401232E+02  0.72013005291E+02  0.47000000000E+01 0.  1.
         13    1    4    4    0    0  0.79962770170E+01 -0.10714085065E+02  0.35893105955E+02  0.38302051120E+02  0.00000000000E+00 0. -1.
        -14    1    4    4    0    0 -0.93599467673E+01  0.89058220267E+02  0.43461921378E+02  0.99538504160E+02  0.00000000000E+00 0.  1.
</event>
<event>
12    1  0.8331241E-002  0.2772229E+03  0.7818608E-02  0.1097346E+00
         21   -1    0    0  503  502  0.00000000000E+00  0.00000000000E+00  0.57041640941E+03  0.57041640941E+03  0.00000000000E+00 0. -1.
         21   -1    0    0  501  503 -0.00000000000E+00 -0.00000000000E+00 -0.24955102600E+03  0.24955102600E+03  0.00000000000E+00 0. -1.
          6    2    1    2  501    0  0.47267782547E+02 -0.21070710025E+03  0.43893754911E+03  0.51864768823E+03  0.17232970470E+03 0.  0.
         24    2    3    3    0    0  0.90363155082E+02 -0.96266029807E+02  0.26578529289E+03  0.30661522946E+03  0.77061201183E+02 0.  0.
         -6    2    1    2    0  502 -0.47267782547E+02  0.21070710025E+03 -0.11807216570E+03  0.30131974718E+03  0.17384138854E+03 0.  0.
        -24    2    5    5    0    0 -0.74224769662E+02  0.22241336425E+03 -0.10220907191E+03  0.26759374066E+03  0.78630112775E+02 0.  0.
          5    1    3    3  501    0 -0.43095372536E+02 -0.11444107044E+03  0.17315225622E+03  0.21203245877E+03  0.47000000000E+01 0. -1.
        -13    1    4    4    0    0  0.21161934465E+02  0.27495996699E+01  0.95361994985E+02  0.97720508882E+02  0.00000000000E+00 0.  1.
         14    1    4    4    0    0  0.69201220618E+02 -0.99015629477E+02  0.17042329790E+03  0.20889472058E+03  0.00000000000E+00 0. -1.
         -5    1    5    5    0  502  0.26956987115E+02 -0.11706263999E+02 -0.15863093794E+02  0.33726006521E+02  0.47000000000E+01 0.  1.
         13    1    6    6    0    0 -0.44595303095E+02  0.14276546428E+03 -0.10470654583E+03  0.18257650339E+03  0.00000000000E+00 0. -1.
        -14    1    6    6    0    0 -0.29629466567E+02  0.79647899962E+02  0.24974739244E+01  0.85017237272E+02  0.00000000000E+00 0.  1.
</event>
<event>
12    1  0.8331241E-002  0.1886861E+03  0.7818608E-02  0.1160725E+00
         21   -1    0    0  501  502  0.00000000000E+00  0.00000000000E+00  0.47269731937E+03  0.47269731937E+03  0.00000000000E+00 0.  1.
         21   -1    0    0  502  503 -0.00000000000E+00 -0.00000000000E+00 -0.16643335025E+03  0.16643335025E+03  0.00000000000E+00 0.  1.
         -6    2    1    2    0  503 -0.61626410659E+02  0.29862728580E+02 -0.86534517760E+02  0.20336343453E+03  0.17081822704E+03 0.  0.
        -24    2    3    3    0    0 -0.88117968873E+02 -0.26375400941E+02 -0.47319499433E+02  0.12971265360E+03  0.78267485361E+02 0.  0.
          6    2    1    2  501    0  0.61626410659E+02 -0.29862728580E+02  0.39279848688E+03  0.43576723510E+03  0.17582046195E+03 0.  0.
         24    2    5    5    0    0  0.42928750473E+02 -0.33020066659E+02  0.40248688247E+03  0.41396066982E+03  0.80215604330E+02 0.  0.
          5    1    5    5  501    0  0.18697660186E+02  0.31573380790E+01 -0.96883955886E+01  0.21806565279E+02  0.47000000000E+01 0. -1.
        -11    1    6    6    0    0  0.50280750335E+02 -0.49071941579E+02  0.22791690975E+03  0.23850016154E+03  0.00000000000E+00 0.  1.
         12    1    6    6    0    0 -0.73519998627E+01  0.16051874920E+02  0.17456997272E+03  0.17546050828E+03  0.00000000000E+00 0. -1.
         -5    1    3    3    0  503  0.26491558214E+02  0.56238129520E+02 -0.39215018327E+02  0.73650780925E+02  0.47000000000E+01 0.  1.
         13    1    4    4    0    0 -0.33010999968E+02 -0.43938348160E+02  0.42148550343E-01  0.54957313748E+02  0.00000000000E+00 0. -1.
        -14    1    4    4    0    0 -0.55106968905E+02  0.17562947219E+02 -0.47361647984E+02  0.74755339854E+02  0.00000000000E+00 0.  1.
</event>
<event>
12    1  0.8331241E-002  0.1765465E+03  0.7818608E-02  0.1171238E+00
         21   -1    0    0  501  502  0.00000000000E+00  0.00000000000E+00  0.46030613975E+03  0.46030613975E+03  0.00000000000E+00 0.  1.
         21   -1    0    0  502  503 -0.00000000000E+00 -0.00000000000E+00 -0.91992139308E+02  0.91992139308E+02  0.00000000000E+00 0.  1.
         -6    2    1    2    0  503 -0.23771115179E+02 -0.32659563736E+02  0.41984797850E+02  0.18127347260E+03  0.17165557258E+03 0.  0.
        -24    2    3    3    0    0 -0.66885694647E+02  0.20348785628E+02  0.38544393050E+02  0.11269739477E+03  0.79544096748E+02 0.  0.
          6    2    1    2  501    0  0.23771115179E+02  0.32659563736E+02  0.32632920259E+03  0.37102480646E+03  0.17186315930E+03 0.  0.
         24    2    5    5    0    0  0.71407292830E+02  0.26015125034E+00  0.27281250665E+03  0.29225264072E+03  0.76719443926E+02 0.  0.
          5    1    5    5  501    0 -0.47636177651E+02  0.32399412485E+02  0.53516695943E+02  0.78772165740E+02  0.47000000000E+01 0. -1.
        -13    1    6    6    0    0 -0.10441474581E+02 -0.32738819807E+01  0.47116536033E+01  0.11913957123E+02  0.00000000000E+00 0.  1.
         14    1    6    6    0    0  0.81848767411E+02  0.35340332311E+01  0.26810085305E+03  0.28033868360E+03  0.00000000000E+00 0. -1.
         -5    1    3    3    0  503  0.43114579468E+02 -0.53008349364E+02  0.34404047998E+01  0.68576077828E+02  0.47000000000E+01 0.  1.
         11    1    4    4    0    0 -0.49614774435E+02 -0.25073126246E+02  0.30605680729E+02  0.63458610092E+02  0.00000000000E+00 0. -1.
        -12    1    4    4    0    0 -0.17270920212E+02  0.45421911874E+02  0.79387123219E+01  0.49238784678E+02  0.00000000000E+00 0.  1.
</event>
<event>
12    1  0.8331241E-002  0.2362334E+03  0.7818608E-02  0.1122341E+00
         21   -1    0    0  503  502  0.00000000000E+00  0.00000000000E+00  0.29433938426E+03  0.29433938426E+03  0.00000000000E+00 0. -1.
         21   -1    0    0  501  503 -0.00000000000E+00 -0.00000000000E+00 -0.32801134108E+03  0.32801134108E+03  0.00000000000E+00 0.  1.
          6    2    1    2  501    0  0.15932411623E+03  0.29030720481E+02 -0.21902035849E+03  0.32214303910E+03  0.17198623046E+03 0.  0.
         24    2    3    3    0    0  0.13928284304E+03  0.22805483748E+01 -0.23512042472E+03  0.28474616128E+03  0.79961559353E+02 0.  0.
         -6    2    1    2    0  502 -0.15932411623E+03 -0.29030720481E+02  0.18534840167E+03  0.30020768623E+03  0.17188271619E+03 0.  0.
        -24    2    5    5    0    0 -0.49385888933E+02 -0.66785377605E+02  0.11595618522E+03  0.16474847591E+03  0.82443742865E+02 0.  0.
          5    1    3    3  501    0  0.20041273185E+02  0.26750172106E+02  0.16100066231E+02  0.37396877827E+02  0.47000000000E+01 0. -1.
        -13    1    4    4    0    0  0.97656419930E+02  0.24548092965E+02 -0.10125441905E+03  0.14280000910E+03  0.00000000000E+00 0.  1.
         14    1    4    4    0    0  0.41626423111E+02 -0.22267544591E+02 -0.13386600568E+03  0.14194615218E+03  0.00000000000E+00 0. -1.
         -5    1    5    5    0  502 -0.10993822729E+03  0.37754657124E+02  0.69392216450E+02  0.13545921031E+03  0.47000000000E+01 0.  1.
         13    1    6    6    0    0 -0.63363014006E+02 -0.40080040284E+02  0.11137601522E+03  0.13426055988E+03  0.00000000000E+00 0. -1.
        -14    1    6    6    0    0  0.13977125073E+02 -0.26705337321E+02  0.45801699973E+01  0.30487916031E+02  0.00000000000E+00 0.  1.
</event>
<event>
12    1  0.8331241E-002  0.2235232E+03  0.7818608E-02  0.1131316E+00
         21   -1    0    0  501  502  0.00000000000E+00  0.00000000000E+00  0.83966858823E+03  0.83966858823E+03  0.00000000000E+00 0.  1.
         21   -1    0    0  502  503 -0.00000000000E+00 -0.00000000000E+00 -0.68144633451E+02  0.68144633451E+02  0.00000000000E+00 0.  1.
         -6    2    1    2    0  503 -0.18467610470E+02 -0.14086845840E+03  0.22381228193E+03  0.31631399323E+03  0.17256195863E+03 0.  0.
        -24    2    3    3    0    0  0.47551011487E+02 -0.11411520819E+03  0.12227630632E+03  0.19219373226E+03  0.81875247772E+02 0.  0.
          6    2    1    2  501    0  0.18467610470E+02  0.14086845840E+03  0.54771167284E+03  0.59149922844E+03  0.17233190497E+03 0.  0.
         24    2    5    5    0    0  0.25520952902E+02  0.87115126688E+02  0.51338361296E+03  0.52715891445E+03  0.78060378517E+02 0.  0.
          5    1    5    5  501    0 -0.70533424326E+01  0.53753331710E+02  0.34328059889E+02  0.64340313996E+02  0.47000000000E+01 0. -1.
        -13    1    6    6    0    0 -0.28157924906E+02  0.27879993442E+02  0.15756075677E+03  0.16246708849E+03  0.00000000000E+00 0.  1.
         14    1    6    6    0    0  0.53678877809E+02  0.59235133246E+02  0.35582285618E+03  0.36469182595E+03  0.00000000000E+00 0. -1.
         -5    1    3    3    0  503 -0.66018621957E+02 -0.26753250204E+02  0.10153597561E+03  0.12412026097E+03  0.47000000000E+01 0.  1.
         13    1    4    4    0    0  0.17040824187E+02  0.38696091006E+01 -0.26470558249E+01  0.17674005434E+02  0.00000000000E+00 0. -1.
        -14    1    4    4    0    0  0.30510187300E+02 -0.11798481729E+03  0.12492336215E+03  0.17451972683E+03  0.00000000000E+00 0.  1.
</event>
<event>
12    1  0.8331241E-002  0.1999891E+03  0.7818608E-02  0.1150019E+00
         21   -1    0    0  503  502  0.00000000000E+00  0.00000000000E+00  0.23586922464E+03  0.23586922464E+03  0.00000000000E+00 0.  1.
         21   -1    0    0  501  503 -0.00000000000E+00 -0.00000000000E+00 -0.17356081277E+03  0.17356081277E+03  0.00000000000E+00 0.  1.
          6    2    1    2  501    0  0.71340450667E+02  0.70554681793E+02 -0.37560357374E+01  0.20002432453E+03  0.17299768662E+03 0.  0.
         24    2    3    3    0    0  0.95781840435E+01  0.65985023550E+02  0.52719110389E+02  0.11607796377E+03  0.79050769328E+02 0.  0.
         -6    2    1    2    0  502 -0.71340450667E+02 -0.70554681793E+02  0.66064447604E+02  0.20940571287E+03  0.17151914856E+03 0.  0.
        -24    2    5    5    0    0 -0.46671628041E+02 -0.20100826775E+02  0.10406126141E+03  0.14143520342E+03  0.81196591928E+02 0.  0.
          5    1    3    3  501    0  0.61762266623E+02  0.45696582430E+01 -0.56475146126E+02  0.83946360760E+02  0.47000000000E+01 0. -1.
        -11    1    4    4    0    0  0.23980079021E+02  0.95087917133E+01  0.51707950695E+02  0.57785581894E+02  0.00000000000E+00 0.  1.
         12    1    4    4    0    0 -0.14401894978E+02  0.56476231836E+02  0.10111596936E+01  0.58292381881E+02  0.00000000000E+00 0. -1.
         -5    1    5    5    0  502 -0.24668822626E+02 -0.50453855017E+02 -0.37996813801E+02  0.67970509450E+02  0.47000000000E+01 0.  1.
         13    1    6    6    0    0 -0.56701355569E+02  0.14182142909E+02  0.76745109952E+02  0.96467553107E+02  0.00000000000E+00 0. -1.
        -14    1    6    6    0    0  0.10029727528E+02 -0.34282969685E+02  0.27316151453E+02  0.44967650315E+02  0.00000000000E+00 0.  1.
</event>
<event>
12    1  0.8331241E-002  0.2516619E+03  0.7818608E-02  0.1112335E+00
         21   -1    0    0  503  502  0.00000000000E+00  0.00000000000E+00  0.17116182653E+03  0.17116182653E+03  0.00000000000E+00 0.  1.
         21   -1    0    0  501  503 -0.00000000000E+00 -0.00000000000E+00 -0.62435196984E+03  0.62435196984E+03  0.00000000000E+00 0. -1.
          6    2    1    2  501    0  0.12282107335E+03 -0.13547010166E+03 -0.48094201101E+03  0.54280652507E+03  0.17290616298E+03 0.  0.
         24    2    3    3    0    0  0.42253292954E+02 -0.14057695714E+03 -0.36187882138E+03  0.39887813893E+03  0.81242025501E+02 0.  0.
         -6    2    1    2    0  502 -0.12282107335E+03  0.13547010166E+03  0.27751867708E+02  0.25270727130E+03  0.17220230633E+03 0.  0.
        -24    2    5    5    0    0 -0.11341781337E+02  0.94021054341E+02 -0.19758753618E+02  0.12454719480E+03  0.78441065295E+02 0.  0.
          5    1    3    3  501    0  0.80567780391E+02  0.51068554856E+01 -0.11906318964E+03  0.14392838614E+03  0.47000000000E+01 0. -1.
        -13    1    4    4    0    0  0.61049679185E+01  0.89853354949E+00  0.22453037865E+01  0.65665352295E+01  0.00000000000E+00 0.  1.
         14    1    4    4    0    0  0.36148325036E+02 -0.14147549069E+03 -0.36412412516E+03  0.39231160370E+03  0.00000000000E+00 0. -1.
         -5    1    5    5    0  502 -0.11147929201E+03  0.41449047318E+02  0.47510621326E+02  0.12816007650E+03  0.47000000000E+01 0.  1.
         13    1    6    6    0    0 -0.12895333611E+02  0.10577620464E+03 -0.27915484696E+02  0.11015520588E+03  0.00000000000E+00 0. -1.
        -14    1    6    6    0    0  0.15535522737E+01 -0.11755150297E+02  0.81567310782E+01  0.14391988920E+02  0.00000000000E+00 0.  1.
</event>
<event>
12    1  0.8331241E-002  0.2516064E+03  0.7818608E-02  0.1112383E+00
         21   -1    0    0  501  502  0.00000000000E+00  0.00000000000E+00  0.47242520928E+03  0.47242520928E+03  0.00000000000E+00 0. -1.
         21   -1    0    0  502  503 -0.00000000000E+00 -0.00000000000E+00 -0.36959824979E+03  0.36959824979E+03  0.00000000000E+00 0.  1.
         -6    2    1    2    0  503 -0.60187826095E+01  0.18242680734E+03 -0.28495710291E+03  0.37976569757E+03  0.17235332539E+03 0.  0.
        -24    2    3    3    0    0  0.34824141939E+02  0.18935593341E+03 -0.22482440451E+03  0.30659337568E+03  0.79906787994E+02 0.  0.
          6    2    1    2  501    0  0.60187826095E+01 -0.18242680734E+03  0.38778406240E+03  0.46225776150E+03  0.17317619131E+03 0.  0.
         24    2    5    5    0    0 -0.35897021945E+02 -0.12472549810E+03  0.14950934699E+03  0.21349420757E+03  0.79885454046E+02 0.  0.
          5    1    5    5  501    0  0.41915804555E+02 -0.57701309237E+02  0.23827471541E+03  0.24876355393E+03  0.47000000000E+01 0. -1.
        -13    1    6    6    0    0 -0.16194279870E+02 -0.29554712800E+02 -0.17011337540E+01  0.33743586135E+02  0.00000000000E+00 0.  1.
         14    1    6    6    0    0 -0.19702742075E+02 -0.95170785300E+02  0.15121048074E+03  0.17975062144E+03  0.00000000000E+00 0. -1.
         -5    1    3    3    0  503 -0.40842924548E+02 -0.69291260779E+01 -0.60132698398E+02  0.73172321888E+02  0.47000000000E+01 0.  1.
         11    1    4    4    0    0  0.43170250692E+02  0.12003882269E+03 -0.18926516203E+03  0.22824173820E+03  0.00000000000E+00 0. -1.
        -12    1    4    4    0    0 -0.83461087532E+01  0.69317110724E+02 -0.35559242480E+02  0.78351637482E+02  0.00000000000E+00 0.  1.
</event>
<event>
12    1  0.8331241E-002  0.1979192E+03  0.7818608E-02  0.1152014E+00
         21   -1    0    0  503  502  0.00000000000E+00  0.00000000000E+00  0.80075531740E+02  0.80075531740E+02  0.00000000000E+00 0. -1.
         21   -1    0    0  501  503 -0.00000000000E+00 -0.00000000000E+00 -0.12884192164E+04  0.12884192164E+04  0.00000000000E+00 0. -1.
          6    2    1    2  501    0 -0.91460775376E+02  0.21992832353E+02 -0.11436810560E+04  0.11602802887E+04  0.17145037924E+03 0.  0.
         24    2    3    3    0    0 -0.12301288386E+03  0.43646977302E+02 -0.80816729652E+03  0.82255849447E+03  0.80192701885E+02 0.  0.
         -6    2    1    2    0  502  0.91460775376E+02 -0.21992832353E+02 -0.64662628636E+02  0.20821445935E+03  0.17413571556E+03 0.  0.
        -24    2    5    5    0    0  0.94406192281E+02 -0.36827585028E+02 -0.96472835082E+02  0.17267962290E+03  0.10120496082E+03 0.  0.
          5    1    3    3  501    0  0.31552108485E+02 -0.21654144948E+02 -0.33551375946E+03  0.33772179428E+03  0.47000000000E+01 0. -1.
        -11    1    4    4    0    0  0.42808390534E+00  0.12454449133E+02 -0.16285265821E+02  0.20506253726E+02  0.00000000000E+00 0.  1.
         12    1    4    4    0    0 -0.12344096777E+03  0.31192528169E+02 -0.79188203070E+03  0.80205224074E+03  0.00000000000E+00 0. -1.
         -5    1    5    5    0  502 -0.29454169049E+01  0.14834752675E+02  0.31810206446E+02  0.35534836454E+02  0.47000000000E+01 0.  1.
         11    1    6    6    0    0  0.54668919312E+02 -0.35990955435E+02 -0.11223201767E+03  0.12992330584E+03  0.00000000000E+00 0. -1.
        -12    1    6    6    0    0  0.39737272969E+02 -0.83662959300E+00  0.15759182585E+02  0.42756317052E+02  0.00000000000E+00 0.  1.
</event>
<event>
12    1  0.8331241E-002  0.1954793E+03  0.7818608E-02  0.1154204E+00
         21   -1    0    0  501  502  0.00000000000E+00  0.00000000000E+00  0.99919625886E+02  0.99919625886E+02  0.00000000000E+00 0. -1.
         21   -1    0    0  502  503 -0.00000000000E+00 -0.00000000000E+00 -0.37728838910E+03  0.37728838910E+03  0.00000000000E+00 0.  1.
         -6    2    1    2    0  503 -0.25688593226E+02  0.81758894889E+02 -0.14442731688E+03  0.24304606049E+03  0.17569210837E+03 0.  0.
        -24    2    3    3    0    0 -0.33886704768E+02  0.58697065783E+02 -0.79350311424E+01  0.10429703866E+03  0.78874921626E+02 0.  0.
          6    2    1    2  501    0  0.25688593226E+02 -0.81758894889E+02 -0.13294144633E+03  0.23416195449E+03  0.17266722927E+03 0.  0.
         24    2    5    5    0    0 -0.31225449976E+02 -0.50233887080E+02 -0.13333920148E+03  0.16892942702E+03  0.85201740148E+02 0.  0.
          5    1    5    5  501    0  0.56914043202E+02 -0.31525007809E+02  0.39775515277E+00  0.65232527470E+02  0.47000000000E+01 0. -1.
        -13    1    6    6    0    0  0.14654765296E+02  0.11482028139E+02 -0.59396831461E+02  0.62246146095E+02  0.00000000000E+00 0.  1.
         14    1    6    6    0    0 -0.45880215272E+02 -0.61715915220E+02 -0.73942370022E+02  0.10668328093E+03  0.00000000000E+00 0. -1.
         -5    1    3    3    0  503  0.81981115417E+01  0.23061829106E+02 -0.13649228574E+03  0.13874902184E+03  0.47000000000E+01 0.  1.
         11    1    4    4    0    0  0.10672851741E+01  0.67840938755E+02 -0.60267603184E+01  0.68116473108E+02  0.00000000000E+00 0. -1.
        -12    1    4    4    0    0 -0.34953989942E+02 -0.91438729717E+01 -0.19082708240E+01  0.36180565547E+02  0.00000000000E+00 0.  1.
</event>
<event>
12    1  0.8331241E-002  0.2151005E+03  0.7818608E-02  0.1139422E+00
         21   -1    0    0  503  502  0.00000000000E+00  0.00000000000E+00  0.94432418347E+03  0.94432418347E+03  0.00000000000E+00 0.  1.
         21   -1    0    0  501  503 -0.00000000000E+00 -0.00000000000E+00 -0.50386168095E+02  0.50386168095E+02  0.00000000000E+00 0. -1.
          6    2    1    2  501    0  0.28781070907E+02 -0.12527395138E+03  0.32529855731E+03  0.38998383077E+03  0.17247122640E+03 0.  0.
         24    2    3    3    0    0  0.14670790260E+02 -0.27417114539E+02  0.25723450818E+03  0.26985945639E+03  0.75416203487E+02 0.  0.
         -6    2    1    2    0  502 -0.28781070907E+02  0.12527395138E+03  0.56863945807E+03  0.60472652080E+03  0.16069044388E+03 0.  0.
        -24    2    5    5    0    0 -0.33923056463E+02  0.13634531531E+03  0.34794012957E+03  0.38363988911E+03  0.79852438795E+02 0.  0.
          5    1    3    3  501    0  0.14110280647E+02 -0.97856836837E+02  0.68064049135E+02  0.12012437438E+03  0.47000000000E+01 0. -1.
        -11    1    4    4    0    0  0.70573748086E+01 -0.52686055782E+02  0.14152664695E+03  0.15118008735E+03  0.00000000000E+00 0.  1.
         12    1    4    4    0    0  0.76134154514E+01  0.25268941244E+02  0.11570786122E+03  0.11867936904E+03  0.00000000000E+00 0. -1.
         -5    1    5    5    0  502  0.51419855557E+01 -0.11071363935E+02  0.22069932850E+03  0.22108663170E+03  0.47000000000E+01 0.  1.
         11    1    6    6    0    0 -0.15446963841E+02  0.54011207402E+01  0.67191782106E+01  0.17689775379E+02  0.00000000000E+00 0. -1.
        -12    1    6    6    0    0 -0.18476092622E+02  0.13094419457E+03  0.34122095136E+03  0.36595011373E+03  0.00000000000E+00 0.  1.
</event>
<event>
12    1  0.8331241E-002  0.3705970E+03  0.7818608E-02  0.1054546E+00
         21   -1    0    0  501  502  0.00000000000E+00  0.00000000000E+00  0.35214909651E+03  0.35214909651E+03  0.00000000000E+00 0. -1.
         21   -1    0    0  502  503 -0.00000000000E+00 -0.00000000000E+00 -0.95078858990E+03  0.95078858990E+03  0.00000000000E+00 0.  1.
         -6    2    1    2    0  503  0.51031974002E+02  0.32473439798E+03 -0.80017606193E+03  0.88182982409E+03  0.17112982488E+03 0.  0.
        -24    2    3    3    0    0  0.35324628137E+02  0.20523185485E+03 -0.34516451927E+03  0.41110148153E+03  0.80609795678E+02 0.  0.
          6    2    1    2  501    0 -0.51031974002E+02 -0.32473439798E+03  0.20153656854E+03  0.42110786233E+03  0.16928718692E+03 0.  0.
         24    2    5    5    0    0 -0.81596180102E+02 -0.17178375444E+03  0.15399080480E+03  0.25797981537E+03  0.81687344678E+02 0.  0.
          5    1    5    5  501    0  0.30564206100E+02 -0.15295064354E+03  0.47545763741E+02  0.16312804696E+03  0.47000000000E+01 0. -1.
        -11    1    6    6    0    0  0.10138605987E+02 -0.34948926197E+02  0.54488642651E+02  0.65522751405E+02  0.00000000000E+00 0.  1.
         12    1    6    6    0    0 -0.91734786089E+02 -0.13683482824E+03  0.99502162144E+02  0.19245706396E+03  0.00000000000E+00 0. -1.
         -5    1    3    3    0  503  0.15707345865E+02  0.11950254313E+03 -0.45501154266E+03  0.47072834255E+03  0.47000000000E+01 0.  1.
         13    1    4    4    0    0 -0.18725956176E+02  0.13950207158E+02 -0.50808825130E+02  0.55917854265E+02  0.00000000000E+00 0. -1.
        -14    1    4    4    0    0  0.54050584313E+02  0.19128164769E+03 -0.29435569414E+03  0.35518362727E+03  0.00000000000E+00 0.  1.
</event>
<event>
12    1  0.8331241E-002  0.2351914E+03  0.7818608E-02  0.1123223E+00
         21   -1    0    0  501  502  0.00000000000E+00  0.00000000000E+00  0.20890636760E+03  0.20890636760E+03  0.00000000000E+00 0. -1.
         21   -1    0    0  502  503 -0.00000000000E+00 -0.00000000000E+00 -0.56151501466E+03  0.56151501466E+03  0.00000000000E+00 0. -1.
         -6    2    1    2    0  503 -0.35548861895E+02  0.15597235556E+03 -0.45709241130E+03  0.51405104598E+03  0.17240622996E+03 0.  0.
        -24    2    3    3    0    0 -0.25306733699E+02  0.16883620746E+02 -0.96804351912E+02  0.12768314737E+03  0.77501071949E+02 0.  0.
          6    2    1    2  501    0  0.35548861895E+02 -0.15597235556E+03  0.10448376424E+03  0.25637033628E+03  0.17093213582E+03 0.  0.
         24    2    5    5    0    0  0.18376751461E+02 -0.39240874642E+02 -0.95766100311E+01  0.92196711748E+02  0.80814422973E+02 0.  0.
          5    1    5    5  501    0  0.17172110434E+02 -0.11673148092E+03  0.11406037427E+03  0.16417362454E+03  0.47000000000E+01 0. -1.
        -11    1    6    6    0    0 -0.27874601814E+02  0.21462600564E+00 -0.14092309516E+02  0.31235119307E+02  0.00000000000E+00 0.  1.
         12    1    6    6    0    0  0.46251353275E+02 -0.39455500648E+02  0.45156994849E+01  0.60961592441E+02  0.00000000000E+00 0. -1.
         -5    1    3    3    0  503 -0.10242128196E+02  0.13908873482E+03 -0.36028805939E+03  0.38636789861E+03  0.47000000000E+01 0.  1.
         13    1    4    4    0    0 -0.46289482849E+01  0.42649658544E+02 -0.27639215451E+02  0.51032800892E+02  0.00000000000E+00 0. -1.
        -14    1    4    4    0    0 -0.20677785414E+02 -0.25766037799E+02 -0.69165136462E+02  0.76650346478E+02  0.00000000000E+00 0.  1.
</event>
<event>
12    1  0.8331241E-002  0.2864198E+03  0.7818608E-02  0.1092379E+00
         21   -1    0    0  503  502  0.00000000000E+00  0.00000000000E+00  0.39281253987E+03  0.39281253987E+03  0.00000000000E+00 0. -1.
         21   -1    0    0  501  503 -0.00000000000E+00 -0.00000000000E+00 -0.10069446578E+04  0.10069446578E+04  0.00000000000E+00 0.  1.
          6    2    1    2  501    0  0.21293745938E+03 -0.84185941137E+02 -0.93034318860E+03  0.97311243212E+03  0.17023431700E+03 0.  0.
         24    2    3    3    0    0  0.59743694580E+02 -0.64574551210E+02 -0.54227005071E+03  0.55540944370E+03  0.81753657684E+02 0.  0.
         -6    2    1    2    0  502 -0.21293745938E+03  0.84185941137E+02  0.31621107064E+03  0.42664476558E+03  0.17206591908E+03 0.  0.
        -24    2    5    5    0    0 -0.20551810310E+03  0.51647528533E+02  0.18916128870E+03  0.29520073857E+03  0.80351260153E+02 0.  0.
          5    1    3    3  501    0  0.15319376480E+03 -0.19611389926E+02 -0.38807313788E+03  0.41770298842E+03  0.47000000000E+01 0. -1.
        -11    1    4    4    0    0  0.75436883907E+02 -0.64265045918E+02 -0.39242263648E+03  0.40474219598E+03  0.00000000000E+00 0.  1.
         12    1    4    4    0    0 -0.15693189327E+02 -0.30950529207E+00 -0.14984741423E+03  0.15066724773E+03  0.00000000000E+00 0. -1.
         -5    1    5    5    0  502 -0.74193562750E+01  0.32538412604E+02  0.12704978194E+03  0.13144402700E+03  0.47000000000E+01 0.  1.
         13    1    6    6    0    0 -0.13198688449E+03  0.13388461637E+02  0.15880684748E+03  0.20692849825E+03  0.00000000000E+00 0. -1.
        -14    1    6    6    0    0 -0.73531218613E+02  0.38259066896E+02  0.30354441219E+02  0.88272240326E+02  0.00000000000E+00 0.  1.
</event>
<event>
12    1  0.8331241E-002  0.2134117E+03  0.7818608E-02  0.1139166E+00
         21   -1    0    0  503  502  0.00000000000E+00  0.00000000000E+00  0.74870188055E+03  0.74870188055E+03  0.00000000000E+00 0.  1.
         21   -1    0    0  501  503 -0.00000000000E+00 -0.00000000000E+00 -0.41792072215E+03  0.41792072215E+03  0.00000000000E+00 0.  1.
          6    2    1    2  501    0 -0.12453055164E+03  0.23797861682E+02 -0.37402240533E+03  0.43062435386E+03  0.17166938555E+03 0.  0.
         24    2    3    3    0    0 -0.12709813017E+03  0.59836334182E+02 -0.22587672553E+03  0.27806421357E+03  0.81025243927E+02 0.  0.
         -6    2    1    2    0  502  0.12453055164E+03 -0.23797861682E+02  0.70480356374E+03  0.73599824884E+03  0.16991516212E+03 0.  0.
        -24    2    5    5    0    0  0.13302294930E+03 -0.48242446192E+02  0.42995573240E+03  0.45989486435E+03  0.81356719342E+02 0.  0.
          5    1    3    3  501    0  0.25675785347E+01 -0.36038472500E+02 -0.14814567981E+03  0.15256014029E+03  0.47000000000E+01 0. -1.
        -11    1    4    4    0    0 -0.47037852911E+02 -0.18031937025E+02 -0.65486630119E+02  0.82620875593E+02  0.00000000000E+00 0.  1.
         12    1    4    4    0    0 -0.80060277263E+02  0.77868271207E+02 -0.16039009541E+03  0.19544333798E+03  0.00000000000E+00 0. -1.
         -5    1    5    5    0  502 -0.84923976612E+01  0.24444584510E+02  0.27484783134E+03  0.27610338449E+03  0.47000000000E+01 0.  1.
         13    1    6    6    0    0  0.36425100979E+02 -0.11444006984E+02  0.35551670588E+02  0.52169670871E+02  0.00000000000E+00 0. -1.
        -14    1    6    6    0    0  0.96597848321E+02 -0.36798439208E+02  0.39440406181E+03  0.40772519348E+03  0.00000000000E+00 0.  1.
</event>
<event>
12    1  0.8331241E-002  0.2978961E+03  0.7818608E-02  0.1086472E+00
         21   -1    0    0  501  502  0.00000000000E+00  0.00000000000E+00  0.65970301402E+03  0.65970301402E+03  0.00000000000E+00 0.  1.
         21   -1    0    0  502  503 -0.00000000000E+00 -0.00000000000E+00 -0.17939585710E+03  0.17939585710E+03  0.00000000000E+00 0. -1.
         -6    2    1    2    0  503  0.87762043940E+00 -0.24209899866E+03  0.45186354577E+03  0.54122338845E+03  0.17357821533E+03 0.  0.
        -24    2    3    3    0    0  0.43849391563E+02 -0.11058801562E+03  0.31690291207E+03  0.34788902931E+03  0.80292233119E+02 0.  0.
          6    2    1    2  501    0 -0.87762043940E+00  0.24209899866E+03  0.28443611137E+02  0.29787548267E+03  0.17119599525E+03 0.  0.
         24    2    5    5    0    0 -0.49919239885E+02  0.87636414972E+02 -0.16772663306E+02  0.12955919803E+03  0.79575070347E+02 0.  0.
          5    1    5    5  501    0  0.49041619446E+02  0.15446258369E+03  0.45216274443E+02  0.16831628463E+03  0.47000000000E+01 0. -1.
        -13    1    6    6    0    0 -0.10629355230E+02  0.27558053246E+02  0.31399637516E+02  0.43108777847E+02  0.00000000000E+00 0.  1.
         14    1    6    6    0    0 -0.39289884655E+02  0.60078361726E+02 -0.48172300822E+02  0.86450420186E+02  0.00000000000E+00 0. -1.
         -5    1    3    3    0  503 -0.42971771123E+02 -0.13151098304E+03  0.13496063371E+03  0.19333435914E+03  0.47000000000E+01 0.  1.
         13    1    4    4    0    0  0.29277282189E+00 -0.91950453217E+02  0.24591585940E+03  0.26254443713E+03  0.00000000000E+00 0. -1.
        -14    1    4    4    0    0  0.43556618741E+02 -0.18637562402E+02  0.70987052668E+02  0.85344592183E+02  0.00000000000E+00 0.  1.
</event>
<event>
12    1  0.8331241E-002  0.1735804E+03  0.7818608E-02  0.1174264E+00
         21   -1    0    0  501  502  0.00000000000E+00  0.00000000000E+00  0.35739498492E+03  0.35739498492E+03  0.00000000000E+00 0.  1.
         21   -1    0    0  502  503 -0.00000000000E+00 -0.00000000000E+00 -0.98957363928E+02  0.98957363928E+02  0.00000000000E+00 0.  1.
         -6    2    1    2    0  503 -0.14545652851E+02 -0.72386580756E+01  0.40972915812E+02  0.17835060076E+03  0.17281835196E+03 0.  0.
        -24    2    3    3    0    0  0.53550079015E+02 -0.94298399920E+01  0.57543832515E+02  0.10807603028E+03  0.73570393608E+02 0.  0.
          6    2    1    2  501    0  0.14545652851E+02  0.72386580756E+01  0.21746470518E+03  0.27800174808E+03  0.17242418552E+03 0.  0.
         24    2    5    5    0    0 -0.26202514159E+02  0.19232072009E+02  0.21894865853E+03  0.23524023256E+03  0.79643000940E+02 0.  0.
          5    1    5    5  501    0  0.40748167009E+02 -0.11993413934E+02 -0.14839533556E+01  0.42761515524E+02  0.47000000000E+01 0. -1.
        -11    1    6    6    0    0  0.15997880944E+02 -0.21237683380E+02  0.53065108410E+02  0.59353829873E+02  0.00000000000E+00 0.  1.
         12    1    6    6    0    0 -0.42200395103E+02  0.40469755389E+02  0.16588355013E+03  0.17588640269E+03  0.00000000000E+00 0. -1.
         -5    1    3    3    0  503 -0.68095731865E+02  0.21911819163E+01 -0.16570916703E+02  0.70274570485E+02  0.47000000000E+01 0.  1.
         11    1    4    4    0    0  0.14609327817E+02  0.27883026643E+02  0.34110898275E+01  0.31662772587E+02  0.00000000000E+00 0. -1.
        -12    1    4    4    0    0  0.38940751197E+02 -0.37312866635E+02  0.54132742688E+02  0.76413257693E+02  0.00000000000E+00 0.  1.
</event>
<event>
12    1  0.8331241E-002  0.2003817E+03  0.7818608E-02  0.1149883E+00
         21   -1    0    0  503  502  0.00000000000E+00  0.00000000000E+00  0.30483708675E+02  0.30483708675E+02  0.00000000000E+00 0.  1.
         21   -1    0    0  501  503 -0.00000000000E+00 -0.00000000000E+00 -0.13601533724E+04  0.13601533724E+04  0.00000000000E+00 0.  1.
          6    2    1    2  501    0 -0.69151442501E+01 -0.10165593304E+03 -0.52554354840E+03  0.56244898876E+03  0.17254302577E+03 0.  0.
         24    2    3    3    0    0  0.88646683859E+01 -0.13130801253E+03 -0.32905216493E+03  0.36305189227E+03  0.78809724914E+02 0.  0.
         -6    2    1    2    0  502  0.69151442501E+01  0.10165593304E+03 -0.80412611530E+03  0.82818809230E+03  0.16998517281E+03 0.  0.
        -24    2    5    5    0    0  0.27774902816E+02  0.67959550952E+02 -0.76385308426E+03  0.77149080205E+03  0.79602622507E+02 0.  0.
          5    1    3    3  501    0 -0.15779812636E+02  0.29652079487E+02 -0.19649138348E+03  0.19939709648E+03  0.47000000000E+01 0. -1.
        -13    1    4    4    0    0  0.27208853626E+02 -0.95573477110E+02 -0.29184732566E+03  0.30830094508E+03  0.00000000000E+00 0.  1.
         14    1    4    4    0    0 -0.18344185240E+02 -0.35734535417E+02 -0.37204839263E+02  0.54750947189E+02  0.00000000000E+00 0. -1.
         -5    1    5    5    0  502 -0.20859758566E+02  0.33696382088E+02 -0.40273031041E+02  0.56697290256E+02  0.47000000000E+01 0.  1.
         11    1    6    6    0    0 -0.32123834654E+01  0.27015564336E+01 -0.42508439938E+03  0.42510512160E+03  0.00000000000E+00 0. -1.
        -12    1    6    6    0    0  0.30987286281E+02  0.65257994519E+02 -0.33876868488E+03  0.34638568044E+03  0.00000000000E+00 0.  1.
</event>
<event>
12    1  0.8331241E-002  0.2307730E+03  0.7818608E-02  0.1126416E+00
         21   -1    0    0  501  502  0.00000000000E+00  0.00000000000E+00  0.25427019439E+03  0.25427019439E+03  0.00000000000E+00 0. -1.
         21   -1    0    0  502  503 -0.00000000000E+00 -0.00000000000E+00 -0.35191743417E+03  0.35191743417E+03  0.00000000000E+00 0.  1.
         -6    2    1    2    0  503  0.13221605264E+03  0.79354824125E+02  0.14524748879E+03  0.27114430833E+03  0.16924576878E+03 0.  0.
        -24    2    3    3    0    0  0.14439809328E+03  0.90011996699E+02  0.16118303475E+03  0.24794928588E+03  0.80906790724E+02 0.  0.
          6    2    1    2  501    0 -0.13221605264E+03 -0.79354824125E+02 -0.24289472857E+03  0.33504332024E+03  0.17169130607E+03 0.  0.
         24    2    5    5    0    0 -0.16323662295E+03 -0.73432915946E+02 -0.22731648255E+03  0.29951704085E+03  0.77453768811E+02 0.  0.
          5    1    5    5  501    0  0.31020570303E+02 -0.59219081798E+01 -0.15578246018E+02  0.35526279392E+02  0.47000000000E+01 0. -1.
        -11    1    6    6    0    0 -0.12664301932E+03 -0.24363406996E+02 -0.12101997412E+03  0.17685548925E+03  0.00000000000E+00 0.  1.
         12    1    6    6    0    0 -0.36593603628E+02 -0.49069508950E+02 -0.10629650843E+03  0.12266155159E+03  0.00000000000E+00 0. -1.
         -5    1    3    3    0  503 -0.12182040636E+02 -0.10657172573E+02 -0.15935545959E+02  0.23195022447E+02  0.47000000000E+01 0.  1.
         13    1    4    4    0    0  0.11775785596E+03  0.65422521901E+02  0.16322841524E+03  0.21163774369E+03  0.00000000000E+00 0. -1.
        -14    1    4    4    0    0  0.26640237319E+02  0.24589474798E+02 -0.20453804856E+01  0.36311542195E+02  0.00000000000E+00 0.  1.
</event>
<event>
12    1  0.8331241E-002  0.2251781E+03  0.7818608E-02  0.1130102E+00
         21   -1    0    0  503  502  0.00000000000E+00  0.00000000000E+00  0.14502736446E+03  0.14502736446E+03  0.00000000000E+00 0. -1.
         21   -1    0    0  501  503 -0.00000000000E+00 -0.00000000000E+00 -0.37754628958E+03  0.37754628958E+03  0.00000000000E+00 0. -1.
          6    2    1    2  501    0  0.14069321399E+03 -0.38351037864E+02 -0.18752026916E+03  0.29294336601E+03  0.17142514918E+03 0.  0.
         24    2    3    3    0    0  0.13565440378E+03 -0.83833921725E+02 -0.14347497496E+03  0.22925537440E+03  0.80887048142E+02 0.  0.
         -6    2    1    2    0  502 -0.14069321399E+03  0.38351037864E+02 -0.44998655959E+02  0.22963028804E+03  0.17158032398E+03 0.  0.
        -24    2    5    5    0    0 -0.85569143253E+02  0.75136507400E+02 -0.73186034462E+02  0.15746068051E+03  0.80436914695E+02 0.  0.
          5    1    3    3  501    0  0.50388102063E+01  0.45482883860E+02 -0.44045294205E+02  0.63687991601E+02  0.47000000000E+01 0. -1.
        -11    1    4    4    0    0  0.10709571873E+03 -0.32932872223E+02 -0.59143561257E+02  0.12669659775E+03  0.00000000000E+00 0.  1.
         12    1    4    4    0    0  0.28558685053E+02 -0.50901049502E+02 -0.84331413703E+02  0.10255877666E+03  0.00000000000E+00 0. -1.
         -5    1    5    5    0  502 -0.55124070734E+02 -0.36785469535E+02  0.28187378504E+02  0.72169607524E+02  0.47000000000E+01 0.  1.
         13    1    6    6    0    0 -0.56220878880E+02  0.53767158822E+02 -0.23088861291E+01  0.77826894741E+02  0.00000000000E+00 0. -1.
        -14    1    6    6    0    0 -0.29348264372E+02  0.21369348578E+02 -0.70877148333E+02  0.79633785771E+02  0.00000000000E+00 0.  1.
</event>
<event>
12    1  0.8331241E-002  0.1851906E+03  0.7818608E-02  0.1162912E+00
         21   -1    0    0  501  502  0.00000000000E+00  0.00000000000E+00  0.25571792122E+03  0.25571792122E+03  0.00000000000E+00 0.  1.
         21   -1    0    0  502  503 -0.00000000000E+00 -0.00000000000E+00 -0.18308453253E+03  0.18308453253E+03  0.00000000000E+00 0.  1.
         -6    2    1    2    0  503 -0.49869216598E+02 -0.41112349551E+02  0.14994212674E+03  0.23828174697E+03  0.17354649382E+03 0.  0.
        -24    2    3    3    0    0  0.17250860094E+01 -0.81878288684E+02  0.11587393778E+03  0.16407551169E+03  0.82383092931E+02 0.  0.
          6    2    1    2  501    0  0.49869216598E+02  0.41112349551E+02 -0.77308738049E+02  0.20052070678E+03  0.17336305494E+03 0.  0.
         24    2    5    5    0    0  0.42511463037E+02  0.40497431143E+02 -0.12095423630E+03  0.15600628014E+03  0.79125000757E+02 0.  0.
          5    1    5    5  501    0  0.73577535611E+01  0.61491840799E+00  0.43645498248E+02  0.44514426644E+02  0.47000000000E+01 0. -1.
        -13    1    6    6    0    0 -0.48400602469E+01  0.37951892709E+02 -0.93938133819E+02  0.10143049506E+03  0.00000000000E+00 0.  1.
         14    1    6    6    0    0  0.47351523284E+02  0.25455384345E+01 -0.27016102479E+02  0.54575785073E+02  0.00000000000E+00 0. -1.
         -5    1    3    3    0  503 -0.51594302607E+02  0.40765939133E+02  0.34068188955E+02  0.74206235275E+02  0.47000000000E+01 0.  1.
         13    1    4    4    0    0  0.26928215126E+02 -0.30119948176E+02  0.71203750840E+01  0.41024867938E+02  0.00000000000E+00 0. -1.
        -14    1    4    4    0    0 -0.25203129116E+02 -0.51758340508E+02  0.10875356270E+03  0.12305064375E+03  0.00000000000E+00 0.  1.
</event>
<event>
12    1  0.8331241E-002  0.2251561E+03  0.7818608E-02  0.1130509E+00
         21   -1    0    0  503  502  0.00000000000E+00  0.00000000000E+00  0.18603138694E+03  0.18603138694E+03  0.00000000000E+00 0.  1.
         21   -1    0    0  501  503 -0.00000000000E+00 -0.00000000000E+00 -0.27261327853E+03  0.27261327853E+03  0.00000000000E+00 0.  1.
          6    2    1    2  501    0 -0.29505693073E+02 -0.14006370405E+03 -0.66942362300E+02  0.23489688598E+03  0.17380115090E+03 0.  0.
         24    2    3    3    0    0 -0.26692602367E+02 -0.17059389199E+03 -0.73763777968E+02  0.20313798855E+03  0.77518878002E+02 0.  0.
         -6    2    1    2    0  502  0.29505693073E+02  0.14006370405E+03 -0.19639529292E+02  0.22374777949E+03  0.17084768245E+03 0.  0.
        -24    2    5    5    0    0  0.23606846185E+02  0.63484892801E+02  0.53030303350E+02  0.11790778089E+03  0.80637565189E+02 0.  0.
          5    1    3    3  501    0 -0.28130907059E+01  0.30530187932E+02  0.68214156682E+01  0.31758897433E+02  0.47000000000E+01 0. -1.
        -11    1    4    4    0    0 -0.27644193517E+02 -0.11846103754E+03 -0.86744551472E+02  0.14940493988E+03  0.00000000000E+00 0.  1.
         12    1    4    4    0    0  0.95159114977E+00 -0.52132854444E+02  0.12980773504E+02  0.53733048666E+02  0.00000000000E+00 0. -1.
         -5    1    5    5    0  502  0.58988468877E+01  0.76578811253E+02 -0.72669832643E+02  0.10583999860E+03  0.47000000000E+01 0.  1.
         11    1    6    6    0    0 -0.30086799469E+01 -0.17189760597E+02 -0.56913478671E+00  0.17460353341E+02  0.00000000000E+00 0. -1.
        -12    1    6    6    0    0  0.26615526132E+02  0.80674653397E+02  0.53599438137E+02  0.10044742755E+03  0.00000000000E+00 0.  1.
</event>
<event>
12    1  0.8331241E-002  0.2360164E+03  0.7818608E-02  0.1122637E+00
         21   -1    0    0  503  502  0.00000000000E+00  0.00000000000E+00  0.58682665190E+02  0.58682665190E+02  0.00000000000E+00 0.  1.
         21   -1    0    0  501  503 -0.00000000000E+00 -0.00000000000E+00 -0.10141163785E+04  0.10141163785E+04  0.00000000000E+00 0. -1.
          6    2    1    2  501    0  0.93036592435E+02  0.12904804147E+03 -0.33901408454E+03  0.41307903175E+03  0.17434027765E+03 0.  0.
         24    2    3    3    0    0  0.60163445191E+02  0.14890366406E+03 -0.32647677484E+03  0.37240762050E+03  0.79425499610E+02 0.  0.
         -6    2    1    2    0  502 -0.93036592435E+02 -0.12904804147E+03 -0.61641962879E+03  0.65972001197E+03  0.17305528275E+03 0.  0.
        -24    2    5    5    0    0 -0.11426808403E+03 -0.43091149244E+02 -0.35775880227E+03  0.38628468737E+03  0.79438384477E+02 0.  0.
          5    1    3    3  501    0  0.32873147244E+02 -0.19855622590E+02 -0.12537309698E+02  0.40671411245E+02  0.47000000000E+01 0. -1.
        -13    1    4    4    0    0  0.59332352075E+02  0.58449353867E+02 -0.11148100531E+03  0.13915699593E+03  0.00000000000E+00 0.  1.
         14    1    4    4    0    0  0.83109311623E+00  0.90454310194E+02 -0.21499576953E+03  0.23325062457E+03  0.00000000000E+00 0. -1.
         -5    1    5    5    0  502  0.21231491595E+02 -0.85956892226E+02 -0.25866082652E+03  0.27343532459E+03  0.47000000000E+01 0.  1.
         11    1    6    6    0    0 -0.43822763206E+01 -0.19411203119E+02 -0.13818228546E+03  0.13960781915E+03  0.00000000000E+00 0. -1.
        -12    1    6    6    0    0 -0.10988580771E+03 -0.23679946126E+02 -0.21957651681E+03  0.24667686823E+03  0.00000000000E+00 0.  1.
</event>
<event>
12    1  0.8331241E-002  0.2164488E+03  0.7818608E-02  0.1136635E+00
         21   -1    0    0  501  502  0.00000000000E+00  0.00000000000E+00  0.23905390632E+03  0.23905390632E+03  0.00000000000E+00 0. -1.
         21   -1    0    0  502  503 -0.00000000000E+00 -0.00000000000E+00 -0.22283173372E+03  0.22283173372E+03  0.00000000000E+00 0. -1.
         -6    2    1    2    0  503 -0.12709160486E+03  0.26473011148E+02 -0.72601131058E+02  0.22792053044E+03  0.17269553445E+03 0.  0.
        -24    2    3    3    0    0 -0.11412826325E+03  0.17301792115E+02 -0.11607842070E+03  0.18139608312E+03  0.78139149829E+02 0.  0.
          6    2    1    2  501    0  0.12709160486E+03 -0.26473011148E+02  0.88823303664E+02  0.23396510960E+03  0.17319641132E+03 0.  0.
         24    2    5    5    0    0 -0.14172239649E+01 -0.33974884297E+02  0.36542990984E+02  0.94946699743E+02  0.80766232519E+02 0.  0.
          5    1    5    5  501    0  0.12850882882E+03  0.75018731492E+01  0.52280312680E+02  0.13901840986E+03  0.47000000000E+01 0. -1.
        -13    1    6    6    0    0  0.94551805831E+01  0.22073252724E+01 -0.22695984201E+02  0.24685631925E+02  0.00000000000E+00 0.  1.
         14    1    6    6    0    0 -0.10872404548E+02 -0.36182209570E+02  0.59238975184E+02  0.70261067818E+02  0.00000000000E+00 0. -1.
         -5    1    3    3    0  503 -0.12963341606E+02  0.91712190329E+01  0.43477289639E+02  0.46524447320E+02  0.47000000000E+01 0.  1.
         11    1    4    4    0    0 -0.10030146118E+03 -0.10870964310E+02 -0.60694302471E+02  0.11773852103E+03  0.00000000000E+00 0. -1.
        -12    1    4    4    0    0 -0.13826802066E+02  0.28172756425E+02 -0.55384118225E+02  0.63657562092E+02  0.00000000000E+00 0.  1.
</event>
<event>
12    1  0.8331241E-002  0.1792064E+03  0.7818608E-02  0.1168856E+00
         21   -1    0    0  501  502  0.00000000000E+00  0.00000000000E+00  0.51903545784E+03  0.51903545784E+03  0.00000000000E+00 0. -1.
         21   -1    0    0  502  503 -0.00000000000E+00 -0.00000000000E+00 -0.80734945053E+02  0.80734945053E+02  0.00000000000E+00 0. -1.
         -6    2    1    2    0  503 -0.42223670997E+02  0.14337463892E+02  0.73220272444E+02  0.19358755397E+03  0.17356996138E+03 0.  0.
        -24    2    3    3    0    0  0.13690367250E+02  0.45086631753E+02 -0.67105482042E+01  0.91201436326E+02  0.77797429344E+02 0.  0.
          6    2    1    2  501    0  0.42223670997E+02 -0.14337463892E+02  0.36508024034E+03  0.40618284892E+03  0.17237321023E+03 0.  0.
         24    2    5    5    0    0  0.48953426004E+02 -0.50684780841E+02  0.35011290535E+03  0.36602655217E+03  0.80193550080E+02 0.  0.
          5    1    5    5  501    0 -0.67297550070E+01  0.36347316950E+02  0.14967334992E+02  0.40156296750E+02  0.47000000000E+01 0. -1.
        -11    1    6    6    0    0 -0.40654924896E+01 -0.95486441478E+01  0.89171368179E+00  0.10416332730E+02  0.00000000000E+00 0.  1.
         12    1    6    6    0    0  0.53018918494E+02 -0.41136136694E+02  0.34922119167E+03  0.35561021944E+03  0.00000000000E+00 0. -1.
         -5    1    3    3    0  503 -0.55914038247E+02 -0.30749167861E+02  0.79930820648E+02  0.10238611765E+03  0.47000000000E+01 0.  1.
         13    1    4    4    0    0  0.98738816955E+01 -0.21334498610E+02 -0.74685048278E+01  0.24666433366E+02  0.00000000000E+00 0. -1.
        -14    1    4    4    0    0  0.38164855542E+01  0.66421130362E+02  0.75795662360E+00  0.66535002960E+02  0.00000000000E+00 0.  1.
</event>
<event>
12    1  0.8331241E-002  0.2032009E+03  0.7818608E-02  0.1149162E+00
         21   -1    0    0  503  502  0.00000000000E+00  0.00000000000E+00  0.67698359419E+02  0.67698359419E+02  0.00000000000E+00 0. -1.
         21   -1    0    0  501  503 -0.00000000000E+00 -0.00000000000E+00 -0.69595722037E+03  0.69595722037E+03  0.00000000000E+00 0. -1.
          6    2    1    2  501    0 -0.29750398134E+02  0.85303408655E+02 -0.47605153568E+03  0.51760569442E+03  0.18201327578E+03 0.  0.
         24    2    3    3    0    0  0.24332929022E+01 -0.22219298843E+02 -0.27698194975E+03  0.28902810882E+03  0.79489804680E+02 0.  0.
         -6    2    1    2    0  502  0.29750398134E+02 -0.85303408655E+02 -0.15220732528E+03  0.24604988537E+03  0.17091436015E+03 0.  0.
        -24    2    5    5    0    0  0.37518166196E+02  0.18797612629E+02 -0.69801464462E+02  0.11297029734E+03  0.78288444900E+02 0.  0.
          5    1    3    3  501    0 -0.32183691036E+02  0.10752270750E+03 -0.19906958593E+03  0.22857758560E+03  0.47000000000E+01 0. -1.
        -11    1    4    4    0    0 -0.27205142768E+02 -0.22113658839E+02 -0.56012136169E+02  0.66079445355E+02  0.00000000000E+00 0.  1.
         12    1    4    4    0    0  0.29638435670E+02 -0.10564000400E+00 -0.22096981358E+03  0.22294866347E+03  0.00000000000E+00 0. -1.
         -5    1    5    5    0  502 -0.77677680628E+01 -0.10410102128E+03 -0.82405860813E+02  0.13307958803E+03  0.47000000000E+01 0.  1.
         11    1    6    6    0    0  0.20137079204E+02 -0.18242055016E+02  0.50780293414E+01  0.27641651761E+02  0.00000000000E+00 0. -1.
        -12    1    6    6    0    0  0.17381086992E+02  0.37039667644E+02 -0.74879493804E+02  0.85328645580E+02  0.00000000000E+00 0.  1.
</event>
<event>
12    1  0.8331241E-002  0.2234245E+03  0.7818608E-02  0.1131517E+00
         21   -1    0    0  503  502  0.00000000000E+00  0.00000000000E+00  0.10651503928E+04  0.10651503928E+04  0.00000000000E+00 0.  1.
         21   -1    0    0  501  503 -0.00000000000E+00 -0.00000000000E+00 -0.49437484105E+02  0.49437484105E+02  0.00000000000E+00 0. -1.
          6    2    1    2  501    0  0.14179337197E+03 -0.11908140984E+02  0.37719091706E+03  0.43839650936E+03  0.17225372955E+03 0.  0.
         24    2    3    3    0    0  0.56258055024E+02 -0.50530528936E+02  0.11018994522E+03  0.15534247165E+03  0.79190633039E+02 0.  0.
         -6    2    1    2    0  502 -0.14179337197E+03  0.11908140984E+02  0.63852199162E+03  0.67619136753E+03  0.17110601272E+03 0.  0.
        -24    2    5    5    0    0 -0.88008601308E+02  0.73905177269E+02  0.39259406702E+03  0.41688639619E+03  0.80353448849E+02 0.  0.
          5    1    3    3  501    0  0.85535316951E+02  0.38622387952E+02  0.26700097185E+03  0.28305403771E+03  0.47000000000E+01 0. -1.
        -13    1    4    4    0    0  0.44203392824E+02 -0.12834415704E+02  0.10597815121E+03  0.11554233292E+03  0.00000000000E+00 0.  1.
         14    1    4    4    0    0  0.12054662200E+02 -0.37696113232E+02  0.42117940045E+01  0.39800138722E+02  0.00000000000E+00 0. -1.
         -5    1    5    5    0  502 -0.53784770666E+02 -0.61997036285E+02  0.24592792460E+03  0.25930497134E+03  0.47000000000E+01 0.  1.
         13    1    6    6    0    0 -0.88941727510E+01  0.21369587997E+02  0.15116276327E+02  0.27645386778E+02  0.00000000000E+00 0. -1.
        -14    1    6    6    0    0 -0.79114428557E+02  0.52535589272E+02  0.37747779069E+03  0.38924100941E+03  0.00000000000E+00 0.  1.
</event>
<event>
12    1  0.8331241E-002  0.1814150E+03  0.7818608E-02  0.1166539E+00
         21   -1    0    0  501  502  0.00000000000E+00  0.00000000000E+00  0.87467530659E+02  0.87467530659E+02  0.00000000000E+00 0. -1.
         21   -1    0    0  502  503 -0.00000000000E+00 -0.00000000000E+00 -0.64034081032E+03  0.64034081032E+03  0.00000000000E+00 0. -1.
         -6    2    1    2    0  503 -0.26463748078E+02 -0.52192048245E+02 -0.51068850257E+03  0.54195400881E+03  0.17171796977E+03 0.  0.
        -24    2    3    3    0    0  0.29022724054E+02  0.19117860880E+02 -0.29927687732E+03  0.31199571471E+03  0.81036199243E+02 0.  0.
          6    2    1    2  501    0  0.26463748078E+02  0.52192048245E+02 -0.42184777089E+02  0.18585433217E+03  0.17128320848E+03 0.  0.
         24    2    5    5    0    0 -0.99785872896E+01  0.94885846040E+02 -0.36380952055E+02  0.12922767271E+03  0.79204303780E+02 0.  0.
          5    1    5    5  501    0  0.36442335368E+02 -0.42693797795E+02 -0.58038250331E+01  0.56626659465E+02  0.47000000000E+01 0. -1.
        -11    1    6    6    0    0  0.16131338340E+02  0.21482600954E+02 -0.43358992723E+02  0.51007102156E+02  0.00000000000E+00 0.  1.
         12    1    6    6    0    0 -0.26109925629E+02  0.73403245086E+02  0.69780406674E+01  0.78220570550E+02  0.00000000000E+00 0. -1.
         -5    1    3    3    0  503 -0.55486472133E+02 -0.71309909125E+02 -0.21141162526E+03  0.22995829409E+03  0.47000000000E+01 0.  1.
         11    1    4    4    0    0 -0.12285773840E+02  0.20559041451E+02 -0.23059506045E+03  0.23183549410E+03  0.00000000000E+00 0. -1.
        -12    1    4    4    0    0  0.41308497894E+02 -0.14411805713E+01 -0.68681816871E+02  0.80160220611E+02  0.00000000000E+00 0.  1.
</event>
<event>
12    1  0.8331241E-002  0.2010944E+03  0.7818608E-02  0.1148871E+00
         21   -1    0    0  501  502  0.00000000000E+00  0.00000000000E+00  0.32475123743E+03  0.32475123743E+03  0.00000000000E+00 0.  1.
         21   -1    0    0  502  503 -0.00000000000E+00 -0.00000000000E+00 -0.22771506683E+03  0.22771506683E+03  0.00000000000E+00 0.  1.
         -6    2    1    2    0  503 -0.73064202007E+01 -0.10418317748E+03 -0.13758926364E+03  0.24345488224E+03  0.17155744219E+03 0.  0.
        -24    2    3    3    0    0 -0.61040624013E+02 -0.77628721609E+02 -0.49585534722E+02  0.13687509950E+03  0.80770609820E+02 0.  0.
          6    2    1    2  501    0  0.73064202007E+01  0.10418317748E+03  0.23462543424E+03  0.30901142202E+03  0.17184715971E+03 0.  0.
         24    2    5    5    0    0  0.36107235991E+02  0.96413492284E+02  0.84937453159E+02  0.15630766739E+03  0.81353684311E+02 0.  0.
          5    1    5    5  501    0 -0.28800815791E+02  0.77696851984E+01  0.14968798108E+03  0.15270375463E+03  0.47000000000E+01 0. -1.
        -13    1    6    6    0    0  0.36386600017E+02  0.35105903892E+02  0.80212022221E+02  0.94817602046E+02  0.00000000000E+00 0.  1.
         14    1    6    6    0    0 -0.27936402522E+00  0.61307588392E+02  0.47254309376E+01  0.61490065346E+02  0.00000000000E+00 0. -1.
         -5    1    3    3    0  503  0.53734203812E+02 -0.26554455873E+02 -0.88003728915E+02  0.10657978274E+03  0.47000000000E+01 0.  1.
         11    1    4    4    0    0 -0.66203211283E+02 -0.21500502433E+02 -0.38098610948E+02  0.79351376454E+02  0.00000000000E+00 0. -1.
        -12    1    4    4    0    0  0.51625872701E+01 -0.56128219176E+02 -0.11486923774E+02  0.57523723045E+02  0.00000000000E+00 0.  1.
</event>
<event>
12    1  0.8331241E-002  0.1845772E+03  0.7818608E-02  0.1163988E+00
         21   -1    0    0  503  502  0.00000000000E+00  0.00000000000E+00  0.73836024287E+03  0.73836024287E+03  0.00000000000E+00 0. -1.
         21   -1    0    0  501  503 -0.00000000000E+00 -0.00000000000E+00 -0.45582199620E+02  0.45582199620E+02  0.00000000000E+00 0. -1.
          6    2    1    2  501    0  0.50976580695E+02  0.44527775103E+02  0.35129836901E+03  0.39577096167E+03  0.16924176642E+03 0.  0.
         24    2    3    3    0    0  0.33545057547E+02 -0.39543270849E+02  0.21740471682E+03  0.23664397193E+03  0.77759998727E+02 0.  0.
         -6    2    1    2    0  502 -0.50976580695E+02 -0.44527775103E+02  0.34147967424E+03  0.38817148082E+03  0.17171894498E+03 0.  0.
        -24    2    5    5    0    0 -0.38560584535E+02  0.36179883709E+02  0.13349926585E+03  0.16468585840E+03  0.80644127565E+02 0.  0.
          5    1    3    3  501    0  0.17431523147E+02  0.84071045952E+02  0.13389365219E+03  0.15912698974E+03  0.47000000000E+01 0. -1.
        -13    1    4    4    0    0 -0.81419436881E+01 -0.11390215389E+02  0.15877933730E+03  0.15939543973E+03  0.00000000000E+00 0.  1.
         14    1    4    4    0    0  0.41687001236E+02 -0.28153055460E+02  0.58625379519E+02  0.77248532203E+02  0.00000000000E+00 0. -1.
         -5    1    5    5    0  502 -0.12415996160E+02 -0.80707658811E+02  0.20798040839E+03  0.22348562242E+03  0.47000000000E+01 0.  1.
         11    1    6    6    0    0 -0.25640500850E+02  0.17095915774E+02  0.16755916414E+01  0.30862813017E+02  0.00000000000E+00 0. -1.
        -12    1    6    6    0    0 -0.12920083685E+02  0.19083967935E+02  0.13182367421E+03  0.13382304539E+03  0.00000000000E+00 0.  1.
</event>
<event>
12    1  0.8331241E-002  0.1738838E+03  0.7818608E-02  0.1174408E+00
         21   -1    0    0  501  502  0.00000000000E+00  0.00000000000E+00  0.41248864971E+02  0.41248864971E+02  0.00000000000E+00 0.  1.
         21   -1    0    0  502  503 -0.00000000000E+00 -0.00000000000E+00 -0.10916189014E+04  0.10916189014E+04  0.00000000000E+00 0.  1.
         -6    2    1    2    0  503  0.16636692268E+02 -0.13724040953E+02 -0.85610828183E+03  0.87358856620E+03  0.17254119491E+03 0.  0.
        -24    2    3    3    0    0  0.77638765933E+02  0.17080479742E+01 -0.59539215201E+03  0.60534540653E+03  0.76945117622E+02 0.  0.
          6    2    1    2  501    0 -0.16636692268E+02  0.13724040953E+02 -0.19426175463E+03  0.25927920021E+03  0.17036122070E+03 0.  0.
         24    2    5    5    0    0  0.46976224219E+01  0.32488693252E+02 -0.21034163997E+03  0.22629560017E+03  0.76736629483E+02 0.  0.
          5    1    5    5  501    0 -0.21334314690E+02 -0.18764652299E+02  0.16079885338E+02  0.32983600042E+02  0.47000000000E+01 0. -1.
        -13    1    6    6    0    0 -0.13506804960E+02 -0.27094095487E+01 -0.16700713566E+03  0.16757433587E+03  0.00000000000E+00 0.  1.
         14    1    6    6    0    0  0.18204427382E+02  0.35198102801E+02 -0.43334504307E+02  0.58721264297E+02  0.00000000000E+00 0. -1.
         -5    1    3    3    0  503 -0.61002073665E+02 -0.15432088927E+02 -0.26071612982E+03  0.26824315967E+03  0.47000000000E+01 0.  1.
         11    1    4    4    0    0  0.35270052719E+02 -0.32040514948E+02 -0.17115949202E+03  0.17766863237E+03  0.00000000000E+00 0. -1.
        -12    1    4    4    0    0  0.42368713214E+02  0.33748562922E+02 -0.42423265998E+03  0.42767677416E+03  0.00000000000E+00 0.  1.
</event>
<event>
12    1  0.8331241E-002  0.2011975E+03  0.7818608E-02  0.1148922E+00
         21   -1    0    0  503  502  0.00000000000E+00  0.00000000000E+00  0.20473866454E+03  0.20473866454E+03  0.00000000000E+00 0. -1.
         21   -1    0    0  501  503 -0.00000000000E+00 -0.00000000000E+00 -0.19689085502E+03  0.19689085502E+03  0.00000000000E+00 0.  1.
          6    2    1    2  501    0  0.15892616212E+02  0.10080225242E+03  0.46703978228E+00  0.20029667413E+03  0.17235100869E+03 0.  0.
         24    2    3    3    0    0 -0.10471598225E+02  0.26366624081E+02  0.57453351247E+02  0.10280172932E+03  0.80389394487E+02 0.  0.
         -6    2    1    2    0  502 -0.15892616212E+02 -0.10080225242E+03  0.73807697411E+01  0.20133284543E+03  0.17339772070E+03 0.  0.
        -24    2    5    5    0    0 -0.62197865808E+01 -0.31538632050E+02  0.67879535513E+02  0.10874125078E+03  0.78636233529E+02 0.  0.
          5    1    3    3  501    0  0.26364214437E+02  0.74435628339E+02 -0.56986311465E+02  0.97494944810E+02  0.47000000000E+01 0. -1.
        -13    1    4    4    0    0  0.12922513414E+02 -0.14897271699E+02 -0.85723369481E+01  0.21503604762E+02  0.00000000000E+00 0.  1.
         14    1    4    4    0    0 -0.23394111639E+02  0.41263895781E+02  0.66025688195E+02  0.81298124554E+02  0.00000000000E+00 0. -1.
         -5    1    5    5    0  502 -0.96728296315E+01 -0.69263620370E+02 -0.60498765772E+02  0.92591594650E+02  0.47000000000E+01 0.  1.
         11    1    6    6    0    0  0.19344160256E+02 -0.49872718668E+02  0.43052431945E+02  0.68665832113E+02  0.00000000000E+00 0. -1.
        -12    1    6    6    0    0 -0.25563946837E+02  0.18334086618E+02  0.24827103568E+02  0.40075418670E+02  0.00000000000E+00 0.  1.
</event>
<event>
12    1  0.8331241E-002  0.4121200E+03  0.7818608E-02  0.1039694E+00
         21   -1    0    0  501  502  0.00000000000E+00  0.00000000000E+00  0.36657314252E+03  0.36657314252E+03  0.00000000000E+00 0. -1.
         21   -1    0    0  502  503 -0.00000000000E+00 -0.00000000000E+00 -0.51533033895E+03  0.51533033895E+03  0.00000000000E+00 0. -1.
         -6    2    1    2    0  503  0.70203990016E+02  0.36834013828E+03  0.66307284875E+02  0.41704261669E+03  0.17007301500E+03 0.  0.
        -24    2    3    3    0    0  0.30592483416E+02  0.35335317197E+03  0.32282687313E+02  0.36251332316E+03  0.67671067550E+02 0.  0.
          6    2    1    2  501    0 -0.70203990016E+02 -0.36834013828E+03 -0.21506448131E+03  0.46486086477E+03  0.17099659293E+03 0.  0.
         24    2    5    5    0    0 -0.73911280607E+02 -0.31444064357E+03 -0.23476077636E+03  0.40716395348E+03  0.79586852994E+02 0.  0.
          5    1    5    5  501    0  0.37072905912E+01 -0.53899494713E+02  0.19696295051E+02  0.57696911291E+02  0.47000000000E+01 0. -1.
        -11    1    6    6    0    0  0.15350136214E+02 -0.82220027719E+02 -0.52371152133E+02  0.98683824488E+02  0.00000000000E+00 0.  1.
         12    1    6    6    0    0 -0.89261416821E+02 -0.23222061585E+03 -0.18238962422E+03  0.30848012899E+03  0.00000000000E+00 0. -1.
         -5    1    3    3    0  503  0.39611506600E+02  0.14986966307E+02  0.34024597562E+02  0.54529293535E+02  0.47000000000E+01 0.  1.
         11    1    4    4    0    0  0.20413216390E+02  0.23815754706E+03  0.53484304701E+02  0.24494139600E+03  0.00000000000E+00 0. -1.
        -12    1    4    4    0    0  0.10179267027E+02  0.11519562491E+03 -0.21201617388E+02  0.11757192716E+03  0.00000000000E+00 0.  1.
</event>
<event>
12    1  0.8331241E-002  0.2150033E+03  0.7818608E-02  0.1137739E+00
         21   -1    0    0  503  502  0.00000000000E+00  0.00000000000E+00  0.43682124656E+03  0.43682124656E+03  0.00000000000E+00 0.  1.
         21   -1    0    0  501  503 -0.00000000000E+00 -0.00000000000E+00 -0.13991044787E+03  0.13991044787E+03  0.00000000000E+00 0.  1.
          6    2    1    2  501    0 -0.12318921026E+03 -0.41164623588E+02  0.56188666128E+01  0.21468556083E+03  0.17084557532E+03 0.  0.
         24    2    3    3    0    0 -0.10927620400E+03 -0.66381938450E+02  0.53057720098E+02  0.15898978422E+03  0.78197054367E+02 0.  0.
         -6    2    1    2    0  502  0.12318921026E+03  0.41164623588E+02  0.29129193207E+03  0.36204613360E+03  0.17133681859E+03 0.  0.
        -24    2    5    5    0    0  0.74068034267E+02  0.85668592396E+02  0.13978826182E+03  0.19661051086E+03  0.79307965652E+02 0.  0.
          5    1    3    3  501    0 -0.13913006263E+02  0.25217314862E+02 -0.47438853485E+02  0.55695776610E+02  0.47000000000E+01 0. -1.
        -11    1    4    4    0    0 -0.18541967253E+01  0.95390343042E+01 -0.92682578739E+01  0.13428768557E+02  0.00000000000E+00 0.  1.
         12    1    4    4    0    0 -0.10742200728E+03 -0.75920972754E+02  0.62325977972E+02  0.14556101566E+03  0.00000000000E+00 0. -1.
         -5    1    5    5    0  502  0.49121175997E+02 -0.44503968808E+02  0.15150367025E+03  0.16543562274E+03  0.47000000000E+01 0.  1.
         13    1    6    6    0    0 -0.71603347345E+01  0.45767699710E+02  0.34416396011E+02  0.57709973529E+02  0.00000000000E+00 0. -1.
        -14    1    6    6    0    0  0.81228369002E+02  0.39900892686E+02  0.10537186581E+03  0.13890053734E+03  0.00000000000E+00 0.  1.
</event>
<event>
12    1  0.8331241E-002  0.1722882E+03  0.7818608E-02  0.1175633E+00
         21   -1    0    0  503  502  0.00000000000E+00  0.00000000000E+00  0.11436564017E+03  0.11436564017E+03  0.00000000000E+00 0.  1.
         21   -1    0    0  501  503 -0.00000000000E+00 -0.00000000000E+00 -0.27697785031E+03  0.27697785031E+03  0.00000000000E+00 0.  1.
          6    2    1    2  501    0 -0.18491208568E+02 -0.66227029736E+01 -0.31121406923E+02  0.17507648599E+03  0.17116497594E+03 0.  0.
         24    2    3    3    0    0 -0.58898863150E+02  0.12387945237E+02 -0.64452730400E+02  0.11915466181E+03  0.80132026732E+02 0.  0.
         -6    2    1    2    0  502  0.18491208568E+02  0.66227029736E+01 -0.13149080322E+03  0.21626700450E+03  0.17057491291E+03 0.  0.
        -24    2    5    5    0    0 -0.20739771004E+02 -0.24037298866E+02 -0.25462001592E+02  0.99035173299E+02  0.90286888235E+02 0.  0.
          5    1    3    3  501    0  0.40407654583E+02 -0.19010648211E+02  0.33331323477E+02  0.55921824174E+02  0.47000000000E+01 0. -1.
        -11    1    4    4    0    0 -0.18452454555E+02 -0.17145421244E+02  0.11887895881E+02  0.27852838584E+02  0.00000000000E+00 0.  1.
         12    1    4    4    0    0 -0.40446408596E+02  0.29533366481E+02 -0.76340626281E+02  0.91301823229E+02  0.00000000000E+00 0. -1.
         -5    1    5    5    0  502  0.39230979571E+02  0.30660001840E+02 -0.10602880163E+03  0.11723183120E+03  0.47000000000E+01 0.  1.
         13    1    6    6    0    0 -0.10331076665E+02  0.34611013854E+02 -0.10625451734E+02  0.37650413672E+02  0.00000000000E+00 0. -1.
        -14    1    6    6    0    0 -0.10408694338E+02 -0.58648312720E+02 -0.14836549858E+02  0.61384759627E+02  0.00000000000E+00 0.  1.
</event>
<event>
12    1  0.8331241E-002  0.1938706E+03  0.7818608E-02  0.1155046E+00
         21   -1    0    0  503  502  0.00000000000E+00  0.00000000000E+00  0.17880983708E+03  0.17880983708E+03  0.00000000000E+00 0. -1.
         21   -1    0    0  501  503 -0.00000000000E+00 -0.00000000000E+00 -0.21024206920E+03  0.21024206920E+03  0.00000000000E+00 0.  1.
          6    2    1    2  501    0 -0.79182477200E+02  0.41139229031E+02 -0.98795464761E+01  0.19412212899E+03  0.17211477178E+03 0.  0.
         24    2    3    3    0    0 -0.66736041882E+02  0.53811600383E+02 -0.65073992471E+02  0.13594980210E+03  0.83056225368E+02 0.  0.
         -6    2    1    2    0  502  0.79182477200E+02 -0.41139229031E+02 -0.21552685646E+02  0.19492977729E+03  0.17196162059E+03 0.  0.
        -24    2    5    5    0    0  0.13207035098E+02  0.10922485721E+02 -0.61850122019E+02  0.10160692649E+03  0.78770574752E+02 0.  0.
          5    1    3    3  501    0 -0.12446435318E+02 -0.12672371351E+02  0.55194445995E+02  0.58172326896E+02  0.47000000000E+01 0. -1.
        -11    1    4    4    0    0 -0.44305799493E+02 -0.11100359068E+02 -0.45652520374E+02  0.64578436469E+02  0.00000000000E+00 0.  1.
         12    1    4    4    0    0 -0.22430242389E+02  0.64911959451E+02 -0.19421472097E+02  0.71371365629E+02  0.00000000000E+00 0. -1.
         -5    1    5    5    0  502  0.65975442102E+02 -0.52061714752E+02  0.40297436373E+02  0.93322850801E+02  0.47000000000E+01 0.  1.
         13    1    6    6    0    0  0.12806579565E+01 -0.33415021628E+02 -0.17373894558E+02  0.37683629965E+02  0.00000000000E+00 0. -1.
        -14    1    6    6    0    0  0.11926377142E+02  0.44337507349E+02 -0.44476227461E+02  0.63923296526E+02  0.00000000000E+00 0.  1.
</event>
<event>
12    1  0.8331241E-002  0.1924475E+03  0.7818608E-02  0.1156517E+00
         21   -1    0    0  503  502  0.00000000000E+00  0.00000000000E+00  0.10996354460E+03  0.10996354460E+03  0.00000000000E+00 0. -1.
         21   -1    0    0  501  503 -0.00000000000E+00 -0.00000000000E+00 -0.37824264463E+03  0.37824264463E+03  0.00000000000E+00 0. -1.
          6    2    1    2  501    0  0.69695834359E+02 -0.51932097458E+02 -0.51827759553E+02  0.19930419885E+03  0.17170205283E+03 0.  0.
         24    2    3    3    0    0  0.80804821443E+02 -0.92256942814E+02 -0.35340492200E+02  0.15409996529E+03  0.86354422284E+02 0.  0.
         -6    2    1    2    0  502 -0.69695834359E+02  0.51932097458E+02 -0.21645134048E+03  0.28890199038E+03  0.17046619952E+03 0.  0.
        -24    2    5    5    0    0 -0.78499181621E+02  0.61523227277E+02 -0.78266918620E+02  0.15002609925E+03  0.80217771693E+02 0.  0.
          5    1    3    3  501    0 -0.11108987085E+02  0.40324845356E+02 -0.16487267353E+02  0.45204233561E+02  0.47000000000E+01 0. -1.
        -13    1    4    4    0    0  0.13550511661E+02 -0.25223975827E+02 -0.50392105192E+02  0.57958861173E+02  0.00000000000E+00 0.  1.
         14    1    4    4    0    0  0.67254309783E+02 -0.67032966987E+02  0.15051612992E+02  0.96141104118E+02  0.00000000000E+00 0. -1.
         -5    1    5    5    0  502  0.88033472620E+01 -0.95911298191E+01 -0.13818442186E+03  0.13887589113E+03  0.47000000000E+01 0.  1.
         13    1    6    6    0    0 -0.14258154761E+02  0.46751943165E+02 -0.15811519591E+01  0.48903366023E+02  0.00000000000E+00 0. -1.
        -14    1    6    6    0    0 -0.64241026860E+02  0.14771284112E+02 -0.76685766661E+02  0.10112273322E+03  0.00000000000E+00 0.  1.
</event>
<event>
12    1  0.8331241E-002  0.2074114E+03  0.7818608E-02  0.1143669E+00
         21   -1    0    0  503  502  0.00000000000E+00  0.00000000000E+00  0.10677623669E+04  0.10677623669E+04  0.00000000000E+00 0. -1.
         21   -1    0    0  501  503 -0.00000000000E+00 -0.00000000000E+00 -0.58883514896E+02  0.58883514896E+02  0.00000000000E+00 0.  1.
          6    2    1    2  501    0  0.95514240133E+01  0.12330030303E+03  0.18743177678E+03  0.27941817307E+03  0.16628183926E+03 0.  0.
         24    2    3    3    0    0 -0.90868540747E+01  0.19345273392E+02  0.25646126335E+02  0.86154828674E+02  0.79423675238E+02 0.  0.
         -6    2    1    2    0  502 -0.95514240133E+01 -0.12330030303E+03  0.82144707524E+03  0.84722770874E+03  0.16650915475E+03 0.  0.
        -24    2    5    5    0    0 -0.16893846530E+02 -0.14593290433E+03  0.78994948806E+03  0.80747429621E+03  0.80079527564E+02 0.  0.
          5    1    3    3  501    0  0.18638278088E+02  0.10395502964E+03  0.16178565044E+03  0.19326334439E+03  0.47000000000E+01 0. -1.
        -11    1    4    4    0    0 -0.24313128016E+02  0.44628856138E+02  0.24988960224E+02  0.56633127471E+02  0.00000000000E+00 0.  1.
         12    1    4    4    0    0  0.15226273941E+02 -0.25283582746E+02  0.65716611087E+00  0.29521701203E+02  0.00000000000E+00 0. -1.
         -5    1    5    5    0  502  0.73424225171E+01  0.22632601301E+02  0.31497587185E+02  0.39753412539E+02  0.47000000000E+01 0.  1.
         13    1    6    6    0    0  0.29250535876E+02 -0.73110214863E+02  0.44509393408E+03  0.45200587111E+03  0.00000000000E+00 0. -1.
        -14    1    6    6    0    0 -0.46144382406E+02 -0.72822689466E+02  0.34485555398E+03  0.35546842509E+03  0.00000000000E+00 0.  1.
</event>
<event>
12    1  0.8331241E-002  0.2072359E+03  0.7818608E-02  0.1144859E+00
         21   -1    0    0  501  502  0.00000000000E+00  0.00000000000E+00  0.16132638644E+04  0.16132638644E+04  0.00000000000E+00 0.  1.
         21   -1    0    0  502  503 -0.00000000000E+00 -0.00000000000E+00 -0.26370521297E+02  0.26370521297E+02  0.00000000000E+00 0.  1.
         -6    2    1    2    0  503 -0.72623770557E+02 -0.90006952713E+02  0.69921328113E+03  0.72927767848E+03  0.17196295018E+03 0.  0.
        -24    2    3    3    0    0 -0.42778093477E+02 -0.12308350136E+03  0.61799479778E+03  0.63652340877E+03  0.79151539776E+02 0.  0.
          6    2    1    2  501    0  0.72623770557E+02  0.90006952713E+02  0.88768006194E+03  0.91035670719E+03  0.16552334689E+03 0.  0.
         24    2    5    5    0    0  0.13834643367E+02  0.61179713210E+02  0.76047245143E+03  0.76720979878E+03  0.79738142073E+02 0.  0.
          5    1    5    5  501    0  0.58789127191E+02  0.28827239503E+02  0.12720761052E+03  0.14314690841E+03  0.47000000000E+01 0. -1.
        -11    1    6    6    0    0  0.38316795589E+01  0.11289334023E+02  0.56799718016E+03  0.56812228217E+03  0.00000000000E+00 0.  1.
         12    1    6    6    0    0  0.10002963808E+02  0.49890379186E+02  0.19247527127E+03  0.19908751661E+03  0.00000000000E+00 0. -1.
         -5    1    3    3    0  503 -0.29845677080E+02  0.33076548645E+02  0.81218483358E+02  0.92754269711E+02  0.47000000000E+01 0.  1.
         11    1    4    4    0    0  0.20450548051E+02 -0.18117323220E+02  0.16502869258E+03  0.16727501814E+03  0.00000000000E+00 0. -1.
        -12    1    4    4    0    0 -0.63228641529E+02 -0.10496617814E+03  0.45296610519E+03  0.46924839064E+03  0.00000000000E+00 0.  1.
</event>
<event>
12    1  0.8331241E-002  0.1857428E+03  0.7818608E-02  0.1162414E+00
         21   -1    0    0  503  502  0.00000000000E+00  0.00000000000E+00  0.16582129207E+03  0.16582129207E+03  0.00000000000E+00 0.  1.
         21   -1    0    0  501  503 -0.00000000000E+00 -0.00000000000E+00 -0.20979784510E+03  0.20979784510E+03  0.00000000000E+00 0.  1.
          6    2    1    2  501    0 -0.22339146813E+02  0.68064274476E+02 -0.40391358528E+02  0.19008377033E+03  0.17137267856E+03 0.  0.
         24    2    3    3    0    0  0.52178245981E+02  0.53367553667E+02 -0.24826428803E+02  0.11241014244E+03  0.80305811864E+02 0.  0.
         -6    2    1    2    0  502  0.22339146813E+02 -0.68064274476E+02 -0.35851944988E+01  0.18553536684E+03  0.17111030299E+03 0.  0.
        -24    2    5    5    0    0  0.37072393888E+02  0.17823051288E+02  0.24891191412E+02  0.93738330666E+02  0.80469122527E+02 0.  0.
          5    1    3    3  501    0 -0.74517392794E+02  0.14696720809E+02 -0.15564929724E+02  0.77673627884E+02  0.47000000000E+01 0. -1.
        -13    1    4    4    0    0 -0.12489920571E+02  0.42199298075E+02 -0.10002881976E+02  0.45131325283E+02  0.00000000000E+00 0.  1.
         14    1    4    4    0    0  0.64668166552E+02  0.11168255592E+02 -0.14823546827E+02  0.67278817162E+02  0.00000000000E+00 0. -1.
         -5    1    5    5    0  502 -0.14733247075E+02 -0.85887325764E+02 -0.28476385911E+02  0.91797036177E+02  0.47000000000E+01 0.  1.
         11    1    6    6    0    0 -0.67930016637E+01 -0.41242562414E+01  0.41268644053E+02  0.42026840746E+02  0.00000000000E+00 0. -1.
        -12    1    6    6    0    0  0.43865395552E+02  0.21947307529E+02 -0.16377452641E+02  0.51711489919E+02  0.00000000000E+00 0.  1.
</event>
<event>
12    1  0.8331241E-002  0.2000686E+03  0.7818608E-02  0.1150585E+00
         21   -1    0    0  503  502  0.00000000000E+00  0.00000000000E+00  0.52879728653E+02  0.52879728653E+02  0.00000000000E+00 0. -1.
         21   -1    0    0  501  503 -0.00000000000E+00 -0.00000000000E+00 -0.83289631643E+03  0.83289631643E+03  0.00000000000E+00 0.  1.
          6    2    1    2  501    0  0.40243199479E+02 -0.92538898063E+02 -0.54082393314E+03  0.57664370501E+03  0.17275552991E+03 0.  0.
         24    2    3    3    0    0  0.38733395277E+02 -0.85768597916E+02 -0.19577736261E+03  0.23149541469E+03  0.80030138176E+02 0.  0.
         -6    2    1    2    0  502 -0.40243199479E+02  0.92538898063E+02 -0.23919265464E+03  0.30913234007E+03  0.16782942200E+03 0.  0.
        -24    2    5    5    0    0 -0.54475685193E+02  0.35956899603E+01 -0.80198573573E+02  0.12633555200E+03  0.80921759939E+02 0.  0.
          5    1    3    3  501    0  0.15098042027E+01 -0.67703001466E+01 -0.34504657054E+03  0.34514829032E+03  0.47000000000E+01 0. -1.
        -11    1    4    4    0    0  0.41938186656E+02 -0.92063186073E+02 -0.19937176640E+03  0.22356999568E+03  0.00000000000E+00 0.  1.
         12    1    4    4    0    0 -0.32047913789E+01  0.62945881564E+01  0.35944037981E+01  0.79254190113E+01  0.00000000000E+00 0. -1.
         -5    1    5    5    0  502  0.14232485714E+02  0.88943208103E+02 -0.15899408106E+03  0.18279678808E+03  0.47000000000E+01 0.  1.
         13    1    6    6    0    0 -0.30754210913E+02  0.34157330337E+02 -0.11320345551E+02  0.47335979213E+02  0.00000000000E+00 0. -1.
        -14    1    6    6    0    0 -0.23721474280E+02 -0.30561640377E+02 -0.68878228022E+02  0.78999572784E+02  0.00000000000E+00 0.  1.
</event>
<event>
12    1  0.8331241E-002  0.1817250E+03  0.7818608E-02  0.1167040E+00
         21   -1    0    0  501  502  0.00000000000E+00  0.00000000000E+00  0.90353006258E+02  0.90353006258E+02  0.00000000000E+00 0.  1.
         21   -1    0    0  502  503 -0.00000000000E+00 -0.00000000000E+00 -0.15566529332E+04  0.15566529332E+04  0.00000000000E+00 0.  1.
         -6    2    1    2    0  503  0.10200551369E+02  0.44010726163E+02 -0.14540089120E+04  0.14648657936E+04  0.17218850652E+03 0.  0.
        -24    2    3    3    0    0  0.43535246420E+02  0.42471656426E+02 -0.13802186514E+04  0.13837445067E+04  0.77757152747E+02 0.  0.
          6    2    1    2  501    0 -0.10200551369E+02 -0.44010726163E+02 -0.12291014971E+02  0.18214014590E+03  0.17601979557E+03 0.  0.
         24    2    5    5    0    0 -0.18103975999E+02 -0.10881468224E+02 -0.74410748972E+02  0.11114040502E+03  0.79806451919E+02 0.  0.
          5    1    5    5  501    0  0.79034246298E+01 -0.33129257939E+02  0.62119734002E+02  0.70999740879E+02  0.47000000000E+01 0. -1.
        -13    1    6    6    0    0 -0.21094899688E+02 -0.30477490082E+02 -0.31790232398E+01  0.37201859944E+02  0.00000000000E+00 0.  1.
         14    1    6    6    0    0  0.29909236884E+01  0.19596021858E+02 -0.71231725733E+02  0.73938545077E+02  0.00000000000E+00 0. -1.
         -5    1    3    3    0  503 -0.33334695051E+02  0.15390697369E+01 -0.73790260540E+02  0.81121286851E+02  0.47000000000E+01 0.  1.
         11    1    4    4    0    0 -0.66870383773E+00  0.43484080072E+02 -0.36803355689E+03  0.37059413295E+03  0.00000000000E+00 0. -1.
        -12    1    4    4    0    0  0.44203950258E+02 -0.10124236464E+01 -0.10121850945E+04  0.10131503737E+04  0.00000000000E+00 0.  1.
</event>
<event>
12    1  0.8331241E-002  0.2761520E+03  0.7818608E-02  0.1097839E+00
         21   -1    0    0  503  502  0.00000000000E+00  0.00000000000E+00  0.87071686129E+03  0.87071686129E+03  0.00000000000E+00 0.  1.
         21   -1    0    0  501  503 -0.00000000000E+00 -0.00000000000E+00 -0.14132378731E+03  0.14132378731E+03  0.00000000000E+00 0.  1.
          6    2    1    2  501    0  0.21469113767E+03 -0.18696858734E+02  0.52370102586E+02  0.28086349079E+03  0.17233634466E+03 0.  0.
         24    2    3    3    0    0  0.20215404401E+03 -0.66271325516E+02  0.42919899541E+02  0.23054545282E+03  0.77787800745E+02 0.  0.
         -6    2    1    2    0  502 -0.21469113767E+03  0.18696858734E+02  0.67702297140E+03  0.73117715781E+03  0.17267911045E+03 0.  0.
        -24    2    5    5    0    0 -0.85552619151E+02  0.62772725401E+02  0.25332423320E+03  0.28602308366E+03  0.79852185693E+02 0.  0.
          5    1    3    3  501    0  0.12537093657E+02  0.47574466782E+02  0.94502030450E+01  0.50318037964E+02  0.47000000000E+01 0. -1.
        -11    1    4    4    0    0  0.76535968792E+02 -0.57288827836E+02  0.42457103805E+02  0.10460578367E+03  0.00000000000E+00 0.  1.
         12    1    4    4    0    0  0.12561807522E+03 -0.89824976803E+01  0.46279573666E+00  0.12593966915E+03  0.00000000000E+00 0. -1.
         -5    1    5    5    0  502 -0.12913851852E+03 -0.44075866666E+02  0.42369873820E+03  0.44515407416E+03  0.47000000000E+01 0.  1.
         11    1    6    6    0    0 -0.19901343526E+02 -0.16030285232E+02  0.86452157233E+02  0.90149925175E+02  0.00000000000E+00 0. -1.
        -12    1    6    6    0    0 -0.65651275625E+02  0.78803010632E+02  0.16687207597E+03  0.19587315848E+03  0.00000000000E+00 0.  1.
</event>
<event>
12    1  0.8331241E-002  0.2390869E+03  0.7818608E-02  0.1120592E+00
         21   -1    0    0  501  502  0.00000000000E+00  0.00000000000E+00  0.23319769862E+03  0.23319769862E+03  0.00000000000E+00 0.  1.
         21   -1    0    0  502  503 -0.00000000000E+00 -0.00000000000E+00 -0.34099913044E+03  0.34099913044E+03  0.00000000000E+00 0.  1.
         -6    2    1    2    0  503  0.15243056966E+03 -0.55214932988E+02 -0.20695453182E+03  0.31536504743E+03  0.17418716230E+03 0.  0.
        -24    2    3    3    0    0  0.29472392629E+02 -0.42566857506E+02 -0.31418317803E+02  0.10062394857E+03  0.80358627701E+02 0.  0.
          6    2    1    2  501    0 -0.15243056966E+03  0.55214932988E+02  0.99153100000E+02  0.25883178162E+03  0.17572360839E+03 0.  0.
         24    2    5    5    0    0 -0.24042685877E+02  0.68699554487E+02  0.64272351658E+02  0.12502580147E+03  0.78758087297E+02 0.  0.
          5    1    5    5  501    0 -0.12838788378E+03 -0.13484621499E+02  0.34880748342E+02  0.13380598015E+03  0.47000000000E+01 0. -1.
        -13    1    6    6    0    0 -0.23113044069E+02  0.80339277815E+02  0.29998332860E+02  0.88817297529E+02  0.00000000000E+00 0.  1.
         14    1    6    6    0    0 -0.92964180787E+00 -0.11639723328E+02  0.34274018798E+02  0.36208503941E+02  0.00000000000E+00 0. -1.
         -5    1    3    3    0  503  0.12295817703E+03 -0.12648075482E+02 -0.17553621402E+03  0.21474109887E+03  0.47000000000E+01 0.  1.
         13    1    4    4    0    0  0.32697612506E+02  0.12758898255E+02  0.32581282097E+01  0.35249663086E+02  0.00000000000E+00 0. -1.
        -14    1    4    4    0    0 -0.32252198764E+01 -0.55325755762E+02 -0.34676446012E+02  0.65374285479E+02  0.00000000000E+00 0.  1.
</event>
<event>
12    1  0.8331241E-002  0.2225843E+03  0.7818608E-02  0.1132216E+00
         21   -1    0    0  503  502  0.00000000000E+00  0.00000000000E+00  0.18295374074E+03  0.18295374074E+03  0.00000000000E+00 0.  1.
         21   -1    0    0  501  503 -0.00000000000E+00 -0.00000000000E+00 -0.40897554764E+03  0.40897554764E+03  0.00000000000E+00 0.  1.
          6    2    1    2  501    0  0.29164410002E+02 -0.13844788890E+03 -0.28626989429E+03  0.36262131630E+03  0.17182952570E+03 0.  0.
         24    2    3    3    0    0  0.44130782793E+02 -0.91351951283E+02 -0.28489226675E+03  0.31296240458E+03  0.80555310397E+02 0.  0.
         -6    2    1    2    0  502 -0.29164410002E+02  0.13844788890E+03  0.60248087398E+02  0.22930797208E+03  0.17009977447E+03 0.  0.
        -24    2    5    5    0    0 -0.65356687702E+02  0.31463122130E+02  0.35635306885E+02  0.11362089307E+03  0.79864933252E+02 0.  0.
          5    1    3    3  501    0 -0.14966372791E+02 -0.47095937620E+02 -0.13776275396E+01  0.49658911712E+02  0.47000000000E+01 0. -1.
        -11    1    4    4    0    0  0.23443928387E+02  0.18962497242E+01 -0.12102977228E+03  0.12329403602E+03  0.00000000000E+00 0.  1.
         12    1    4    4    0    0  0.20686854406E+02 -0.93248201008E+02 -0.16386249447E+03  0.18966836856E+03  0.00000000000E+00 0. -1.
         -5    1    5    5    0  502  0.36192277700E+02  0.10698476677E+03  0.24612780514E+02  0.11568707902E+03  0.47000000000E+01 0.  1.
         13    1    6    6    0    0 -0.38935643172E+02  0.35326931443E+02 -0.16452410772E+02  0.55087731979E+02  0.00000000000E+00 0. -1.
        -14    1    6    6    0    0 -0.26421044530E+02 -0.38638093130E+01  0.52087717656E+02  0.58533161090E+02  0.00000000000E+00 0.  1.
</event>
<event>
12    1  0.8331241E-002  0.2295043E+03  0.7818608E-02  0.1127141E+00
         21   -1    0    0  501  502  0.00000000000E+00  0.00000000000E+00  0.34400147434E+03  0.34400147434E+03  0.00000000000E+00 0.  1.
         21   -1    0    0  502  503 -0.00000000000E+00 -0.00000000000E+00 -0.61299689576E+03  0.61299689576E+03  0.00000000000E+00 0. -1.
         -6    2    1    2    0  503 -0.36583179253E+02 -0.14783371885E+03 -0.54914520516E+03  0.59484352128E+03  0.17054389766E+03 0.  0.
        -24    2    3    3    0    0  0.79640853706E+01 -0.59126087668E+01 -0.20965181276E+03  0.22416318224E+03  0.78720163100E+02 0.  0.
          6    2    1    2  501    0  0.36583179253E+02  0.14783371885E+03  0.28014978374E+03  0.36215484882E+03  0.17169477499E+03 0.  0.
         24    2    5    5    0    0  0.66720356614E+02  0.14610790024E+03  0.27905739480E+03  0.33158507252E+03  0.79224404226E+02 0.  0.
          5    1    5    5  501    0 -0.30137177361E+02  0.17258186129E+01  0.10923889314E+01  0.30569776295E+02  0.47000000000E+01 0. -1.
        -11    1    6    6    0    0  0.15429424775E+02 -0.66501381914E+01  0.16670874216E+02  0.23668745932E+02  0.00000000000E+00 0.  1.
         12    1    6    6    0    0  0.51290931839E+02  0.15275803843E+03  0.26238652059E+03  0.30791632659E+03  0.00000000000E+00 0. -1.
         -5    1    3    3    0  503 -0.44547264624E+02 -0.14192111009E+03 -0.33949339239E+03  0.37068033904E+03  0.47000000000E+01 0.  1.
         11    1    4    4    0    0  0.18803962742E+01  0.24678412348E+02 -0.17804887207E+03  0.17976084327E+03  0.00000000000E+00 0. -1.
        -12    1    4    4    0    0  0.60836890965E+01 -0.30591021115E+02 -0.31602940694E+02  0.44402338974E+02  0.00000000000E+00 0.  1.
</event>
<event>
12    1  0.8331241E-002  0.2375822E+03  0.7818608E-02  0.1121462E+00
         21   -1    0    0  503  502  0.00000000000E+00  0.00000000000E+00  0.57227178537E+02  0.57227178537E+02  0.00000000000E+00 0.  1.
         21   -1    0    0  501  503 -0.00000000000E+00 -0.00000000000E+00 -0.10007333164E+04  0.10007333164E+04  0.00000000000E+00 0.  1.
          6    2    1    2  501    0 -0.37121946268E+02 -0.15977530848E+03 -0.53745441391E+03  0.58751038913E+03  0.17147892645E+03 0.  0.
         24    2    3    3    0    0  0.30700716921E+01 -0.17619570596E+03 -0.42314504795E+03  0.46514311856E+03  0.79069823604E+02 0.  0.
         -6    2    1    2    0  502  0.37121946268E+02  0.15977530848E+03 -0.40605172397E+03  0.47045010582E+03  0.17186946044E+03 0.  0.
        -24    2    5    5    0    0  0.34251657591E+02  0.27627204939E+02 -0.24718334918E+03  0.26373143145E+03  0.80735502237E+02 0.  0.
          5    1    3    3  501    0 -0.40192017960E+02  0.16420397480E+02 -0.11430936596E+03  0.12236727057E+03  0.47000000000E+01 0. -1.
        -11    1    4    4    0    0  0.18645318347E+02 -0.97092404540E+02 -0.31566783434E+03  0.33078809614E+03  0.00000000000E+00 0.  1.
         12    1    4    4    0    0 -0.15575246655E+02 -0.79103301416E+02 -0.10747721361E+03  0.13435502242E+03  0.00000000000E+00 0. -1.
         -5    1    5    5    0  502  0.28702886774E+01  0.13214810354E+03 -0.15886837480E+03  0.20671867438E+03  0.47000000000E+01 0.  1.
         11    1    6    6    0    0  0.41740625834E+02  0.31578503345E+02 -0.24951766604E+03  0.25494812685E+03  0.00000000000E+00 0. -1.
        -12    1    6    6    0    0 -0.74889682436E+01 -0.39512984064E+01  0.23343168602E+01  0.87833045976E+01  0.00000000000E+00 0.  1.
</event>
<event>
12    1  0.8331241E-002  0.2685145E+03  0.7818608E-02  0.1102304E+00
         21   -1    0    0  503  502  0.00000000000E+00  0.00000000000E+00  0.64801963812E+03  0.64801963812E+03  0.00000000000E+00 0.  1.
         21   -1    0    0  501  503 -0.00000000000E+00 -0.00000000000E+00 -0.12649099851E+03  0.12649099851E+03  0.00000000000E+00 0. -1.
          6    2    1    2  501    0 -0.18746298838E+03 -0.85748491696E+02  0.39677498294E+03  0.47843037586E+03  0.17020593886E+03 0.  0.
         24    2    3    3    0    0 -0.35187004527E+02 -0.31378198362E+02  0.22094191430E+03  0.23950891997E+03  0.79539151584E+02 0.  0.
         -6    2    1    2    0  502  0.18746298838E+03  0.85748491696E+02  0.12475365667E+03  0.29608026076E+03  0.17206065826E+03 0.  0.
        -24    2    5    5    0    0  0.17309232108E+03  0.12046894573E+03  0.83690529812E+02  0.24022064750E+03  0.78918541563E+02 0.  0.
          5    1    3    3  501    0 -0.15227598385E+03 -0.54370293334E+02  0.17583306864E+03  0.23892145589E+03  0.47000000000E+01 0. -1.
        -13    1    4    4    0    0 -0.56272209674E+02 -0.40340082771E+02  0.15711018868E+03  0.17169011401E+03  0.00000000000E+00 0.  1.
         14    1    4    4    0    0  0.21085205147E+02  0.89618844083E+01  0.63831725612E+02  0.67818805967E+02  0.00000000000E+00 0. -1.
         -5    1    5    5    0  502  0.14370667305E+02 -0.34720454035E+02  0.41063126856E+02  0.55859613267E+02  0.47000000000E+01 0.  1.
         13    1    6    6    0    0  0.11520575800E+03  0.32230155156E+02  0.45584130809E+02  0.12801977410E+03  0.00000000000E+00 0. -1.
        -14    1    6    6    0    0  0.57886563074E+02  0.88238790576E+02  0.38106399003E+02  0.11220087340E+03  0.00000000000E+00 0.  1.
</event>
<event>
12    1  0.8331241E-002  0.1963730E+03  0.7818608E-02  0.1153073E+00
         21   -1    0    0  503  502  0.00000000000E+00  0.00000000000E+00  0.12380521246E+04  0.12380521246E+04  0.00000000000E+00 0. -1.
         21   -1    0    0  501  503 -0.00000000000E+00 -0.00000000000E+00 -0.50879051274E+02  0.50879051274E+02  0.00000000000E+00 0. -1.
          6    2    1    2  501    0  0.10028268692E+02 -0.92688313867E+02  0.18948283722E+03  0.27209876318E+03  0.17158759169E+03 0.  0.
         24    2    3    3    0    0  0.60208755312E+02 -0.29352764571E+02  0.14683133607E+03  0.18060715923E+03  0.81072965346E+02 0.  0.
         -6    2    1    2    0  502 -0.10028268692E+02  0.92688313867E+02  0.99769023609E+03  0.10168324127E+04  0.17283130096E+03 0.  0.
        -24    2    5    5    0    0 -0.13818876947E+02 -0.15777956569E+02  0.54873711746E+03  0.55492301328E+03  0.79920093277E+02 0.  0.
          5    1    3    3  501    0 -0.50180486621E+02 -0.63335549295E+02  0.42651501152E+02  0.91491603946E+02  0.47000000000E+01 0. -1.
        -13    1    4    4    0    0  0.11991842392E+02 -0.48879162597E+02  0.93016617448E+02  0.10575948157E+03  0.00000000000E+00 0.  1.
         14    1    4    4    0    0  0.48216912920E+02  0.19526398026E+02  0.53814718622E+02  0.74847677665E+02  0.00000000000E+00 0. -1.
         -5    1    5    5    0  502  0.37906082551E+01  0.10846627044E+03  0.44895311863E+03  0.46190939940E+03  0.47000000000E+01 0.  1.
         11    1    6    6    0    0  0.30609634650E+02  0.29860794218E+01  0.29854156522E+03  0.30012152967E+03  0.00000000000E+00 0. -1.
        -12    1    6    6    0    0 -0.44428511597E+02 -0.18764035991E+02  0.25019555224E+03  0.25480148361E+03  0.00000000000E+00 0.  1.
</event>
<event>
12    1  0.8331241E-002  0.2695528E+03  0.7818608E-02  0.1101537E+00
         21   -1    0    0  501  502  0.00000000000E+00  0.00000000000E+00  0.24638757360E+03  0.24638757360E+03  0.00000000000E+00 0.  1.
         21   -1    0    0  502  503 -0.00000000000E+00 -0.00000000000E+00 -0.30567528131E+03  0.30567528131E+03  0.00000000000E+00 0.  1.
         -6    2    1    2    0  503 -0.20507225570E+03  0.28751674600E+02 -0.81495783141E+02  0.28159679994E+03  0.17255116985E+03 0.  0.
        -24    2    3    3    0    0 -0.14549436140E+03  0.85461596078E+02 -0.61126792586E+02  0.19672910019E+03  0.80582631433E+02 0.  0.
          6    2    1    2  501    0  0.20507225570E+03 -0.28751674600E+02  0.22208075431E+02  0.27046605497E+03  0.17256129180E+03 0.  0.
         24    2    5    5    0    0  0.70596931861E+02 -0.69480382860E+02  0.26529656165E+02  0.12981326809E+03  0.79600323645E+02 0.  0.
          5    1    5    5  501    0  0.13447532384E+03  0.40728708260E+02 -0.43215807341E+01  0.14065278689E+03  0.47000000000E+01 0. -1.
        -13    1    6    6    0    0  0.75972684174E+02 -0.23462148720E+02  0.25388907653E+02  0.83468064521E+02  0.00000000000E+00 0.  1.
         14    1    6    6    0    0 -0.53757523132E+01 -0.46018234140E+02  0.11407485126E+01  0.46345203565E+02  0.00000000000E+00 0. -1.
         -5    1    3    3    0  503 -0.59577894306E+02 -0.56709921478E+02 -0.20368990555E+02  0.84867699746E+02  0.47000000000E+01 0.  1.
         11    1    4    4    0    0 -0.18917711569E+02  0.82554587411E+01 -0.42566864312E+02  0.47307191286E+02  0.00000000000E+00 0. -1.
        -12    1    4    4    0    0 -0.12657664983E+03  0.77206137337E+02 -0.18559928275E+02  0.14942190891E+03  0.00000000000E+00 0.  1.
</event>
<event>
12    1  0.8331241E-002  0.1820828E+03  0.7818608E-02  0.1168448E+00
         21   -1    0    0  501  502  0.00000000000E+00  0.00000000000E+00  0.42114934013E+03  0.42114934013E+03  0.00000000000E+00 0.  1.
         21   -1    0    0  502  503 -0.00000000000E+00 -0.00000000000E+00 -0.77803476815E+02  0.77803476815E+02  0.00000000000E+00 0.  1.
         -6    2    1    2    0  503  0.33796501350E+02 -0.46283139833E+02  0.11263966657E+03  0.20504891585E+03  0.16147145528E+03 0.  0.
        -24    2    3    3    0    0 -0.36046722303E+02 -0.81146224172E+00  0.49120735734E+02  0.10015614237E+03  0.79488247663E+02 0.  0.
          6    2    1    2  501    0 -0.33796501350E+02  0.46283139833E+02  0.23070619674E+03  0.29390390110E+03  0.17282887874E+03 0.  0.
         24    2    5    5    0    0 -0.41130154178E+01  0.42462266903E+02  0.35648534299E+02  0.96507624318E+02  0.78885629537E+02 0.  0.
          5    1    5    5  501    0 -0.29683485932E+02  0.38208729296E+01  0.19505766245E+03  0.19739627678E+03  0.47000000000E+01 0. -1.
        -11    1    6    6    0    0  0.22320581651E+02  0.16233200417E+02  0.49583565122E+02  0.56747291488E+02  0.00000000000E+00 0.  1.
         12    1    6    6    0    0 -0.26433597069E+02  0.26229066486E+02 -0.13935030823E+02  0.39760332830E+02  0.00000000000E+00 0. -1.
         -5    1    3    3    0  503  0.69843223653E+02 -0.45471677591E+02  0.63518930840E+02  0.10489277348E+03  0.47000000000E+01 0.  1.
         13    1    4    4    0    0  0.10769771804E+02  0.28299199807E+02  0.27615462744E+02  0.40981050218E+02  0.00000000000E+00 0. -1.
        -14    1    4    4    0    0 -0.46816494106E+02 -0.29110662049E+02  0.21505272990E+02  0.59175092156E+02  0.00000000000E+00 0.  1.
</event>
<event>
12    1  0.8331241E-002  0.1918201E+03  0.7818608E-02  0.1158075E+00
         21   -1    0    0  501  502  0.00000000000E+00  0.00000000000E+00  0.13476866414E+03  0.13476866414E+03  0.00000000000E+00 0.  1.
         21   -1    0    0  502  503 -0.00000000000E+00 -0.00000000000E+00 -0.43811626607E+03  0.43811626607E+03  0.00000000000E+00 0.  1.
         -6    2    1    2    0  503  0.16693033059E+02  0.85258980248E+02 -0.33292923838E+03  0.38423536423E+03  0.17101808760E+03 0.  0.
        -24    2    3    3    0    0  0.33416814958E+02  0.12372046863E+02 -0.75797347288E+02  0.11640876107E+03  0.80845598105E+02 0.  0.
          6    2    1    2  501    0 -0.16693033059E+02 -0.85258980248E+02  0.29581636450E+02  0.18864956599E+03  0.16482061299E+03 0.  0.
         24    2    5    5    0    0 -0.13032957493E+02 -0.11128336660E+03  0.57816205589E+02  0.14979154580E+03  0.80876126895E+02 0.  0.
          5    1    5    5  501    0 -0.36600755652E+01  0.26024386353E+02 -0.28234569139E+02  0.38858020185E+02  0.47000000000E+01 0. -1.
        -11    1    6    6    0    0 -0.65579890820E+01 -0.98049307983E+02  0.88606165936E+01  0.98667038788E+02  0.00000000000E+00 0.  1.
         12    1    6    6    0    0 -0.64749684113E+01 -0.13234058618E+02  0.48955588995E+02  0.51124507013E+02  0.00000000000E+00 0. -1.
         -5    1    3    3    0  503 -0.16723781899E+02  0.72886933385E+02 -0.25713189109E+03  0.26782660315E+03  0.47000000000E+01 0.  1.
         13    1    4    4    0    0 -0.51486303792E+01  0.29795188338E+02 -0.74281932615E+00  0.30245882751E+02  0.00000000000E+00 0. -1.
        -14    1    4    4    0    0  0.38565445337E+02 -0.17423141475E+02 -0.75054527962E+02  0.86162878321E+02  0.00000000000E+00 0.  1.
</event>
<event>
12    1  0.8331241E-002  0.2105531E+03  0.7818608E-02  0.1142292E+00
         21   -1    0    0  503  502  0.00000000000E+00  0.00000000000E+00  0.24019046825E+03  0.24019046825E+03  0.00000000000E+00 0.  1.
         21   -1    0    0  501  503 -0.00000000000E+00 -0.00000000000E+00 -0.20596602696E+03  0.20596602696E+03  0.00000000000E+00 0. -1.
          6    2    1    2  501    0  0.98444513186E+02 -0.72272831834E+02  0.97255493200E+02  0.23192940990E+03  0.17151657594E+03 0.  0.
         24    2    3    3    0    0  0.45382972919E+01  0.57156302572E+01  0.68588521287E+02  0.10645246827E+03  0.81083155941E+02 0.  0.
         -6    2    1    2    0  502 -0.98444513186E+02  0.72272831834E+02 -0.63031051913E+02  0.21422708531E+03  0.16433394713E+03 0.  0.
        -24    2    5    5    0    0 -0.19214241481E+02  0.86840400956E+02 -0.59539774682E+02  0.13345624254E+03  0.79719141935E+02 0.  0.
          5    1    3    3  501    0  0.93906215894E+02 -0.77988462091E+02  0.28666971913E+02  0.12547694163E+03  0.47000000000E+01 0. -1.
        -11    1    4    4    0    0 -0.26672521569E+02  0.15475804686E+02  0.41303993916E+00  0.30839820680E+02  0.00000000000E+00 0.  1.
         12    1    4    4    0    0  0.31210818861E+02 -0.97601744293E+01  0.68175481348E+02  0.75612647592E+02  0.00000000000E+00 0. -1.
         -5    1    5    5    0  502 -0.79230271704E+02 -0.14567569123E+02 -0.34912772309E+01  0.80770842766E+02  0.47000000000E+01 0.  1.
         13    1    6    6    0    0  0.74568163173E+01  0.47561537086E+01  0.16310645081E+02  0.18554305448E+02  0.00000000000E+00 0. -1.
        -14    1    6    6    0    0 -0.26671057799E+02  0.82084247248E+02 -0.75850419763E+02  0.11490193710E+03  0.00000000000E+00 0.  1.
</event>
<event>
12    1  0.8331241E-002  0.1751690E+03  0.7818608E-02  0.1173062E+00
         21   -1    0    0  501  502  0.00000000000E+00  0.00000000000E+00  0.21045525361E+03  0.21045525361E+03  0.00000000000E+00 0. -1.
         21   -1    0    0  502  503 -0.00000000000E+00 -0.00000000000E+00 -0.47768458756E+03  0.47768458756E+03  0.00000000000E+00 0. -1.
         -6    2    1    2    0  503 -0.25971675634E+02  0.20205177857E+02 -0.42088740945E+03  0.45512701885E+03  0.17003415747E+03 0.  0.
        -24    2    3    3    0    0 -0.52849321838E+02 -0.26061033394E+02 -0.36358374134E+03  0.37658549768E+03  0.78430044076E+02 0.  0.
          6    2    1    2  501    0  0.25971675634E+02 -0.20205177857E+02  0.15365807550E+03  0.23301282232E+03  0.17205055668E+03 0.  0.
         24    2    5    5    0    0 -0.17557229165E+02 -0.61734297838E+02  0.13581154959E+03  0.17008411785E+03  0.79777505089E+02 0.  0.
          5    1    5    5  501    0  0.43528904799E+02  0.41529119981E+02  0.17846525904E+02  0.62928704469E+02  0.47000000000E+01 0. -1.
        -11    1    6    6    0    0 -0.42737986652E+02 -0.50442613962E+02  0.59533975814E+02  0.88967899169E+02  0.00000000000E+00 0.  1.
         12    1    6    6    0    0  0.25180757487E+02 -0.11291683876E+02  0.76277573778E+02  0.81116218685E+02  0.00000000000E+00 0. -1.
         -5    1    3    3    0  503  0.26877646204E+02  0.46266211251E+02 -0.57303668105E+02  0.78541521167E+02  0.47000000000E+01 0.  1.
         13    1    4    4    0    0 -0.58528305144E+02  0.20571066589E+01 -0.14905530549E+03  0.16014767649E+03  0.00000000000E+00 0. -1.
        -14    1    4    4    0    0  0.56789833059E+01 -0.28118140052E+02 -0.21452843586E+03  0.21643782119E+03  0.00000000000E+00 0.  1.
</event>
<event>
12    1  0.8331241E-002  0.1990309E+03  0.7818608E-02  0.1151189E+00
         21   -1    0    0  501  502  0.00000000000E+00  0.00000000000E+00  0.65182554478E+02  0.65182554478E+02  0.00000000000E+00 0.  1.
         21   -1    0    0  502  503 -0.00000000000E+00 -0.00000000000E+00 -0.19618610568E+04  0.19618610568E+04  0.00000000000E+00 0.  1.
         -6    2    1    2    0  503 -0.28818501325E+02 -0.86737093615E+02 -0.17909891057E+04  0.18016915163E+04  0.17348346838E+03 0.  0.
        -24    2    3    3    0    0 -0.11835595516E+02 -0.89172847286E+01 -0.37975797886E+03  0.38820655880E+03  0.79174557178E+02 0.  0.
          6    2    1    2  501    0  0.28818501325E+02  0.86737093615E+02 -0.10568939659E+03  0.22535209494E+03  0.17680353139E+03 0.  0.
         24    2    5    5    0    0  0.27931766080E+01  0.11003884648E+03 -0.25882869249E+02  0.13810840737E+03  0.79294764613E+02 0.  0.
          5    1    5    5  501    0  0.26025324717E+02 -0.23301752865E+02 -0.79806527346E+02  0.87243687567E+02  0.47000000000E+01 0. -1.
        -11    1    6    6    0    0 -0.27986961745E+02  0.83689935807E+02  0.30868385579E+01  0.88299512770E+02  0.00000000000E+00 0.  1.
         12    1    6    6    0    0  0.30780138353E+02  0.26348910673E+02 -0.28969707807E+02  0.49808894598E+02  0.00000000000E+00 0. -1.
         -5    1    3    3    0  503 -0.16982905809E+02 -0.77819808887E+02 -0.14112311268E+04  0.14134849575E+04  0.47000000000E+01 0.  1.
         11    1    4    4    0    0 -0.44060062104E+01  0.86217294540E+01 -0.36211151594E+03  0.36224093790E+03  0.00000000000E+00 0. -1.
        -12    1    4    4    0    0 -0.74295893056E+01 -0.17539014183E+02 -0.17646462916E+02  0.25965620909E+02  0.00000000000E+00 0.  1.
</event>
<event>
12    1  0.8331241E-002  0.2197237E+03  0.7818608E-02  0.1134095E+00
         21   -1    0    0  503  502  0.00000000000E+00  0.00000000000E+00  0.16593004795E+04  0.16593004795E+04  0.00000000000E+00 0. -1.
         21   -1    0    0  501  503 -0.00000000000E+00 -0.00000000000E+00 -0.33857693701E+02  0.33857693701E+02  0.00000000000E+00 0. -1.
          6    2    1    2  501    0 -0.65642846428E+02  0.11800273350E+03  0.49514685431E+03  0.54170923832E+03  0.17333454112E+03 0.  0.
         24    2    3    3    0    0  0.30934857890E+02  0.33643084991E+02  0.20280932500E+03  0.22244896157E+03  0.79139721982E+02 0.  0.
         -6    2    1    2    0  502  0.65642846428E+02 -0.11800273350E+03  0.11302959315E+04  0.11514489349E+04  0.17329780292E+03 0.  0.
        -24    2    5    5    0    0 -0.22261744260E+02 -0.18535783256E+02  0.52105396533E+03  0.52789560549E+03  0.79607631539E+02 0.  0.
          5    1    3    3  501    0 -0.96577704319E+02  0.84359648513E+02  0.29233752932E+03  0.31926027676E+03  0.47000000000E+01 0. -1.
        -13    1    4    4    0    0 -0.86006195632E+01 -0.10911110243E+02  0.11797873754E+03  0.11879396237E+03  0.00000000000E+00 0.  1.
         14    1    4    4    0    0  0.39535477454E+02  0.44554195233E+02  0.84830587460E+02  0.10365499920E+03  0.00000000000E+00 0. -1.
         -5    1    5    5    0  502  0.87904590689E+02 -0.99466950248E+02  0.60924196613E+03  0.62355332936E+03  0.47000000000E+01 0.  1.
         13    1    6    6    0    0 -0.17130513784E+02 -0.49614784288E+02  0.29112030349E+03  0.29581432086E+03  0.00000000000E+00 0. -1.
        -14    1    6    6    0    0 -0.51312304759E+01  0.31079001033E+02  0.22993366184E+03  0.23208128464E+03  0.00000000000E+00 0.  1.
</event>
<event>
12    1  0.8331241E-002  0.1816364E+03  0.7818608E-02  0.1166380E+00
         21   -1    0    0  501  502  0.00000000000E+00  0.00000000000E+00  0.38823375745E+03  0.38823375745E+03  0.00000000000E+00 0. -1.
         21   -1    0    0  502  503 -0.00000000000E+00 -0.00000000000E+00 -0.22231721191E+03  0.22231721191E+03  0.00000000000E+00 0. -1.
         -6    2    1    2    0  503 -0.24101356656E+02 -0.51513223581E+02 -0.15729255352E+03  0.23980051096E+03  0.17183960565E+03 0.  0.
        -24    2    3    3    0    0  0.25594813827E+02 -0.28453000903E+02 -0.17698036792E+02  0.89766507047E+02  0.79247318729E+02 0.  0.
          6    2    1    2  501    0  0.24101356656E+02  0.51513223581E+02  0.32320909906E+03  0.37075045840E+03  0.17250302343E+03 0.  0.
         24    2    5    5    0    0 -0.21359634090E+01 -0.24610784467E+02  0.75828485268E+02  0.11055337993E+03  0.76562638302E+02 0.  0.
          5    1    5    5  501    0  0.26237320065E+02  0.76124008048E+02  0.24738061379E+03  0.26019707847E+03  0.47000000000E+01 0. -1.
        -11    1    6    6    0    0  0.33687435144E+02 -0.16154560072E+01  0.16534818326E+02  0.37561325879E+02  0.00000000000E+00 0.  1.
         12    1    6    6    0    0 -0.35823398553E+02 -0.22995328460E+02  0.59293666943E+02  0.72992054050E+02  0.00000000000E+00 0. -1.
         -5    1    3    3    0  503 -0.49696170483E+02 -0.23060222677E+02 -0.13959451673E+03  0.15003400391E+03  0.47000000000E+01 0.  1.
         11    1    4    4    0    0  0.22277020923E+02 -0.40861487278E+00 -0.45171387469E+02  0.50367518037E+02  0.00000000000E+00 0. -1.
        -12    1    4    4    0    0  0.33177929040E+01 -0.28044386031E+02  0.27473350676E+02  0.39398989010E+02  0.00000000000E+00 0.  1.
</event>
<event>
12    1  0.8331241E-002  0.2885421E+03  0.7818608E-02  0.1091242E+00
         21   -1    0    0  503  502  0.00000000000E+00  0.00000000000E+00  0.38854878099E+03  0.38854878099E+03  0.00000000000E+00 0.  1.
         21   -1    0    0  501  503 -0.00000000000E+00 -0.00000000000E+00 -0.41856658084E+03  0.41856658084E+03  0.00000000000E+00 0. -1.
          6    2    1    2  501    0 -0.22890474397E+03  0.15504897096E+02 -0.29743181523E+03  0.41371125360E+03  0.17335954834E+03 0.  0.
         24    2    3    3    0    0 -0.97033577718E+02  0.11241225117E+02 -0.92352238421E+02  0.16980982636E+03  0.10375240161E+03 0.  0.
         -6    2    1    2    0  502  0.22890474397E+03 -0.15504897096E+02  0.26741401538E+03  0.39340410823E+03  0.17498215081E+03 0.  0.
        -24    2    5    5    0    0  0.20145506831E+03 -0.14603362428E+02  0.28655325308E+03  0.35960029367E+03  0.80013758929E+02 0.  0.
          5    1    3    3  501    0 -0.13187116626E+03  0.42636719793E+01 -0.20507957681E+03  0.24390142724E+03  0.47000000000E+01 0. -1.
        -13    1    4    4    0    0  0.21838706298E+02  0.51614808296E+01 -0.22606331204E+02  0.31853040477E+02  0.00000000000E+00 0.  1.
         14    1    4    4    0    0 -0.11887228402E+03  0.60797442873E+01 -0.69745907217E+02  0.13795678588E+03  0.00000000000E+00 0. -1.
         -5    1    5    5    0  502  0.27449675666E+02 -0.90153466792E+00 -0.19139237697E+02  0.33803814556E+02  0.47000000000E+01 0.  1.
         13    1    6    6    0    0  0.61008815036E+02  0.38075895603E+01  0.33769136058E+02  0.69835004120E+02  0.00000000000E+00 0. -1.
        -14    1    6    6    0    0  0.14044625327E+03 -0.18410951989E+02  0.25278411702E+03  0.28976528955E+03  0.00000000000E+00 0.  1.
</event>
<event>
12    1  0.8331241E-002  0.1949481E+03  0.7818608E-02  0.1156035E+00
         21   -1    0    0  501  502  0.00000000000E+00  0.00000000000E+00  0.91278981162E+03  0.91278981162E+03  0.00000000000E+00 0. -1.
         21   -1    0    0  502  503 -0.00000000000E+00 -0.00000000000E+00 -0.41302204797E+02  0.41302204797E+02  0.00000000000E+00 0. -1.
         -6    2    1    2    0  503 -0.40323595223E+02 -0.59702782281E+02  0.33456917084E+03  0.38287738840E+03  0.17166289620E+03 0.  0.
        -24    2    3    3    0    0 -0.79650578148E+02 -0.30804866041E+02  0.13899407060E+03  0.18125047804E+03  0.78988795143E+02 0.  0.
          6    2    1    2  501    0  0.40323595223E+02  0.59702782281E+02  0.53691843599E+03  0.57121462801E+03  0.18114726001E+03 0.  0.
         24    2    5    5    0    0  0.50644543921E+02 -0.19129760511E+02  0.16645382454E+03  0.19228559756E+03  0.79599357779E+02 0.  0.
          5    1    5    5  501    0 -0.10320948698E+02  0.78832542792E+02  0.37046461145E+03  0.37892903045E+03  0.47000000000E+01 0. -1.
        -13    1    6    6    0    0  0.18167717395E+02  0.31340948266E+02  0.60686126082E+02  0.70676211644E+02  0.00000000000E+00 0.  1.
         14    1    6    6    0    0  0.32476826526E+02 -0.50470708777E+02  0.10576769846E+03  0.12160938591E+03  0.00000000000E+00 0. -1.
         -5    1    3    3    0  503  0.39326982925E+02 -0.28897916240E+02  0.19557510024E+03  0.20162691036E+03  0.47000000000E+01 0.  1.
         11    1    4    4    0    0 -0.59242430653E+02 -0.33740496848E+02  0.37754261783E+02  0.77932477184E+02  0.00000000000E+00 0. -1.
        -12    1    4    4    0    0 -0.20408147495E+02  0.29356308065E+01  0.10123980882E+03  0.10331800086E+03  0.00000000000E+00 0.  1.
</event>
<event>
12    1  0.8331241E-002  0.1801839E+03  0.7818608E-02  0.1167874E+00
         21   -1    0    0  503  502  0.00000000000E+00  0.00000000000E+00  0.88128693930E+02  0.88128693930E+02  0.00000000000E+00 0. -1.
         21   -1    0    0  501  503 -0.00000000000E+00 -0.00000000000E+00 -0.42705800164E+03  0.42705800164E+03  0.00000000000E+00 0. -1.
          6    2    1    2  501    0  0.20705547227E+02 -0.43661554505E+02 -0.26703851136E+03  0.32214249950E+03  0.17358332987E+03 0.  0.
         24    2    3    3    0    0 -0.40271678198E+02  0.15378502333E+02 -0.10197606857E+03  0.13647707367E+03  0.79803299905E+02 0.  0.
         -6    2    1    2    0  502 -0.20705547227E+02  0.43661554505E+02 -0.71890796345E+02  0.19304419606E+03  0.17251876422E+03 0.  0.
        -24    2    5    5    0    0  0.71483593812E+01  0.79941684995E+02 -0.73584312601E+01  0.11380655271E+03  0.80349317896E+02 0.  0.
          5    1    3    3  501    0  0.60977225425E+02 -0.59040056838E+02 -0.16506244279E+03  0.18566542584E+03  0.47000000000E+01 0. -1.
        -11    1    4    4    0    0  0.15538728191E+02  0.12518382257E+02  0.26981502038E+00  0.19955820411E+02  0.00000000000E+00 0.  1.
         12    1    4    4    0    0 -0.55810406389E+02  0.28601200764E+01 -0.10224588359E+03  0.11652125326E+03  0.00000000000E+00 0. -1.
         -5    1    5    5    0  502 -0.27853906608E+02 -0.36280130490E+02 -0.64532365085E+02  0.79237643360E+02  0.47000000000E+01 0.  1.
         11    1    6    6    0    0 -0.18328656208E+02  0.58149142746E+01  0.22796494561E+02  0.29823363839E+02  0.00000000000E+00 0. -1.
        -12    1    6    6    0    0  0.25477015589E+02  0.74126770720E+02 -0.30154925821E+02  0.83983188866E+02  0.00000000000E+00 0.  1.
</event>
<event>
12    1  0.8331241E-002  0.2832633E+03  0.7818608E-02  0.1094219E+00
         21   -1    0    0  503  502  0.00000000000E+00  0.00000000000E+00  0.18031134788E+03  0.18031134788E+03  0.00000000000E+00 0.  1.
         21   -1    0    0  501  503 -0.00000000000E+00 -0.00000000000E+00 -0.11447043278E+04  0.11447043278E+04  0.00000000000E+00 0. -1.
          6    2    1    2  501    0  0.22532006374E+03 -0.14362376802E+01 -0.10007155052E+04  0.10394330697E+04  0.16798330284E+03 0.  0.
         24    2    3    3    0    0  0.30884126448E+02  0.30710499487E+02 -0.30376114926E+03  0.31513602376E+03  0.71714110371E+02 0.  0.
         -6    2    1    2    0  502 -0.22532006374E+03  0.14362376802E+01  0.36322525318E+02  0.28558260600E+03  0.17165927036E+03 0.  0.
        -24    2    5    5    0    0 -0.55597366597E+02 -0.11295593428E+02  0.56909390149E+02  0.11407807996E+03  0.80972044781E+02 0.  0.
          5    1    3    3  501    0  0.19443593729E+03 -0.32146737167E+02 -0.69695435594E+03  0.72429704589E+03  0.47000000000E+01 0. -1.
        -11    1    4    4    0    0  0.27006725196E+02  0.45905799102E+02 -0.12748153129E+03  0.13816022010E+03  0.00000000000E+00 0.  1.
         12    1    4    4    0    0  0.38774012517E+01 -0.15195299615E+02 -0.17627961797E+03  0.17697580366E+03  0.00000000000E+00 0. -1.
         -5    1    5    5    0  502 -0.16972269714E+03  0.12731831108E+02 -0.20586864831E+02  0.17150452604E+03  0.47000000000E+01 0.  1.
         11    1    6    6    0    0 -0.57255529493E+02  0.64625811329E+01  0.34503388115E+01  0.57722313279E+02  0.00000000000E+00 0. -1.
        -12    1    6    6    0    0  0.16581628955E+01 -0.17758174561E+02  0.53459051338E+02  0.56355766678E+02  0.00000000000E+00 0.  1.
</event>
<event>
12    1  0.8331241E-002  0.2273407E+03  0.7818608E-02  0.1128607E+00
         21   -1    0    0  503  502  0.00000000000E+00  0.00000000000E+00  0.23798882041E+04  0.23798882041E+04  0.00000000000E+00 0. -1.
         21   -1    0    0  501  503 -0.00000000000E+00 -0.00000000000E+00 -0.22040687656E+02  0.22040687656E+02  0.00000000000E+00 0. -1.
          6    2    1    2  501    0 -0.89346695722E+02 -0.11850348971E+03  0.10226950460E+04  0.10475596908E+04  0.17161072087E+03 0.  0.
         24    2    3    3    0    0 -0.87589272365E+02 -0.24436344361E+02  0.40752872479E+03  0.42522263650E+03  0.80409038710E+02 0.  0.
         -6    2    1    2    0  502  0.89346695722E+02  0.11850348971E+03  0.13351524704E+04  0.13543692009E+04  0.17221470354E+03 0.  0.
        -24    2    5    5    0    0  0.90384965461E+02  0.21751488595E+02  0.56202230960E+03  0.57519376289E+03  0.79600371450E+02 0.  0.
          5    1    3    3  501    0 -0.17574233572E+01 -0.94067145351E+02  0.61516632124E+03  0.62233705430E+03  0.47000000000E+01 0. -1.
        -13    1    4    4    0    0  0.12500607080E+02 -0.12523962856E+01  0.10446643130E+03  0.10521914722E+03  0.00000000000E+00 0.  1.
         14    1    4    4    0    0 -0.10008987944E+03 -0.23183948076E+02  0.30306229349E+03  0.32000348928E+03  0.00000000000E+00 0. -1.
         -5    1    5    5    0  502 -0.10382697387E+01  0.96752001118E+02  0.77313016078E+03  0.77917543803E+03  0.47000000000E+01 0.  1.
         13    1    6    6    0    0  0.48036982112E+02  0.57793804335E+01  0.47161294897E+03  0.47408831090E+03  0.00000000000E+00 0. -1.
        -14    1    6    6    0    0  0.42347983349E+02  0.15972108161E+02  0.90409360627E+02  0.10110545199E+03  0.00000000000E+00 0.  1.
</event>
<event>
12    1  0.8331241E-002  0.2089806E+03  0.7818608E-02  0.1142410E+00
         21   -1    0    0  503  502  0.00000000000E+00  0.00000000000E+00  0.60076065499E+02  0.60076065499E+02  0.00000000000E+00 0. -1.
         21   -1    0    0  501  503 -0.00000000000E+00 -0.00000000000E+00 -0.10228999847E+04  0.10228999847E+04  0.00000000000E+00 0. -1.
          6    2    1    2  501    0  0.10823042675E+03  0.44515993499E+02 -0.77281846030E+03  0.80053145133E+03  0.17293563265E+03 0.  0.
         24    2    3    3    0    0  0.15196419151E+02  0.14768600674E+02 -0.16047763163E+03  0.18043177031E+03  0.79708912692E+02 0.  0.
         -6    2    1    2    0  502 -0.10823042675E+03 -0.44515993499E+02 -0.19000545890E+03  0.28244459886E+03  0.17313976453E+03 0.  0.
        -24    2    5    5    0    0 -0.33175432085E+02 -0.74488382499E+02 -0.54621362674E+02  0.12470259483E+03  0.76929288795E+02 0.  0.
          5    1    3    3  501    0  0.93034007602E+02  0.29747392825E+02 -0.61234082867E+03  0.62009968102E+03  0.47000000000E+01 0. -1.
        -11    1    4    4    0    0  0.32099055506E+00  0.17268216566E+02 -0.16402866911E+03  0.16493543775E+03  0.00000000000E+00 0.  1.
         12    1    4    4    0    0  0.14875428596E+02 -0.24996158913E+01  0.35510374761E+01  0.15496332555E+02  0.00000000000E+00 0. -1.
         -5    1    5    5    0  502 -0.75054994667E+02  0.29972389000E+02 -0.13538409622E+03  0.15774200404E+03  0.47000000000E+01 0.  1.
         13    1    6    6    0    0 -0.29033850672E+02 -0.84687560472E+01 -0.49944814037E+02  0.58388087510E+02  0.00000000000E+00 0. -1.
        -14    1    6    6    0    0 -0.41415814136E+01 -0.66019626452E+02 -0.46765486365E+01  0.66314507316E+02  0.00000000000E+00 0.  1.
</event>
<event>
12    1  0.8331241E-002  0.1876917E+03  0.7818608E-02  0.1160570E+00
         21   -1    0    0  501  502  0.00000000000E+00  0.00000000000E+00  0.14283250442E+04  0.14283250442E+04  0.00000000000E+00 0.  1.
         21   -1    0    0  502  503 -0.00000000000E+00 -0.00000000000E+00 -0.37290951252E+02  0.37290951252E+02  0.00000000000E+00 0.  1.
         -6    2    1    2    0  503 -0.18454377059E+02  0.69752906455E+02  0.26893912655E+03  0.32793181460E+03  0.17321948288E+03 0.  0.
        -24    2    3    3    0    0 -0.46590244322E+02 -0.29032111054E+01  0.21292782637E+03  0.23185947627E+03  0.79003025204E+02 0.  0.
          6    2    1    2  501    0  0.18454377059E+02 -0.69752906455E+02  0.11220949664E+04  0.11376841808E+04  0.17326900975E+03 0.  0.
         24    2    5    5    0    0  0.75082996337E+02 -0.59070965704E+02  0.62540829405E+03  0.63764353763E+03  0.79541885113E+02 0.  0.
          5    1    5    5  501    0 -0.56628619278E+02 -0.10681940752E+02  0.49668667233E+03  0.50004064320E+03  0.47000000000E+01 0. -1.
        -13    1    6    6    0    0  0.26121331182E+02 -0.69387090327E+02  0.38786628263E+03  0.39488877605E+03  0.00000000000E+00 0.  1.
         14    1    6    6    0    0  0.48961665155E+02  0.10316124623E+02  0.23754201142E+03  0.24275476158E+03  0.00000000000E+00 0. -1.
         -5    1    3    3    0  503  0.28135867262E+02  0.72656117561E+02  0.56011300176E+02  0.96072338334E+02  0.47000000000E+01 0.  1.
         13    1    4    4    0    0 -0.25065744852E+01  0.33695435502E+02  0.65784713041E+02  0.73954673681E+02  0.00000000000E+00 0. -1.
        -14    1    4    4    0    0 -0.44083669837E+02 -0.36598646607E+02  0.14714311333E+03  0.15790480259E+03  0.00000000000E+00 0.  1.
</event>
<event>
12    1  0.8331241E-002  0.1965856E+03  0.7818608E-02  0.1152849E+00
         21   -1    0    0  503  502  0.00000000000E+00  0.00000000000E+00  0.66664083331E+02  0.66664083331E+02  0.00000000000E+00 0.  1.
         21   -1    0    0  501  503 -0.00000000000E+00 -0.00000000000E+00 -0.60533281796E+03  0.60533281796E+03  0.00000000000E+00 0. -1.
          6    2    1    2  501    0  0.64969192343E+02  0.69752354773E+02 -0.34257893757E+03  0.39497621339E+03  0.17192874606E+03 0.  0.
         24    2    3    3    0    0  0.23389079080E+02  0.47197034757E+02 -0.67719376023E+02  0.11603622548E+03  0.78127348756E+02 0.  0.
         -6    2    1    2    0  502 -0.64969192343E+02 -0.69752354773E+02 -0.19608979706E+03  0.27702068791E+03  0.17088846090E+03 0.  0.
        -24    2    5    5    0    0 -0.44944731986E+00 -0.48174305006E+02 -0.18632147471E+03  0.20813005102E+03  0.79255665615E+02 0.  0.
          5    1    3    3  501    0  0.41580113263E+02  0.22555320015E+02 -0.27485956155E+03  0.27893998791E+03  0.47000000000E+01 0. -1.
        -13    1    4    4    0    0 -0.10606098714E+02  0.52505737764E+02 -0.60635483662E+02  0.80907377334E+02  0.00000000000E+00 0.  1.
         14    1    4    4    0    0  0.33995177793E+02 -0.53087030066E+01 -0.70838923610E+01  0.35128848142E+02  0.00000000000E+00 0. -1.
         -5    1    5    5    0  502 -0.64519745023E+02 -0.21578049766E+02 -0.97683223464E+01  0.68890636890E+02  0.47000000000E+01 0.  1.
         11    1    6    6    0    0 -0.61164742037E+01  0.21487879318E+02 -0.55071534242E+02  0.59430750442E+02  0.00000000000E+00 0. -1.
        -12    1    6    6    0    0  0.56670268838E+01 -0.69662184324E+02 -0.13124994047E+03  0.14869930058E+03  0.00000000000E+00 0.  1.
</event>
<event>
12    1  0.8331241E-002  0.2531148E+03  0.7818608E-02  0.1111650E+00
         21   -1    0    0  503  502  0.00000000000E+00  0.00000000000E+00  0.54321255267E+02  0.54321255267E+02  0.00000000000E+00 0. -1.
         21   -1    0    0  501  503 -0.00000000000E+00 -0.00000000000E+00 -0.13874202860E+04  0.13874202860E+04  0.00000000000E+00 0.  1.
          6    2    1    2  501    0 -0.17989735666E+03  0.43496622775E+02 -0.95368546303E+03  0.98670313162E+03  0.17266178624E+03 0.  0.
         24    2    3    3    0    0 -0.44540152562E+02 -0.51311190909E+01 -0.22066010925E+03  0.23968607073E+03  0.82148494284E+02 0.  0.
         -6    2    1    2    0  502  0.17989735666E+03 -0.43496622775E+02 -0.37941356774E+03  0.45503840969E+03  0.16985371288E+03 0.  0.
        -24    2    5    5    0    0  0.53830838713E+02  0.91722717973E+01 -0.75237258908E+02  0.12155363303E+03  0.78311881662E+02 0.  0.
          5    1    3    3  501    0 -0.13535720410E+03  0.48627741866E+02 -0.73302535378E+03  0.74701706089E+03  0.47000000000E+01 0. -1.
        -13    1    4    4    0    0  0.70504203360E+01  0.90727253771E+01 -0.15296561751E+03  0.15339655444E+03  0.00000000000E+00 0.  1.
         14    1    4    4    0    0 -0.51590572898E+02 -0.14203844468E+02 -0.67694491734E+02  0.86289516286E+02  0.00000000000E+00 0. -1.
         -5    1    5    5    0  502  0.12606651795E+03 -0.52668894573E+02 -0.30417630883E+03  0.33348477665E+03  0.47000000000E+01 0.  1.
         13    1    6    6    0    0  0.16004343943E+02 -0.31056738012E+02 -0.10535891643E+02  0.36491985609E+02  0.00000000000E+00 0. -1.
        -14    1    6    6    0    0  0.37826494770E+02  0.40229009809E+02 -0.64701367265E+02  0.85061647426E+02  0.00000000000E+00 0.  1.
</event>
<event>
12    1  0.8331241E-002  0.2196070E+03  0.7818608E-02  0.1134247E+00
         21   -1    0    0  501  502  0.00000000000E+00  0.00000000000E+00  0.18873217719E+03  0.18873217719E+03  0.00000000000E+00 0.  1.
         21   -1    0    0  502  503 -0.00000000000E+00 -0.00000000000E+00 -0.25732456160E+03  0.25732456160E+03  0.00000000000E+00 0. -1.
         -6    2    1    2    0  503 -0.19767230289E+01  0.13580670815E+03 -0.55088053295E+02  0.22641093565E+03  0.17256838863E+03 0.  0.
        -24    2    3    3    0    0 -0.15396835017E+02  0.14089076279E+03  0.60161320498E+01  0.16346843424E+03  0.81230939784E+02 0.  0.
          6    2    1    2  501    0  0.19767230289E+01 -0.13580670815E+03 -0.13504331114E+02  0.21964580314E+03  0.17208876334E+03 0.  0.
         24    2    5    5    0    0 -0.64263153751E+02 -0.10002133189E+03  0.76729346000E+00  0.14287286717E+03  0.79234131990E+02 0.  0.
          5    1    5    5  501    0  0.66239876780E+02 -0.35785376259E+02 -0.14271624574E+02  0.76772935972E+02  0.47000000000E+01 0. -1.
        -13    1    6    6    0    0 -0.34323573455E+02 -0.58705150484E+02 -0.38810779632E+02  0.78298652630E+02  0.00000000000E+00 0.  1.
         14    1    6    6    0    0 -0.29939580296E+02 -0.41316181404E+02  0.39578073092E+02  0.64574214543E+02  0.00000000000E+00 0. -1.
         -5    1    3    3    0  503  0.13420111988E+02 -0.50840546449E+01 -0.61104185344E+02  0.62942501412E+02  0.47000000000E+01 0.  1.
         13    1    4    4    0    0 -0.45400980955E+02  0.11121696392E+03 -0.36259408199E+01  0.12018156923E+03  0.00000000000E+00 0. -1.
        -14    1    4    4    0    0  0.30004145938E+02  0.29673798869E+02  0.96420728697E+01  0.43286865006E+02  0.00000000000E+00 0.  1.
</event>
<event>
12    1  0.8331241E-002  0.1755918E+03  0.7818608E-02  0.1172417E+00
         21   -1    0    0  503  502  0.00000000000E+00  0.00000000000E+00  0.10689794799E+03  0.10689794799E+03  0.00000000000E+00 0.  1.
         21   -1    0    0  501  503 -0.00000000000E+00 -0.00000000000E+00 -0.35688790993E+03  0.35688790993E+03  0.00000000000E+00 0.  1.
          6    2    1    2  501    0 -0.22185441683E+02 -0.32277809616E+02 -0.22821886794E+03  0.28795198374E+03  0.17116787795E+03 0.  0.
         24    2    3    3    0    0 -0.26003039468E+02 -0.65059538855E+02 -0.71390386387E+02  0.12761958387E+03  0.79254458930E+02 0.  0.
         -6    2    1    2    0  502  0.22185441683E+02  0.32277809616E+02 -0.21771094000E+02  0.17583387418E+03  0.17002799758E+03 0.  0.
        -24    2    5    5    0    0  0.42456493952E+02 -0.36372695206E+02 -0.33465468665E+02  0.10315199356E+03  0.79967926988E+02 0.  0.
          5    1    3    3  501    0  0.38175977855E+01  0.32781729240E+02 -0.15682848155E+03  0.16033239988E+03  0.47000000000E+01 0. -1.
        -13    1    4    4    0    0  0.13358422488E+02 -0.30363373645E+02 -0.67249671979E+02  0.74986000638E+02  0.00000000000E+00 0.  1.
         14    1    4    4    0    0 -0.39361461956E+02 -0.34696165210E+02 -0.41407144078E+01  0.52633583228E+02  0.00000000000E+00 0. -1.
         -5    1    5    5    0  502 -0.20271052269E+02  0.68650504822E+02  0.11694374665E+02  0.72681880625E+02  0.47000000000E+01 0.  1.
         13    1    6    6    0    0  0.58314426027E+02 -0.16811592740E+02  0.71932402644E+00  0.60693651730E+02  0.00000000000E+00 0. -1.
        -14    1    6    6    0    0 -0.15857932075E+02 -0.19561102466E+02 -0.34184792692E+02  0.42458341827E+02  0.00000000000E+00 0.  1.
</event>
<event>
12    1  0.8331241E-002  0.2644502E+03  0.7818608E-02  0.1104529E+00
         21   -1    0    0  501  502  0.00000000000E+00  0.00000000000E+00  0.16213767517E+03  0.16213767517E+03  0.00000000000E+00 0. -1.
         21   -1    0    0  502  503 -0.00000000000E+00 -0.00000000000E+00 -0.66880245117E+03  0.66880245117E+03  0.00000000000E+00 0.  1.
         -6    2    1    2    0  503  0.19396708407E+03  0.49773797607E+02 -0.50114581973E+03  0.56664015048E+03  0.17272309305E+03 0.  0.
        -24    2    3    3    0    0  0.52501381155E+02  0.62785930459E+02 -0.15385553404E+03  0.19138757789E+03  0.79115178872E+02 0.  0.
          6    2    1    2  501    0 -0.19396708407E+03 -0.49773797607E+02 -0.55189562646E+01  0.26429997586E+03  0.17240463373E+03 0.  0.
         24    2    5    5    0    0 -0.13224660306E+03 -0.33824097329E+02  0.63636633508E+02  0.17012781271E+03  0.79124066839E+02 0.  0.
          5    1    5    5  501    0 -0.61720481010E+02 -0.15949700278E+02 -0.69155589773E+02  0.94172163148E+02  0.47000000000E+01 0. -1.
        -13    1    6    6    0    0 -0.10207805337E+03 -0.15915320461E+02  0.70549710409E+01  0.10355191462E+03  0.00000000000E+00 0.  1.
         14    1    6    6    0    0 -0.30168549691E+02 -0.17908776868E+02  0.56581662467E+02  0.66575898094E+02  0.00000000000E+00 0. -1.
         -5    1    3    3    0  503  0.14146570291E+03 -0.13012132852E+02 -0.34729028569E+03  0.37525257260E+03  0.47000000000E+01 0.  1.
         13    1    4    4    0    0 -0.11593853222E+02  0.43253495576E+02 -0.79892582356E+02  0.91586609434E+02  0.00000000000E+00 0. -1.
        -14    1    4    4    0    0  0.64095234377E+02  0.19532434883E+02 -0.73962951684E+02  0.99800968453E+02  0.00000000000E+00 0.  1.
</event>
<event>
12    1  0.8331241E-002  0.1824326E+03  0.7818608E-02  0.1165723E+00
         21   -1    0    0  503  502  0.00000000000E+00  0.00000000000E+00  0.41499169819E+02  0.41499169819E+02  0.00000000000E+00 0.  1.
         21   -1    0    0  501  503 -0.00000000000E+00 -0.00000000000E+00 -0.13990721145E+04  0.13990721145E+04  0.00000000000E+00 0.  1.
          6    2    1    2  501    0  0.23025306016E+02 -0.54494257762E+02 -0.11522961934E+04  0.11666482635E+04  0.17257422897E+03 0.  0.
         24    2    3    3    0    0  0.31774916668E+02  0.13908047201E+02 -0.36427588192E+03  0.37560241631E+03  0.84718226403E+02 0.  0.
         -6    2    1    2    0  502 -0.23025306016E+02  0.54494257762E+02 -0.20527675129E+03  0.27392302085E+03  0.17145112390E+03 0.  0.
        -24    2    5    5    0    0  0.39061533437E+02  0.65083724214E+02 -0.91086887611E+02  0.14343038734E+03  0.80707870536E+02 0.  0.
          5    1    3    3  501    0 -0.87496106517E+01 -0.68402304963E+02 -0.78802031150E+03  0.79104584718E+03  0.47000000000E+01 0. -1.
        -13    1    4    4    0    0  0.22771000290E+01  0.44222528806E+02 -0.24686428291E+03  0.25080428907E+03  0.00000000000E+00 0.  1.
         14    1    4    4    0    0  0.29497816639E+02 -0.30314481605E+02 -0.11741159901E+03  0.12479812724E+03  0.00000000000E+00 0. -1.
         -5    1    5    5    0  502 -0.62086839454E+02 -0.10589466452E+02 -0.11418986368E+03  0.13049263351E+03  0.47000000000E+01 0.  1.
         13    1    6    6    0    0  0.31755722003E+02  0.93055539077E+01  0.36071723044E+01  0.33287098184E+02  0.00000000000E+00 0. -1.
        -14    1    6    6    0    0  0.73058114344E+01  0.55778170306E+02 -0.94694059915E+02  0.11014328916E+03  0.00000000000E+00 0.  1.
</event>
<event>
12    1  0.8331241E-002  0.1758735E+03  0.7818608E-02  0.1172005E+00
         21   -1    0    0  503  502  0.00000000000E+00  0.00000000000E+00  0.11537102683E+03  0.11537102683E+03  0.00000000000E+00 0.  1.
         21   -1    0    0  501  503 -0.00000000000E+00 -0.00000000000E+00 -0.13849909673E+04  0.13849909673E+04  0.00000000000E+00 0.  1.
          6    2    1    2  501    0  0.88067775403E+01 -0.32095051341E+02 -0.13085449758E+04  0.13202324450E+04  0.17209329842E+03 0.  0.
         24    2    3    3    0    0 -0.32237248637E+02  0.35716391950E+02 -0.84571660908E+03  0.85064199470E+03  0.77719491910E+02 0.  0.
         -6    2    1    2    0  502 -0.88067775403E+01  0.32095051341E+02  0.38925035357E+02  0.18012954915E+03  0.17269581479E+03 0.  0.
        -24    2    5    5    0    0  0.10575127891E+02  0.32621151783E+01 -0.43518619412E+02  0.90541365342E+02  0.78621840968E+02 0.  0.
          5    1    3    3  501    0  0.41044026178E+02 -0.67811443291E+02 -0.46282836673E+03  0.46959045026E+03  0.47000000000E+01 0. -1.
        -13    1    4    4    0    0 -0.55111352025E+02  0.15197973257E+02 -0.65221820708E+03  0.65471889324E+03  0.00000000000E+00 0.  1.
         14    1    4    4    0    0  0.22874103388E+02  0.20518418693E+02 -0.19349840199E+03  0.19592310146E+03  0.00000000000E+00 0. -1.
         -5    1    5    5    0  502 -0.19381905432E+02  0.28832936163E+02  0.82443654769E+02  0.89588183806E+02  0.47000000000E+01 0.  1.
         13    1    6    6    0    0  0.30665020834E+02 -0.23504776774E+02 -0.41340026897E+01  0.38857534819E+02  0.00000000000E+00 0. -1.
        -14    1    6    6    0    0 -0.20089892943E+02  0.26766891953E+02 -0.39384616722E+02  0.51683830524E+02  0.00000000000E+00 0.  1.
</event>
<event>
12    1  0.8331241E-002  0.2024396E+03  0.7818608E-02  0.1147716E+00
         21   -1    0    0  503  502  0.00000000000E+00  0.00000000000E+00  0.30138900783E+03  0.30138900783E+03  0.00000000000E+00 0.  1.
         21   -1    0    0  501  503 -0.00000000000E+00 -0.00000000000E+00 -0.15791622890E+03  0.15791622890E+03  0.00000000000E+00 0. -1.
          6    2    1    2  501    0 -0.67643609618E+02  0.86936623142E+02 -0.13969800294E+02  0.20292101888E+03  0.16984743218E+03 0.  0.
         24    2    3    3    0    0 -0.12527264730E+02  0.57632217367E+02  0.51003032741E+02  0.11269841249E+03  0.81370866955E+02 0.  0.
         -6    2    1    2    0  502  0.67643609618E+02 -0.86936623142E+02  0.15744257922E+03  0.25638421786E+03  0.16973823095E+03 0.  0.
        -24    2    5    5    0    0 -0.15701746413E+02 -0.32822894780E+01  0.82138821366E+02  0.11625127433E+03  0.80686148402E+02 0.  0.
          5    1    3    3  501    0 -0.55116344888E+02  0.29304405775E+02 -0.64972833035E+02  0.90222606392E+02  0.47000000000E+01 0. -1.
        -11    1    4    4    0    0 -0.40270617430E+02  0.17374952505E+02  0.26556271762E+01  0.43939321324E+02  0.00000000000E+00 0.  1.
         12    1    4    4    0    0  0.27743352700E+02  0.40257264862E+02  0.48347405565E+02  0.68759091167E+02  0.00000000000E+00 0. -1.
         -5    1    5    5    0  502  0.83345356031E+02 -0.83654333664E+02  0.75303757859E+02  0.14013294352E+03  0.47000000000E+01 0.  1.
         11    1    6    6    0    0 -0.50832381534E+01 -0.36694438219E+02  0.13962489256E+02  0.39588788976E+02  0.00000000000E+00 0. -1.
        -12    1    6    6    0    0 -0.10618508260E+02  0.33412148741E+02  0.68176332110E+02  0.76662485357E+02  0.00000000000E+00 0.  1.
</event>
<event>
12    1  0.8331241E-002  0.1926019E+03  0.7818608E-02  0.1156207E+00
         21   -1    0    0  501  502  0.00000000000E+00  0.00000000000E+00  0.84313828619E+02  0.84313828619E+02  0.00000000000E+00 0. -1.
         21   -1    0    0  502  503 -0.00000000000E+00 -0.00000000000E+00 -0.44039132286E+03  0.44039132286E+03  0.00000000000E+00 0. -1.
         -6    2    1    2    0  503 -0.73053769812E+01 -0.83947717461E+02 -0.19162714438E+03  0.27169185801E+03  0.17319040230E+03 0.  0.
        -24    2    3    3    0    0  0.35785255602E+02 -0.94693357817E+02 -0.81261467879E+02  0.15263328439E+03  0.80287463589E+02 0.  0.
          6    2    1    2  501    0  0.73053769812E+01  0.83947717461E+02 -0.16445034986E+03  0.25301329346E+03  0.17283292887E+03 0.  0.
         24    2    5    5    0    0  0.30443644302E+02  0.64634834483E+01 -0.14689990645E+03  0.17013208933E+03  0.79979704979E+02 0.  0.
          5    1    5    5  501    0 -0.23138267320E+02  0.77484234013E+02 -0.17550443414E+02  0.82881204137E+02  0.47000000000E+01 0. -1.
        -13    1    6    6    0    0  0.50354221934E+02  0.69554929139E+01 -0.14018069050E+03  0.14911254989E+03  0.00000000000E+00 0.  1.
         14    1    6    6    0    0 -0.19910577633E+02 -0.49200946562E+00 -0.67192159507E+01  0.21019539433E+02  0.00000000000E+00 0. -1.
         -5    1    3    3    0  503 -0.43090632583E+02  0.10745640356E+02 -0.11036567650E+03  0.11905857362E+03  0.47000000000E+01 0.  1.
         11    1    4    4    0    0 -0.13059218689E+02 -0.16791961681E+02  0.96242641445E+01  0.23348225418E+02  0.00000000000E+00 0. -1.
        -12    1    4    4    0    0  0.48844474290E+02 -0.77901396136E+02 -0.90885732023E+02  0.12928505897E+03  0.00000000000E+00 0.  1.
</event>
<event>
12    1  0.8331241E-002  0.2370189E+03  0.7818608E-02  0.1121933E+00
         21   -1    0    0  503  502  0.00000000000E+00  0.00000000000E+00  0.11905015864E+03  0.11905015864E+03  0.00000000000E+00 0.  1.
         21   -1    0    0  501  503 -0.00000000000E+00 -0.00000000000E+00 -0.49005941124E+03  0.49005941124E+03  0.00000000000E+00 0.  1.
          6    2    1    2  501    0 -0.75570190443E+02 -0.14317852909E+03 -0.24640651813E+03  0.34133394227E+03  0.17199343911E+03 0.  0.
         24    2    3    3    0    0 -0.49765919596E+02 -0.48587158617E+02 -0.22366091895E+03  0.24057263995E+03  0.54896536277E+02 0.  0.
         -6    2    1    2    0  502  0.75570190443E+02  0.14317852909E+03 -0.12460273447E+03  0.26777562761E+03  0.17310979299E+03 0.  0.
        -24    2    5    5    0    0  0.22936973450E+02  0.16037499665E+01 -0.60196848119E+02  0.10350791376E+03  0.81003400688E+02 0.  0.
          5    1    3    3  501    0 -0.25804270847E+02 -0.94591370478E+02 -0.22745599180E+02  0.10076130232E+03  0.47000000000E+01 0. -1.
        -11    1    4    4    0    0 -0.44844239955E+02 -0.91815245406E+01 -0.87650758005E+02  0.98883576133E+02  0.00000000000E+00 0.  1.
         12    1    4    4    0    0 -0.49216796418E+01 -0.39405634076E+02 -0.13601016094E+03  0.14168906382E+03  0.00000000000E+00 0. -1.
         -5    1    5    5    0  502  0.52633216994E+02  0.14157477913E+03 -0.64405886349E+02  0.16426771385E+03  0.47000000000E+01 0.  1.
         13    1    6    6    0    0  0.91079045394E+01 -0.25109682359E+00  0.20067888177E+02  0.22039444425E+02  0.00000000000E+00 0. -1.
        -14    1    6    6    0    0  0.13829068910E+02  0.18548467901E+01 -0.80264736296E+02  0.81468469337E+02  0.00000000000E+00 0.  1.
</event>
<event>
12    1  0.8331241E-002  0.1887108E+03  0.7818608E-02  0.1159686E+00
         21   -1    0    0  501  502  0.00000000000E+00  0.00000000000E+00  0.53475541520E+03  0.53475541520E+03  0.00000000000E+00 0. -1.
         21   -1    0    0  502  503 -0.00000000000E+00 -0.00000000000E+00 -0.98688068385E+02  0.98688068385E+02  0.00000000000E+00 0. -1.
         -6    2    1    2    0  503 -0.40298828448E+02 -0.66133617824E+02  0.37075979878E+02  0.19207530865E+03  0.17181572958E+03 0.  0.
        -24    2    3    3    0    0 -0.58835764860E+02 -0.10466884098E+03  0.28172995875E+02  0.14814428819E+03  0.82071913147E+02 0.  0.
          6    2    1    2  501    0  0.40298828448E+02  0.66133617824E+02  0.39899136693E+03  0.44136817493E+03  0.17208748929E+03 0.  0.
         24    2    5    5    0    0 -0.24942493694E+02 -0.17747804814E+02  0.15411189501E+03  0.17438396388E+03  0.75645079866E+02 0.  0.
          5    1    5    5  501    0  0.65241322142E+02  0.83881422638E+02  0.24487947192E+03  0.26698421104E+03  0.47000000000E+01 0. -1.
        -11    1    6    6    0    0 -0.19705535403E+02 -0.52650976003E+01  0.73413898368E+00  0.20410005838E+02  0.00000000000E+00 0.  1.
         12    1    6    6    0    0 -0.52369582902E+01 -0.12482707213E+02  0.15337775603E+03  0.15397395805E+03  0.00000000000E+00 0. -1.
         -5    1    3    3    0  503  0.18536936412E+02  0.38535223154E+02  0.89029840026E+01  0.43931020466E+02  0.47000000000E+01 0.  1.
         13    1    4    4    0    0 -0.60199338912E+01  0.13618320732E+02 -0.22983080869E+01  0.15065871487E+02  0.00000000000E+00 0. -1.
        -14    1    4    4    0    0 -0.52815830969E+02 -0.11828716171E+03  0.30471303962E+02  0.13307841670E+03  0.00000000000E+00 0.  1.
</event>
<event>
12    1  0.8331241E-002  0.1820208E+03  0.7818608E-02  0.1166028E+00
         21   -1    0    0  503  502  0.00000000000E+00  0.00000000000E+00  0.58463766595E+02  0.58463766595E+02  0.00000000000E+00 0.  1.
         21   -1    0    0  501  503 -0.00000000000E+00 -0.00000000000E+00 -0.56646962662E+03  0.56646962662E+03  0.00000000000E+00 0.  1.
          6    2    1    2  501    0  0.47125339415E+02  0.24928609940E+02 -0.27277028868E+03  0.32792557800E+03  0.17403827484E+03 0.  0.
         24    2    3    3    0    0 -0.10200194364E+02  0.61140509475E+02 -0.21792464147E+03  0.24058913939E+03  0.80930703491E+02 0.  0.
         -6    2    1    2    0  502 -0.47125339415E+02 -0.24928609940E+02 -0.23523557134E+03  0.29700781522E+03  0.17330791980E+03 0.  0.
        -24    2    5    5    0    0 -0.39977138344E+02  0.42351955682E+02 -0.80892250577E+02  0.12842038403E+03  0.80971470846E+02 0.  0.
          5    1    3    3  501    0  0.57325533778E+02 -0.36211899534E+02 -0.54845647209E+02  0.87336438607E+02  0.47000000000E+01 0. -1.
        -11    1    4    4    0    0  0.11137773713E+02  0.66852238135E+02 -0.20278216194E+03  0.21380803762E+03  0.00000000000E+00 0.  1.
         12    1    4    4    0    0 -0.21337968077E+02 -0.57117286605E+01 -0.15142479531E+02  0.26781101775E+02  0.00000000000E+00 0. -1.
         -5    1    5    5    0  502 -0.71482010703E+01 -0.67280565622E+02 -0.15434332077E+03  0.16858743119E+03  0.47000000000E+01 0.  1.
         13    1    6    6    0    0  0.73770450992E+01  0.35447783073E+02 -0.70788034470E+02  0.79510451787E+02  0.00000000000E+00 0. -1.
        -14    1    6    6    0    0 -0.47354183444E+02  0.69041726087E+01 -0.10104216107E+02  0.48909932244E+02  0.00000000000E+00 0.  1.
</event>
<event>
12    1  0.8331241E-002  0.1968848E+03  0.7818608E-02  0.1153878E+00
         21   -1    0    0  501  502  0.00000000000E+00  0.00000000000E+00  0.13797160898E+04  0.13797160898E+04  0.00000000000E+00 0.  1.
         21   -1    0    0  502  503 -0.00000000000E+00 -0.00000000000E+00 -0.38199008248E+02  0.38199008248E+02  0.00000000000E+00 0. -1.
         -6    2    1    2    0  503 -0.80287363303E+02 -0.21403660899E+02  0.29763759518E+03  0.35686377104E+03  0.17849211638E+03 0.  0.
        -24    2    3    3    0    0 -0.39521170404E+02 -0.81191246733E+02  0.16637109528E+03  0.20689903552E+03  0.83510047894E+02 0.  0.
          6    2    1    2  501    0  0.80287363303E+02  0.21403660899E+02  0.10438794864E+04  0.10610513270E+04  0.17100104990E+03 0.  0.
         24    2    5    5    0    0 -0.14513292040E+02 -0.15903607153E+02  0.58220009721E+03  0.58824169842E+03  0.81288266105E+02 0.  0.
          5    1    5    5  501    0  0.94800655343E+02  0.37307268052E+02  0.46167938915E+03  0.47280962857E+03  0.47000000000E+01 0. -1.
        -11    1    6    6    0    0 -0.17219282339E+02 -0.45513697278E+02  0.24851422830E+03  0.25323372996E+03  0.00000000000E+00 0.  1.
         12    1    6    6    0    0  0.27059902986E+01  0.29610090125E+02  0.33368586891E+03  0.33500796846E+03  0.00000000000E+00 0. -1.
         -5    1    3    3    0  503 -0.40766192899E+02  0.59787585834E+02  0.13126649990E+03  0.14996473552E+03  0.47000000000E+01 0.  1.
         13    1    4    4    0    0  0.15309388498E+01 -0.15109597112E+02 -0.71133848841E+01  0.16770329250E+02  0.00000000000E+00 0. -1.
        -14    1    4    4    0    0 -0.41052109254E+02 -0.66081649621E+02  0.17348448017E+03  0.19012870627E+03  0.00000000000E+00 0.  1.
</event>
<event>
12    1  0.8331241E-002  0.1725058E+03  0.7818608E-02  0.1175285E+00
         21   -1    0    0  503  502  0.00000000000E+00  0.00000000000E+00  0.14554215522E+03  0.14554215522E+03  0.00000000000E+00 0. -1.
         21   -1    0    0  501  503 -0.00000000000E+00 -0.00000000000E+00 -0.20561796317E+03  0.20561796317E+03  0.00000000000E+00 0. -1.
          6    2    1    2  501    0 -0.12215101748E+02 -0.17527920790E+01 -0.16251508788E+02  0.17326965373E+03  0.17206388458E+03 0.  0.
         24    2    3    3    0    0  0.28428300542E+02  0.43271350325E+02  0.26121760642E+02  0.99130301757E+02  0.80398335286E+02 0.  0.
         -6    2    1    2    0  502  0.12215101748E+02  0.17527920790E+01 -0.43824299163E+02  0.17789046466E+03  0.17196559897E+03 0.  0.
        -24    2    5    5    0    0  0.51928314803E+02 -0.43870516975E+02 -0.50079900682E+02  0.11689990661E+03  0.80848126607E+02 0.  0.
          5    1    3    3  501    0 -0.40643402290E+02 -0.45024142404E+02 -0.42373269429E+02  0.74139351974E+02  0.47000000000E+01 0. -1.
        -13    1    4    4    0    0  0.20050540537E+02 -0.73817348169E+01  0.40520187019E+02  0.45808293362E+02  0.00000000000E+00 0.  1.
         14    1    4    4    0    0  0.83777600049E+01  0.50653085142E+02 -0.14398426377E+02  0.53322008395E+02  0.00000000000E+00 0. -1.
         -5    1    5    5    0  502 -0.39713213055E+02  0.45623309054E+02  0.62556015191E+01  0.60990558045E+02  0.47000000000E+01 0.  1.
         11    1    6    6    0    0  0.58556904190E+02 -0.60926118333E+02 -0.50780955268E+02  0.98588074032E+02  0.00000000000E+00 0. -1.
        -12    1    6    6    0    0 -0.66285893863E+01  0.17055601358E+02  0.70105458611E+00  0.18311832581E+02  0.00000000000E+00 0.  1.
</event>
<event>
12    1  0.8331241E-002  0.2037973E+03  0.7818608E-02  0.1146622E+00
         21   -1    0    0  503  502  0.00000000000E+00  0.00000000000E+00  0.50146436353E+03  0.50146436353E+03  0.00000000000E+00 0.  1.
         21   -1    0    0  501  503 -0.00000000000E+00 -0.00000000000E+00 -0.14377385710E+03  0.14377385710E+03  0.00000000000E+00 0.  1.
          6    2    1    2  501    0  0.10641256006E+03  0.22396890671E+02 -0.31431972311E+02  0.20597789730E+03  0.17208623315E+03 0.  0.
         24    2    3    3    0    0  0.54372152203E+01  0.11436240185E+02 -0.59180418244E+02  0.10058234532E+03  0.80337633691E+02 0.  0.
         -6    2    1    2    0  502 -0.10641256006E+03 -0.22396890671E+02  0.38912247874E+03  0.43926032333E+03  0.17236030442E+03 0.  0.
        -24    2    5    5    0    0 -0.10209560112E+03 -0.63900858224E+02  0.36132452559E+03  0.38890129577E+03  0.78625527742E+02 0.  0.
          5    1    3    3  501    0  0.10097534484E+03  0.10960650486E+02  0.27748445933E+02  0.10539555198E+03  0.47000000000E+01 0. -1.
        -13    1    4    4    0    0  0.20993338310E+02  0.38378983968E+02 -0.53243757845E+02  0.68909828132E+02  0.00000000000E+00 0.  1.
         14    1    4    4    0    0 -0.15556123090E+02 -0.26942743783E+02 -0.59366603993E+01  0.31672517185E+02  0.00000000000E+00 0. -1.
         -5    1    5    5    0  502 -0.43169589479E+01  0.41503967553E+02  0.27797953150E+02  0.50359027557E+02  0.47000000000E+01 0.  1.
         13    1    6    6    0    0 -0.50779097493E+02  0.77067730146E+01  0.18195984285E+03  0.18906955202E+03  0.00000000000E+00 0. -1.
        -14    1    6    6    0    0 -0.51316503622E+02 -0.71607631238E+02  0.17936468274E+03  0.19983174375E+03  0.00000000000E+00 0.  1.
</event>
<event>
12    1  0.8331241E-002  0.2805065E+03  0.7818608E-02  0.1095756E+00
         21   -1    0    0  501  502  0.00000000000E+00  0.00000000000E+00  0.38978562126E+03  0.38978562126E+03  0.00000000000E+00 0. -1.
         21   -1    0    0  502  503 -0.00000000000E+00 -0.00000000000E+00 -0.20008119278E+03  0.20008119278E+03  0.00000000000E+00 0.  1.
         -6    2    1    2    0  503 -0.20340432278E+03 -0.79634008342E+02  0.91665178458E+02  0.29272109138E+03  0.17195417584E+03 0.  0.
        -24    2    3    3    0    0 -0.73095661760E+02  0.21888133379E+02  0.66056776602E+02  0.12549378308E+03  0.74586364074E+02 0.  0.
          6    2    1    2  501    0  0.20340432278E+03  0.79634008342E+02  0.98039250023E+02  0.29714572266E+03  0.17598009018E+03 0.  0.
         24    2    5    5    0    0  0.54451411207E+02 -0.34257820630E+01  0.80259218029E+02  0.12561112502E+03  0.79749109623E+02 0.  0.
          5    1    5    5  501    0  0.14895291157E+03  0.83059790405E+02  0.17780031994E+02  0.17153459763E+03  0.47000000000E+01 0. -1.
        -11    1    6    6    0    0  0.15583637999E+02 -0.14398645332E+02 -0.12370260407E+02  0.24560010245E+02  0.00000000000E+00 0.  1.
         12    1    6    6    0    0  0.38867773208E+02  0.10972863269E+02  0.92629478436E+02  0.10105111478E+03  0.00000000000E+00 0. -1.
         -5    1    3    3    0  503 -0.13030866102E+03 -0.10152214172E+03  0.25608401856E+02  0.16722730830E+03  0.47000000000E+01 0.  1.
         11    1    4    4    0    0 -0.66253247179E+02 -0.15931863650E+02  0.45135994053E+02  0.81734784519E+02  0.00000000000E+00 0. -1.
        -12    1    4    4    0    0 -0.68424145802E+01  0.37819997030E+02  0.20920782549E+02  0.43758998561E+02  0.00000000000E+00 0.  1.
</event>
<event>
12    1  0.8331241E-002  0.1799232E+03  0.7818608E-02  0.1168087E+00
         21   -1    0    0  503  502  0.00000000000E+00  0.00000000000E+00  0.58136050865E+02  0.58136050865E+02  0.00000000000E+00 0.  1.
         21   -1    0    0  501  503 -0.00000000000E+00 -0.00000000000E+00 -0.60202884985E+03  0.60202884985E+03  0.00000000000E+00 0.  1.
          6    2    1    2  501    0 -0.42488522231E+02 -0.31183816660E+02 -0.17948091901E+03  0.25413728614E+03  0.17203097097E+03 0.  0.
         24    2    3    3    0    0  0.26397724226E+02 -0.56990299841E+02 -0.79714894124E+02  0.13009439336E+03  0.81396269690E+02 0.  0.
         -6    2    1    2    0  502  0.42488522231E+02  0.31183816660E+02 -0.36441187998E+03  0.40602761458E+03  0.17112773181E+03 0.  0.
        -24    2    5    5    0    0  0.45670105684E+02  0.60571622521E+02 -0.13919392110E+03  0.17882949706E+03  0.82766909684E+02 0.  0.
          5    1    3    3  501    0 -0.68886246457E+02  0.25806483181E+02 -0.99766024887E+02  0.12404289277E+03  0.47000000000E+01 0. -1.
        -11    1    4    4    0    0  0.41612234760E+02 -0.27179578936E+01 -0.15100765217E+02  0.44350856666E+02  0.00000000000E+00 0.  1.
         12    1    4    4    0    0 -0.15214510534E+02 -0.54272341947E+02 -0.64614128906E+02  0.85743536699E+02  0.00000000000E+00 0. -1.
         -5    1    5    5    0  502 -0.31815834528E+01 -0.29387805860E+02 -0.22521795888E+03  0.22719811753E+03  0.47000000000E+01 0.  1.
         11    1    6    6    0    0  0.42366404653E+02 -0.48296180065E+01 -0.32386295148E+02  0.53545397250E+02  0.00000000000E+00 0. -1.
        -12    1    6    6    0    0  0.33037010313E+01  0.65401240527E+02 -0.10680762595E+03  0.12528409981E+03  0.00000000000E+00 0.  1.
</event>
<event>
12    1  0.8331241E-002  0.1995507E+03  0.7818608E-02  0.1150387E+00
         21   -1    0    0  501  502  0.00000000000E+00  0.00000000000E+00  0.43768221744E+03  0.43768221744E+03  0.00000000000E+00 0.  1.
         21   -1    0    0  502  503 -0.00000000000E+00 -0.00000000000E+00 -0.95491761722E+02  0.95491761722E+02  0.00000000000E+00 0.  1.
         -6    2    1    2    0  503  0.10171229331E+03  0.65235634077E+00  0.11007601850E+03  0.22789733978E+03  0.17168183203E+03 0.  0.
        -24    2    3    3    0    0 -0.11592364388E+02 -0.34140469429E+02  0.41043178919E+02  0.90652634517E+02  0.72342263194E+02 0.  0.
          6    2    1    2  501    0 -0.10171229331E+03 -0.65235634077E+00  0.23211443722E+03  0.30527663939E+03  0.17020839700E+03 0.  0.
         24    2    5    5    0    0 -0.78698656641E+02  0.51798278757E+01  0.25090574723E+03  0.27463605882E+03  0.79063023187E+02 0.  0.
          5    1    5    5  501    0 -0.23013636670E+02 -0.58321842165E+01 -0.18791310013E+02  0.30640580568E+02  0.47000000000E+01 0. -1.
        -13    1    6    6    0    0 -0.82383368973E+02  0.10562376654E+02  0.13470944478E+03  0.15825680964E+03  0.00000000000E+00 0.  1.
         14    1    6    6    0    0  0.36847123314E+01 -0.53825487784E+01  0.11619630245E+03  0.11637924918E+03  0.00000000000E+00 0. -1.
         -5    1    3    3    0  503  0.11330465770E+03  0.34792825770E+02  0.69032839583E+02  0.13724470526E+03  0.47000000000E+01 0.  1.
         13    1    4    4    0    0  0.49454500444E+01 -0.12583568732E+01  0.51999935180E+02  0.52249729156E+02  0.00000000000E+00 0. -1.
        -14    1    4    4    0    0 -0.16537814432E+02 -0.32882112556E+02 -0.10956756261E+02  0.38402905360E+02  0.00000000000E+00 0.  1.
</event>
<event>
12    1  0.8331241E-002  0.1980813E+03  0.7818608E-02  0.1152407E+00
         21   -1    0    0  501  502  0.00000000000E+00  0.00000000000E+00  0.84268438104E+02  0.84268438104E+02  0.00000000000E+00 0.  1.
         21   -1    0    0  502  503 -0.00000000000E+00 -0.00000000000E+00 -0.54839673645E+03  0.54839673645E+03  0.00000000000E+00 0. -1.
         -6    2    1    2    0  503 -0.32503012580E+02  0.89190613248E+02 -0.36538707121E+03  0.41562470399E+03  0.17385272917E+03 0.  0.
        -24    2    3    3    0    0 -0.43695752519E+02 -0.92900913035E+01 -0.13859609132E+03  0.16807679922E+03  0.83936340889E+02 0.  0.
          6    2    1    2  501    0  0.32503012580E+02 -0.89190613248E+02 -0.98741227137E+02  0.21704047057E+03  0.16836069793E+03 0.  0.
         24    2    5    5    0    0  0.22594016078E+02 -0.85083195007E+02 -0.12381762479E+01  0.11883663139E+03  0.79818370346E+02 0.  0.
          5    1    5    5  501    0  0.99089965020E+01 -0.41074182415E+01 -0.97503050889E+02  0.98203839176E+02  0.47000000000E+01 0. -1.
        -13    1    6    6    0    0  0.37426877193E+02 -0.87148121665E+02 -0.17807667862E+02  0.96502224227E+02  0.00000000000E+00 0.  1.
         14    1    6    6    0    0 -0.14832861116E+02  0.20649266581E+01  0.16569491614E+02  0.22334407163E+02  0.00000000000E+00 0. -1.
         -5    1    3    3    0  503  0.11192739940E+02  0.98480704552E+02 -0.22679097988E+03  0.24754790476E+03  0.47000000000E+01 0.  1.
         11    1    4    4    0    0 -0.36402956260E+02  0.33739083917E+02 -0.89856326728E+02  0.10265310741E+03  0.00000000000E+00 0. -1.
        -12    1    4    4    0    0 -0.72927962596E+01 -0.43029175220E+02 -0.48739764597E+02  0.65423691812E+02  0.00000000000E+00 0.  1.
</event>
<event>
12    1  0.8331241E-002  0.1782560E+03  0.7818608E-02  0.1169550E+00
         21   -1    0    0  501  502  0.00000000000E+00  0.00000000000E+00  0.47451456979E+03  0.47451456979E+03  0.00000000000E+00 0.  1.
         21   -1    0    0  502  503 -0.00000000000E+00 -0.00000000000E+00 -0.69109584100E+02  0.69109584100E+02  0.00000000000E+00 0.  1.
         -6    2    1    2    0  503  0.38937171536E+02  0.22110412904E+02  0.25131168824E+03  0.30799740754E+03  0.17233648691E+03 0.  0.
        -24    2    3    3    0    0  0.18053002922E+02 -0.41717077051E+02  0.19804816928E+03  0.22215342450E+03  0.89793325082E+02 0.  0.
          6    2    1    2  501    0 -0.38937171536E+02 -0.22110412904E+02  0.15409329745E+03  0.23562674635E+03  0.17254056216E+03 0.  0.
         24    2    5    5    0    0 -0.56723352008E+02 -0.43807150476E+02  0.34975357714E+02  0.11315932127E+03  0.80281699335E+02 0.  0.
          5    1    5    5  501    0  0.17786180473E+02  0.21696737572E+02  0.11911793974E+03  0.12246742507E+03  0.47000000000E+01 0. -1.
        -13    1    6    6    0    0 -0.72831637844E+01 -0.56182042924E+02  0.18659404919E+02  0.59645953876E+02  0.00000000000E+00 0.  1.
         14    1    6    6    0    0 -0.49440188224E+02  0.12374892448E+02  0.16315952795E+02  0.53513367399E+02  0.00000000000E+00 0. -1.
         -5    1    3    3    0  503  0.20884168614E+02  0.63827489955E+02  0.53263518960E+02  0.85843983042E+02  0.47000000000E+01 0.  1.
         13    1    4    4    0    0 -0.23668670431E+02 -0.22499597326E+02  0.20042153895E+02  0.38316129405E+02  0.00000000000E+00 0. -1.
        -14    1    4    4    0    0  0.41721673353E+02 -0.19217479724E+02  0.17800601538E+03  0.18383729509E+03  0.00000000000E+00 0.  1.
</event>
<event>
12    1  0.8331241E-002  0.2443849E+03  0.7818608E-02  0.1116985E+00
         21   -1    0    0  503  502  0.00000000000E+00  0.00000000000E+00  0.62131617398E+03  0.62131617398E+03  0.00000000000E+00 0. -1.
         21   -1    0    0  501  503 -0.00000000000E+00 -0.00000000000E+00 -0.14485977746E+03  0.14485977746E+03  0.00000000000E+00 0.  1.
          6    2    1    2  501    0 -0.45233905914E+02  0.16734717463E+03  0.15436414205E+02  0.24438731090E+03  0.17156832967E+03 0.  0.
         24    2    3    3    0    0 -0.11747994953E+02  0.13033351218E+03  0.71707669731E+02  0.16902245411E+03  0.79383627484E+02 0.  0.
         -6    2    1    2    0  502  0.45233905914E+02 -0.16734717463E+03  0.46101998232E+03  0.52178864055E+03  0.17225788286E+03 0.  0.
        -24    2    5    5    0    0  0.22670902051E+02 -0.37462474416E+02  0.89066651155E+02  0.12713626813E+03  0.79456626762E+02 0.  0.
          5    1    3    3  501    0 -0.33485910961E+02  0.37013662448E+02 -0.56271255526E+02  0.75364856791E+02  0.47000000000E+01 0. -1.
        -11    1    4    4    0    0 -0.39509596586E+02  0.48758593349E+02  0.11244205043E+02  0.63756103981E+02  0.00000000000E+00 0.  1.
         12    1    4    4    0    0  0.27761601633E+02  0.81574918830E+02  0.60463464688E+02  0.10526635013E+03  0.00000000000E+00 0. -1.
         -5    1    5    5    0  502  0.22563003862E+02 -0.12988470021E+03  0.37195333116E+03  0.39465237242E+03  0.47000000000E+01 0.  1.
         13    1    6    6    0    0  0.11852874561E+02 -0.38250560248E+02  0.10239801570E+03  0.10994975950E+03  0.00000000000E+00 0. -1.
        -14    1    6    6    0    0  0.10818027490E+02  0.78808583197E+00 -0.13331364547E+02  0.17186508626E+02  0.00000000000E+00 0.  1.
</event>
<event>
12    1  0.8331241E-002  0.1967574E+03  0.7818608E-02  0.1152721E+00
         21   -1    0    0  501  502  0.00000000000E+00  0.00000000000E+00  0.27568627340E+02  0.27568627340E+02  0.00000000000E+00 0.  1.
         21   -1    0    0  502  503 -0.00000000000E+00 -0.00000000000E+00 -0.14558021211E+04  0.14558021211E+04  0.00000000000E+00 0.  1.
         -6    2    1    2    0  503 -0.20665418558E+02  0.93494097982E+02 -0.56694587418E+03  0.60011756028E+03  0.17188733524E+03 0.  0.
        -24    2    3    3    0    0 -0.37315900577E+02  0.84114255177E+02 -0.56802935017E+03  0.58040756477E+03  0.75815000043E+02 0.  0.
          6    2    1    2  501    0  0.20665418558E+02 -0.93494097982E+02 -0.86128761963E+03  0.88325318821E+03  0.17073846926E+03 0.  0.
         24    2    5    5    0    0  0.33841451185E+01 -0.93002472702E+02 -0.85574846719E+03  0.86450068660E+03  0.79969279496E+02 0.  0.
          5    1    5    5  501    0  0.17281273439E+02 -0.49162528035E+00 -0.55391524360E+01  0.18752501615E+02  0.47000000000E+01 0. -1.
        -13    1    6    6    0    0  0.36446838220E+02 -0.33029287618E+02 -0.24233715976E+03  0.24727839546E+03  0.00000000000E+00 0.  1.
         14    1    6    6    0    0 -0.33062693102E+02 -0.59973185084E+02 -0.61341130743E+03  0.61722229114E+03  0.00000000000E+00 0. -1.
         -5    1    3    3    0  503  0.16650482019E+02  0.93798428051E+01  0.10834759868E+01  0.19709995503E+02  0.47000000000E+01 0.  1.
         13    1    4    4    0    0 -0.43465900054E+01  0.55004889140E+02 -0.46663011121E+03  0.46988093318E+03  0.00000000000E+00 0. -1.
        -14    1    4    4    0    0 -0.32969310572E+02  0.29109366037E+02 -0.10139923896E+03  0.11052663160E+03  0.00000000000E+00 0.  1.
</event>
<event>
12    1  0.8331241E-002  0.1929156E+03  0.7818608E-02  0.1157208E+00
         21   -1    0    0  501  502  0.00000000000E+00  0.00000000000E+00  0.61672084599E+02  0.61672084599E+02  0.00000000000E+00 0.  1.
         21   -1    0    0  502  503 -0.00000000000E+00 -0.00000000000E+00 -0.81704993804E+03  0.81704993804E+03  0.00000000000E+00 0. -1.
         -6    2    1    2    0  503 -0.86520787594E+02  0.28441439297E+01 -0.14774407522E+03  0.24299123964E+03  0.17240213148E+03 0.  0.
        -24    2    3    3    0    0 -0.51007249205E+02  0.47123458663E+02 -0.15287234854E+03  0.18580506728E+03  0.79568889962E+02 0.  0.
          6    2    1    2  501    0  0.86520787594E+02 -0.28441439297E+01 -0.60763377823E+03  0.63573078300E+03  0.16565290270E+03 0.  0.
         24    2    5    5    0    0  0.75536419558E+02 -0.55656181998E+02 -0.49608515465E+03  0.51173500433E+03  0.83479774318E+02 0.  0.
          5    1    5    5  501    0  0.10984368036E+02  0.52812038068E+02 -0.11154862358E+03  0.12399577868E+03  0.47000000000E+01 0. -1.
        -11    1    6    6    0    0 -0.11490187682E+02  0.52343267655E+01 -0.12831072491E+03  0.12893046466E+03  0.00000000000E+00 0.  1.
         12    1    6    6    0    0  0.87026607241E+02 -0.60890508763E+02 -0.36777442973E+03  0.38280453967E+03  0.00000000000E+00 0. -1.
         -5    1    3    3    0  503 -0.35513538389E+02 -0.44279314734E+02  0.51282733243E+01  0.57186172363E+02  0.47000000000E+01 0.  1.
         11    1    4    4    0    0 -0.69511002113E+02  0.20761185519E+02 -0.11631057755E+03  0.13708011048E+03  0.00000000000E+00 0. -1.
        -12    1    4    4    0    0  0.18503752908E+02  0.26362273144E+02 -0.36561770988E+02  0.48724956796E+02  0.00000000000E+00 0.  1.
</event>
<event>
12    1  0.8331241E-002  0.1929106E+03  0.7818608E-02  0.1156207E+00
         21   -1    0    0  501  502  0.00000000000E+00  0.00000000000E+00  0.14575841314E+03  0.14575841314E+03  0.00000000000E+00 0. -1.
         21   -1    0    0  502  503 -0.00000000000E+00 -0.00000000000E+00 -0.28559756503E+03  0.28559756503E+03  0.00000000000E+00 0. -1.
         -6    2    1    2    0  503 -0.18850498713E+01  0.84437437654E+02 -0.14223517561E+03  0.23843054277E+03  0.17171209700E+03 0.  0.
        -24    2    3    3    0    0  0.22500403822E+02 -0.86052789408E+01 -0.10745984523E+03  0.13604396618E+03  0.79875048661E+02 0.  0.
          6    2    1    2  501    0  0.18850498713E+01 -0.84437437654E+02  0.23960237206E+01  0.19292543540E+03  0.17343946611E+03 0.  0.
         24    2    5    5    0    0 -0.79243776330E+01 -0.89062865371E+02 -0.56966494195E+02  0.13239760723E+03  0.79302933057E+02 0.  0.
          5    1    5    5  501    0  0.98094275042E+01  0.46254277167E+01  0.59362517916E+02  0.60527828169E+02  0.47000000000E+01 0. -1.
        -13    1    6    6    0    0  0.26453650486E+02 -0.73688879902E+02 -0.22790780222E+02  0.81543033476E+02  0.00000000000E+00 0.  1.
         14    1    6    6    0    0 -0.34378028119E+02 -0.15373985469E+02 -0.34175713973E+02  0.50854573758E+02  0.00000000000E+00 0. -1.
         -5    1    3    3    0  503 -0.24385453693E+02  0.93042716595E+02 -0.34775330375E+02  0.10238657659E+03  0.47000000000E+01 0.  1.
         13    1    4    4    0    0 -0.21619882851E+02 -0.23912194180E+02 -0.66601829145E+02  0.73993351123E+02  0.00000000000E+00 0. -1.
        -14    1    4    4    0    0  0.44120286673E+02  0.15306915239E+02 -0.40858016089E+02  0.62050615057E+02  0.00000000000E+00 0.  1.
</event>
<event>
12    1  0.8331241E-002  0.2615303E+03  0.7818608E-02  0.1106272E+00
         21   -1    0    0  503  502  0.00000000000E+00  0.00000000000E+00  0.25802261266E+03  0.25802261266E+03  0.00000000000E+00 0. -1.
         21   -1    0    0  501  503 -0.00000000000E+00 -0.00000000000E+00 -0.26523184148E+03  0.26523184148E+03  0.00000000000E+00 0. -1.
          6    2    1    2  501    0  0.14012153566E+03  0.13308405195E+03  0.71510358935E+01  0.26162806813E+03  0.17621776039E+03 0.  0.
         24    2    3    3    0    0  0.25218678538E+02  0.35873132252E+01 -0.21794846426E+02  0.86037561496E+02  0.79237592682E+02 0.  0.
         -6    2    1    2    0  502 -0.14012153566E+03 -0.13308405195E+03 -0.14360264717E+02  0.26162638601E+03  0.17577468252E+03 0.  0.
        -24    2    5    5    0    0 -0.81537613127E+02 -0.14433879153E+03  0.29566827225E+02  0.18739415212E+03  0.82221054986E+02 0.  0.
          5    1    3    3  501    0  0.11490285712E+03  0.12949673873E+03  0.28945882320E+02  0.17559050663E+03  0.47000000000E+01 0. -1.
        -13    1    4    4    0    0  0.11112927469E+02  0.40937299973E+02 -0.49575741550E+01  0.42707578104E+02  0.00000000000E+00 0.  1.
         14    1    4    4    0    0  0.14105751069E+02 -0.37349986747E+02 -0.16837272271E+02  0.43329983392E+02  0.00000000000E+00 0. -1.
         -5    1    5    5    0  502 -0.58583922534E+02  0.11254739573E+02 -0.43927091941E+02  0.74232233893E+02  0.47000000000E+01 0.  1.
         13    1    6    6    0    0 -0.33210624711E+02 -0.25027665763E+01 -0.48316003557E+01  0.33653436619E+02  0.00000000000E+00 0. -1.
        -14    1    6    6    0    0 -0.48326988416E+02 -0.14183602495E+03  0.34398427581E+02  0.15374071550E+03  0.00000000000E+00 0.  1.
</event>
<event>
12    1  0.8331241E-002  0.1872332E+03  0.7818608E-02  0.1161466E+00
         21   -1    0    0  501  502  0.00000000000E+00  0.00000000000E+00  0.16336303719E+03  0.16336303719E+03  0.00000000000E+00 0. -1.
         21   -1    0    0  502  503 -0.00000000000E+00 -0.00000000000E+00 -0.88319216648E+03  0.88319216648E+03  0.00000000000E+00 0. -1.
         -6    2    1    2    0  503 -0.69481001480E+02 -0.17323648661E+01 -0.81553121343E+03  0.83628117590E+03  0.17159380651E+03 0.  0.
        -24    2    3    3    0    0 -0.27741670375E+02  0.30324730609E+02 -0.73229879496E+03  0.73769337435E+03  0.78998733465E+02 0.  0.
          6    2    1    2  501    0  0.69481001480E+02  0.17323648661E+01  0.95702084145E+02  0.21027402777E+03  0.17385530533E+03 0.  0.
         24    2    5    5    0    0 -0.24175729702E+02 -0.27494576167E+02  0.35470431887E+02  0.95053633257E+02  0.80228573662E+02 0.  0.
          5    1    5    5  501    0  0.93656731182E+02  0.29226941033E+02  0.60231652258E+02  0.11522039451E+03  0.47000000000E+01 0. -1.
        -11    1    6    6    0    0  0.38266654822E+01 -0.44252551092E+02 -0.31050575311E+01  0.44526093800E+02  0.00000000000E+00 0.  1.
         12    1    6    6    0    0 -0.28002395185E+02  0.16757974925E+02  0.38575489418E+02  0.50527539456E+02  0.00000000000E+00 0. -1.
         -5    1    3    3    0  503 -0.41739331105E+02 -0.32057095476E+02 -0.83232418471E+02  0.98587801558E+02  0.47000000000E+01 0.  1.
         13    1    4    4    0    0 -0.49203219466E+02  0.39778972291E+02 -0.60052733069E+03  0.60385130483E+03  0.00000000000E+00 0. -1.
        -14    1    4    4    0    0  0.21461549092E+02 -0.94542416811E+01 -0.13177146427E+03  0.13384206952E+03  0.00000000000E+00 0.  1.
</event>
<event>
12    1  0.8331241E-002  0.1858038E+03  0.7818608E-02  0.1163301E+00
         21   -1    0    0  503  502  0.00000000000E+00  0.00000000000E+00  0.19893925588E+02  0.19893925588E+02  0.00000000000E+00 0. -1.
         21   -1    0    0  501  503 -0.00000000000E+00 -0.00000000000E+00 -0.17692392687E+04  0.17692392687E+04  0.00000000000E+00 0. -1.
          6    2    1    2  501    0 -0.49044695122E+02 -0.23968988600E+02 -0.10665696832E+04  0.10826328679E+04  0.17760389321E+03 0.  0.
         24    2    3    3    0    0  0.24446287314E+02  0.19191285722E+02 -0.27560044396E+03  0.28707132956E+03  0.74083852033E+02 0.  0.
         -6    2    1    2    0  502  0.49044695122E+02  0.23968988600E+02 -0.68277565989E+03  0.70650032642E+03  0.17314795684E+03 0.  0.
        -24    2    5    5    0    0 -0.39965137062E+02  0.15152407447E+02 -0.37330174697E+03  0.38432541258E+03  0.80777601063E+02 0.  0.
          5    1    3    3  501    0 -0.73490982436E+02 -0.43160274323E+02 -0.79096923927E+03  0.79556153832E+03  0.47000000000E+01 0. -1.
        -11    1    4    4    0    0 -0.24162710875E+01  0.17126338804E+02 -0.97412235904E+01  0.19850473139E+02  0.00000000000E+00 0.  1.
         12    1    4    4    0    0  0.26862558401E+02  0.20649469180E+01 -0.26585922037E+03  0.26722085642E+03  0.00000000000E+00 0. -1.
         -5    1    5    5    0  502  0.89009832185E+02  0.88165811532E+01 -0.30947391292E+03  0.32217491384E+03  0.47000000000E+01 0.  1.
         13    1    6    6    0    0  0.19018021261E+02  0.22751335961E+02 -0.87074159953E+02  0.91984877845E+02  0.00000000000E+00 0. -1.
        -14    1    6    6    0    0 -0.58983158324E+02 -0.75989285143E+01 -0.28622758701E+03  0.29234053473E+03  0.00000000000E+00 0.  1.
</event>
<event>
12    1  0.8331241E-002  0.2152047E+03  0.7818608E-02  0.1138071E+00
         21   -1    0    0  503  502  0.00000000000E+00  0.00000000000E+00  0.28033503548E+03  0.28033503548E+03  0.00000000000E+00 0.  1.
         21   -1    0    0  501  503 -0.00000000000E+00 -0.00000000000E+00 -0.23098558708E+03  0.23098558708E+03  0.00000000000E+00 0.  1.
          6    2    1    2  501    0 -0.12098541495E+03 -0.18300899657E+02 -0.11416025817E+03  0.24104578260E+03  0.17348807223E+03 0.  0.
         24    2    3    3    0    0 -0.13463353856E+03  0.24574609010E+02 -0.11560952434E+03  0.19578243215E+03  0.78962633610E+02 0.  0.
         -6    2    1    2    0  502  0.12098541495E+03  0.18300899657E+02  0.16350970657E+03  0.27027483996E+03  0.17703296703E+03 0.  0.
        -24    2    5    5    0    0  0.58248250798E+02  0.26108538502E+02  0.87647564366E+01  0.10304744813E+03  0.80420402300E+02 0.  0.
          5    1    3    3  501    0  0.13648123613E+02 -0.42875508667E+02  0.14492661762E+01  0.45263350451E+02  0.47000000000E+01 0. -1.
        -13    1    4    4    0    0 -0.12447429406E+03  0.22588385339E+01 -0.67095045403E+02  0.14142382172E+03  0.00000000000E+00 0.  1.
         14    1    4    4    0    0 -0.10159244501E+02  0.22315770476E+02 -0.48514478942E+02  0.54358610429E+02  0.00000000000E+00 0. -1.
         -5    1    5    5    0  502  0.62737164147E+02 -0.78076388450E+01  0.15474495013E+03  0.16722739184E+03  0.47000000000E+01 0.  1.
         11    1    6    6    0    0  0.22254581496E+02  0.52578470597E+02  0.11667858249E+02  0.58274358719E+02  0.00000000000E+00 0. -1.
        -12    1    6    6    0    0  0.35993669302E+02 -0.26469932095E+02 -0.29031018126E+01  0.44773089407E+02  0.00000000000E+00 0.  1.
</event>
<event>
12    1  0.8331241E-002  0.1889083E+03  0.7818608E-02  0.1159941E+00
         21   -1    0    0  503  502  0.00000000000E+00  0.00000000000E+00  0.80332011515E+03  0.80332011515E+03  0.00000000000E+00 0. -1.
         21   -1    0    0  501  503 -0.00000000000E+00 -0.00000000000E+00 -0.53346599159E+02  0.53346599159E+02  0.00000000000E+00 0. -1.
          6    2    1    2  501    0  0.63188577757E+02  0.40542706794E+02  0.19669831634E+03  0.27272068801E+03  0.17334889265E+03 0.  0.
         24    2    3    3    0    0 -0.22755862981E+02 -0.30378050372E-02  0.51568737199E+02  0.99183691832E+02  0.81610298124E+02 0.  0.
         -6    2    1    2    0  502 -0.63188577757E+02 -0.40542706794E+02  0.55327519965E+03  0.58394602630E+03  0.17100587024E+03 0.  0.
        -24    2    5    5    0    0 -0.59326935816E+02 -0.93497411736E+02  0.38420398287E+03  0.40667143874E+03  0.74212581930E+02 0.  0.
          5    1    3    3  501    0  0.85944440738E+02  0.40545744599E+02  0.14512957914E+03  0.17353699617E+03  0.47000000000E+01 0. -1.
        -11    1    4    4    0    0 -0.20632108102E+02  0.13710068275E+01  0.73885322544E+02  0.76724210207E+02  0.00000000000E+00 0.  1.
         12    1    4    4    0    0 -0.21237548789E+01 -0.13740446325E+01 -0.22316585344E+02  0.22459481625E+02  0.00000000000E+00 0. -1.
         -5    1    5    5    0  502 -0.38616419412E+01  0.52954704942E+02  0.16907121678E+03  0.17727458756E+03  0.47000000000E+01 0.  1.
         11    1    6    6    0    0 -0.59694429203E+02 -0.29053403209E+02  0.15592532523E+03  0.16947044629E+03  0.00000000000E+00 0. -1.
        -12    1    6    6    0    0  0.36749338741E+00 -0.64444008527E+02  0.22827865764E+03  0.23720099245E+03  0.00000000000E+00 0.  1.
</event>
<event>
12    1  0.8331241E-002  0.2109017E+03  0.7818608E-02  0.1141215E+00
         21   -1    0    0  501  502  0.00000000000E+00  0.00000000000E+00  0.19873814716E+03  0.19873814716E+03  0.00000000000E+00 0. -1.
         21   -1    0    0  502  503 -0.00000000000E+00 -0.00000000000E+00 -0.22315335456E+03  0.22315335456E+03  0.00000000000E+00 0. -1.
         -6    2    1    2    0  503  0.49760326973E+02 -0.10680562555E+03 -0.28097875565E+02  0.21095762971E+03  0.17271392281E+03 0.  0.
        -24    2    3    3    0    0  0.78532119219E+01 -0.11795402716E+03 -0.61776471191E+02  0.15585018054E+03  0.80610923092E+02 0.  0.
          6    2    1    2  501    0 -0.49760326973E+02  0.10680562555E+03  0.36826681569E+01  0.21093387201E+03  0.17491713617E+03 0.  0.
         24    2    5    5    0    0  0.31804601548E+02  0.91717223578E+02  0.33285110234E+02  0.12273584473E+03  0.67324640647E+02 0.  0.
          5    1    5    5  501    0 -0.81564928521E+02  0.15088401973E+02 -0.29602442077E+02  0.88198027278E+02  0.47000000000E+01 0. -1.
        -13    1    6    6    0    0  0.15728151782E+02 -0.76345567539E+01  0.54684212404E+01  0.18318429140E+02  0.00000000000E+00 0.  1.
         14    1    6    6    0    0  0.16076449766E+02  0.99351780332E+02  0.27816688993E+02  0.10441741559E+03  0.00000000000E+00 0. -1.
         -5    1    3    3    0  503  0.41907115051E+02  0.11148401608E+02  0.33678595626E+02  0.55107449167E+02  0.47000000000E+01 0.  1.
         13    1    4    4    0    0 -0.14161356501E+01 -0.91248296692E+02 -0.80707947301E+02  0.12182786975E+03  0.00000000000E+00 0. -1.
        -14    1    4    4    0    0  0.92693475720E+01 -0.26705730468E+02  0.18931476110E+02  0.34022310797E+02  0.00000000000E+00 0.  1.
</event>
<event>
12    1  0.8331241E-002  0.2096028E+03  0.7818608E-02  0.1142058E+00
         21   -1    0    0  503  502  0.00000000000E+00  0.00000000000E+00  0.85311734153E+02  0.85311734153E+02  0.00000000000E+00 0.  1.
         21   -1    0    0  501  503 -0.00000000000E+00 -0.00000000000E+00 -0.51706120593E+03  0.51706120593E+03  0.00000000000E+00 0.  1.
          6    2    1    2  501    0 -0.13017841306E+02  0.11906779381E+03 -0.18805550977E+03  0.28093853801E+03  0.17092391194E+03 0.  0.
         24    2    3    3    0    0  0.56649251436E+02  0.80087034271E+02 -0.92685432625E+02  0.15647751986E+03  0.79193143983E+02 0.  0.
         -6    2    1    2    0  502  0.13017841306E+02 -0.11906779381E+03 -0.24369396201E+03  0.32143440207E+03  0.17200791842E+03 0.  0.
        -24    2    5    5    0    0  0.12547825509E+02 -0.18025454114E+02 -0.18918187334E+03  0.20652820930E+03  0.79885888086E+02 0.  0.
          5    1    3    3  501    0 -0.69667092742E+02  0.38980759538E+02 -0.95370077143E+02  0.12446101815E+03  0.47000000000E+01 0. -1.
        -11    1    4    4    0    0  0.22787074152E+01  0.66773220007E+02 -0.67899556819E+02  0.95258622885E+02  0.00000000000E+00 0.  1.
         12    1    4    4    0    0  0.54370544021E+02  0.13313814264E+02 -0.24785875806E+02  0.61218896976E+02  0.00000000000E+00 0. -1.
         -5    1    5    5    0  502  0.47001579737E+00 -0.10104233970E+03 -0.54512088670E+02  0.11490619277E+03  0.47000000000E+01 0.  1.
         13    1    6    6    0    0  0.21664664806E+02  0.27665018031E+02 -0.98454475691E+02  0.10453704945E+03  0.00000000000E+00 0. -1.
        -14    1    6    6    0    0 -0.91168392976E+01 -0.45690472146E+02 -0.90727397647E+02  0.10199115985E+03  0.00000000000E+00 0.  1.
</event>
<event>
12    1  0.8331241E-002  0.2028727E+03  0.7818608E-02  0.1148087E+00
         21   -1    0    0  501  502  0.00000000000E+00  0.00000000000E+00  0.55702838356E+02  0.55702838356E+02  0.00000000000E+00 0.  1.
         21   -1    0    0  502  503 -0.00000000000E+00 -0.00000000000E+00 -0.75366031199E+03  0.75366031199E+03  0.00000000000E+00 0. -1.
         -6    2    1    2    0  503 -0.10133653217E+03  0.27435994240E+01 -0.27427104432E+03  0.34114794733E+03  0.17572904179E+03 0.  0.
        -24    2    3    3    0    0 -0.86618629591E+02 -0.23557403889E+02 -0.28471384016E+03  0.30890664747E+03  0.79395263104E+02 0.  0.
          6    2    1    2  501    0  0.10133653217E+03 -0.27435994240E+01 -0.42368642931E+03  0.46821520301E+03  0.17157699687E+03 0.  0.
         24    2    5    5    0    0  0.12745410538E+03 -0.25567758772E+02 -0.39356795596E+03  0.42203856046E+03  0.79514472208E+02 0.  0.
          5    1    5    5  501    0 -0.26117573206E+02  0.22824159348E+02 -0.30118473351E+02  0.46176642550E+02  0.47000000000E+01 0. -1.
        -13    1    6    6    0    0  0.31340324275E+02 -0.37481233001E+02 -0.78888546128E+02  0.92792572241E+02  0.00000000000E+00 0.  1.
         14    1    6    6    0    0  0.96113781104E+02  0.11913474229E+02 -0.31467940983E+03  0.32924598822E+03  0.00000000000E+00 0. -1.
         -5    1    3    3    0  503 -0.14717902581E+02  0.26301003313E+02  0.10442795842E+02  0.32241299860E+02  0.47000000000E+01 0.  1.
         11    1    4    4    0    0 -0.56331430266E+02  0.16363922912E+02 -0.21624259601E+03  0.22405773438E+03  0.00000000000E+00 0. -1.
        -12    1    4    4    0    0 -0.30287199326E+02 -0.39921326801E+02 -0.68471244155E+02  0.84848913091E+02  0.00000000000E+00 0.  1.
</event>
<event>
12    1  0.8331241E-002  0.2011301E+03  0.7818608E-02  0.1149014E+00
         21   -1    0    0  503  502  0.00000000000E+00  0.00000000000E+00  0.33254888295E+02  0.33254888295E+02  0.00000000000E+00 0.  1.
         21   -1    0    0  501  503 -0.00000000000E+00 -0.00000000000E+00 -0.14188209447E+04  0.14188209447E+04  0.00000000000E+00 0.  1.
          6    2    1    2  501    0 -0.96309184002E+02 -0.37495345589E+02 -0.97291140599E+03  0.99348372248E+03  0.17254548114E+03 0.  0.
         24    2    3    3    0    0 -0.10317628104E+03 -0.30082273499E+02 -0.43090897828E+03  0.45136673113E+03  0.80616935358E+02 0.  0.
         -6    2    1    2    0  502  0.96309184002E+02  0.37495345589E+02 -0.41265465037E+03  0.45859211047E+03  0.17129361766E+03 0.  0.
        -24    2    5    5    0    0  0.28952740258E+02  0.15722909654E+02 -0.36069280686E+03  0.37065433325E+03  0.78739207427E+02 0.  0.
          5    1    3    3  501    0  0.68670970343E+01 -0.74130720898E+01 -0.54200242772E+03  0.54211699135E+03  0.47000000000E+01 0. -1.
        -11    1    4    4    0    0 -0.67210625386E+02 -0.57897141326E+02 -0.27389898586E+03  0.28790623750E+03  0.00000000000E+00 0.  1.
         12    1    4    4    0    0 -0.35965655651E+02  0.27814867827E+02 -0.15700999242E+03  0.16346049363E+03  0.00000000000E+00 0. -1.
         -5    1    5    5    0  502  0.67356443744E+02  0.21772435935E+02 -0.51961843516E+02  0.87937777217E+02  0.47000000000E+01 0.  1.
         13    1    6    6    0    0  0.96402376270E+01  0.47236382983E+02 -0.21611116052E+03  0.22142322317E+03  0.00000000000E+00 0. -1.
        -14    1    6    6    0    0  0.19312502631E+02 -0.31513473328E+02 -0.14458164634E+03  0.14923111008E+03  0.00000000000E+00 0.  1.
</event>
<event>
12    1  0.8331241E-002  0.1853176E+03  0.7818608E-02  0.1164364E+00
         21   -1    0    0  503  502  0.00000000000E+00  0.00000000000E+00  0.16702394755E+02  0.16702394755E+02  0.00000000000E+00 0.  1.
         21   -1    0    0  501  503 -0.00000000000E+00 -0.00000000000E+00 -0.29494640444E+04  0.29494640444E+04  0.00000000000E+00 0.  1.
          6    2    1    2  501    0 -0.19091176218E+02 -0.46691786884E+02 -0.22974876886E+04  0.23044145044E+04  0.17126567947E+03 0.  0.
         24    2    3    3    0    0 -0.62924793599E+02 -0.74964434605E+02 -0.15573227041E+04  0.15623989905E+04  0.79103759152E+02 0.  0.
         -6    2    1    2    0  502  0.19091176218E+02  0.46691786884E+02 -0.63527396105E+03  0.66175193473E+03  0.17831999766E+03 0.  0.
        -24    2    5    5    0    0  0.67322424124E+02  0.68402877937E+02 -0.51660268718E+03  0.53174198900E+03  0.81608479705E+02 0.  0.
          5    1    3    3  501    0  0.43833617381E+02  0.28272647721E+02 -0.74016498452E+03  0.74201551394E+03  0.47000000000E+01 0. -1.
        -11    1    4    4    0    0 -0.46033785955E+02 -0.36947140138E+02 -0.13294710867E+04  0.13307808125E+04  0.00000000000E+00 0.  1.
         12    1    4    4    0    0 -0.16891007644E+02 -0.38017294467E+02 -0.22785161742E+03  0.23161817800E+03  0.00000000000E+00 0. -1.
         -5    1    5    5    0  502 -0.48231247906E+02 -0.21711091052E+02 -0.11867127387E+03  0.13000994574E+03  0.47000000000E+01 0.  1.
         11    1    6    6    0    0 -0.17642008834E+01 -0.16385195675E+02 -0.59877375652E+02  0.62103841725E+02  0.00000000000E+00 0. -1.
        -12    1    6    6    0    0  0.69086625007E+02  0.84788073611E+02 -0.45672531153E+03  0.46963814727E+03  0.00000000000E+00 0.  1.
</event>
<event>
12    1  0.8331241E-002  0.2260997E+03  0.7818608E-02  0.1129455E+00
         21   -1    0    0  501  502  0.00000000000E+00  0.00000000000E+00  0.88464713243E+02  0.88464713243E+02  0.00000000000E+00 0.  1.
         21   -1    0    0  502  503 -0.00000000000E+00 -0.00000000000E+00 -0.90764077867E+03  0.90764077867E+03  0.00000000000E+00 0. -1.
         -6    2    1    2    0  503  0.59241534290E+02  0.13435531554E+03 -0.70992740507E+03  0.74499526118E+03  0.17163947248E+03 0.  0.
        -24    2    3    3    0    0 -0.14038877594E+02  0.23827406205E+02 -0.18114381131E+03  0.19981582601E+03  0.79677152156E+02 0.  0.
          6    2    1    2  501    0 -0.59241534290E+02 -0.13435531554E+03 -0.10924866036E+03  0.25111023074E+03  0.17193070695E+03 0.  0.
         24    2    5    5    0    0 -0.98390575763E+02 -0.13501102229E+03 -0.10221747740E+03  0.21105271043E+03  0.78652096955E+02 0.  0.
          5    1    5    5  501    0  0.39149041473E+02  0.65570674519E+00 -0.70311829628E+01  0.40057520310E+02  0.47000000000E+01 0. -1.
        -13    1    6    6    0    0 -0.73531007953E+02 -0.69633843941E+02 -0.20207496400E+02  0.10326676263E+03  0.00000000000E+00 0.  1.
         14    1    6    6    0    0 -0.24859567810E+02 -0.65377178344E+02 -0.82009980998E+02  0.10778594780E+03  0.00000000000E+00 0. -1.
         -5    1    3    3    0  503  0.73280411885E+02  0.11052790934E+03 -0.52878359376E+03  0.54517943517E+03  0.47000000000E+01 0.  1.
         13    1    4    4    0    0  0.12905801199E+02 -0.77440583406E+01 -0.14189510232E+03  0.14269110066E+03  0.00000000000E+00 0. -1.
        -14    1    4    4    0    0 -0.26944678793E+02  0.31571464545E+02 -0.39248708992E+02  0.57124725350E+02  0.00000000000E+00 0.  1.
</event>
<event>
12    1  0.8331241E-002  0.1880491E+03  0.7818608E-02  0.1160649E+00
         21   -1    0    0  501  502  0.00000000000E+00  0.00000000000E+00  0.63873168669E+03  0.63873168669E+03  0.00000000000E+00 0.  1.
         21   -1    0    0  502  503 -0.00000000000E+00 -0.00000000000E+00 -0.59350021137E+02  0.59350021137E+02  0.00000000000E+00 0.  1.
         -6    2    1    2    0  503 -0.39240024319E+02 -0.60383953389E+02  0.19467565572E+03  0.27066779730E+03  0.17371368464E+03 0.  0.
        -24    2    3    3    0    0 -0.50765144141E+02 -0.10445238350E+03  0.12978478320E+03  0.19124632505E+03  0.79016875494E+02 0.  0.
          6    2    1    2  501    0  0.39240024319E+02  0.60383953389E+02  0.38470600983E+03  0.42741391052E+03  0.17174963048E+03 0.  0.
         24    2    5    5    0    0  0.70455184457E+02 -0.12791909505E+02  0.21644957459E+03  0.24123815718E+03  0.78853434759E+02 0.  0.
          5    1    5    5  501    0 -0.31215160138E+02  0.73175862893E+02  0.16825643524E+03  0.18617575334E+03  0.47000000000E+01 0. -1.
        -11    1    6    6    0    0  0.34214801689E+02  0.34969855287E+01  0.19095914474E+03  0.19403163794E+03  0.00000000000E+00 0.  1.
         12    1    6    6    0    0  0.36240382768E+02 -0.16288895033E+02  0.25490429850E+02  0.47206519237E+02  0.00000000000E+00 0. -1.
         -5    1    3    3    0  503  0.11525119822E+02  0.44068430116E+02  0.64890872514E+02  0.79421472256E+02  0.47000000000E+01 0.  1.
         13    1    4    4    0    0  0.75325108839E+01 -0.67601662410E+02  0.85615585794E+02  0.10934693417E+03  0.00000000000E+00 0. -1.
        -14    1    4    4    0    0 -0.58297655025E+02 -0.36850721094E+02  0.44169197410E+02  0.81899390879E+02  0.00000000000E+00 0.  1.
</event>
<event>
12    1  0.8331241E-002  0.1886930E+03  0.7818608E-02  0.1159704E+00
         21   -1    0    0  503  502  0.00000000000E+00  0.00000000000E+00  0.11081766275E+03  0.11081766275E+03  0.00000000000E+00 0.  1.
         21   -1    0    0  501  503 -0.00000000000E+00 -0.00000000000E+00 -0.32147487656E+03  0.32147487656E+03  0.00000000000E+00 0.  1.
          6    2    1    2  501    0 -0.59758176536E+02 -0.39975837936E+02 -0.95912812268E+02  0.21167029540E+03  0.17445898979E+03 0.  0.
         24    2    3    3    0    0  0.16281775164E+02 -0.60017868596E+02 -0.84534994404E+02  0.13207568512E+03  0.80190900771E+02 0.  0.
         -6    2    1    2    0  502  0.59758176536E+02  0.39975837936E+02 -0.11474440154E+03  0.22062224391E+03  0.17418033626E+03 0.  0.
        -24    2    5    5    0    0  0.31558429952E+02  0.88437350658E+02 -0.44294194682E+02  0.13046091312E+03  0.78999839732E+02 0.  0.
          5    1    3    3  501    0 -0.76039951700E+02  0.20042030660E+02 -0.11377817864E+02  0.79594610287E+02  0.47000000000E+01 0. -1.
        -11    1    4    4    0    0 -0.17098974518E+02  0.55159180735E+01 -0.45269820608E+02  0.48704793806E+02  0.00000000000E+00 0.  1.
         12    1    4    4    0    0  0.33380749681E+02 -0.65533786670E+02 -0.39265173796E+02  0.83370891310E+02  0.00000000000E+00 0. -1.
         -5    1    5    5    0  502  0.28199746584E+02 -0.48461512722E+02 -0.70450206859E+02  0.90161330786E+02  0.47000000000E+01 0.  1.
         13    1    6    6    0    0 -0.25824017174E+02  0.18041872681E+02 -0.69311758174E+01  0.32255700753E+02  0.00000000000E+00 0. -1.
        -14    1    6    6    0    0  0.57382447126E+02  0.70395477977E+02 -0.37363018865E+02  0.98205212369E+02  0.00000000000E+00 0.  1.
</event>
<event>
12    1  0.8331241E-002  0.1750652E+03  0.7818608E-02  0.1173536E+00
         21   -1    0    0  501  502  0.00000000000E+00  0.00000000000E+00  0.31483067212E+03  0.31483067212E+03  0.00000000000E+00 0. -1.
         21   -1    0    0  502  503 -0.00000000000E+00 -0.00000000000E+00 -0.15505849043E+03  0.15505849043E+03  0.00000000000E+00 0. -1.
         -6    2    1    2    0  503  0.16810638258E+01 -0.31075003782E+02 -0.66268544264E+02  0.18398319176E+03  0.16878925634E+03 0.  0.
        -24    2    3    3    0    0  0.21844867523E+02  0.52542532673E+02 -0.33575066385E+02  0.91845116691E+02  0.63799094042E+02 0.  0.
          6    2    1    2  501    0 -0.16810638258E+01  0.31075003782E+02  0.22604072596E+03  0.28590597079E+03  0.17227690648E+03 0.  0.
         24    2    5    5    0    0 -0.44752449684E+01  0.25995129813E+01  0.21407469370E+02  0.79228635974E+02  0.76105924396E+02 0.  0.
          5    1    5    5  501    0  0.27941811426E+01  0.28475490801E+02  0.20463325659E+03  0.20667733481E+03  0.47000000000E+01 0. -1.
        -13    1    6    6    0    0  0.24307359305E+02  0.14058070975E+01  0.38631967157E+02  0.45664569377E+02  0.00000000000E+00 0.  1.
         14    1    6    6    0    0 -0.28782604274E+02  0.11937058837E+01 -0.17224497787E+02  0.33564066597E+02  0.00000000000E+00 0. -1.
         -5    1    3    3    0  503 -0.20163803697E+02 -0.83617536455E+02 -0.32693477879E+02  0.92138075073E+02  0.47000000000E+01 0.  1.
         11    1    4    4    0    0  0.18908371476E+02  0.33796100550E+02 -0.52372867223E+02  0.65135398559E+02  0.00000000000E+00 0. -1.
        -12    1    4    4    0    0  0.29364960472E+01  0.18746432122E+02  0.18797800838E+02  0.26709718132E+02  0.00000000000E+00 0.  1.
</event>
<event>
12    1  0.8331241E-002  0.2169590E+03  0.7818608E-02  0.1136219E+00
         21   -1    0    0  503  502  0.00000000000E+00  0.00000000000E+00  0.53194890270E+03  0.53194890270E+03  0.00000000000E+00 0.  1.
         21   -1    0    0  501  503 -0.00000000000E+00 -0.00000000000E+00 -0.15307872885E+03  0.15307872885E+03  0.00000000000E+00 0.  1.
          6    2    1    2  501    0 -0.12815246435E+03 -0.31391436907E+02 -0.33293098480E+02  0.21924895918E+03  0.17191043966E+03 0.  0.
         24    2    3    3    0    0 -0.72183798731E+02 -0.94980018057E+01  0.48195056425E+02  0.11788711517E+03  0.79207926504E+02 0.  0.
         -6    2    1    2    0  502  0.12815246435E+03  0.31391436907E+02  0.41216327234E+03  0.46577867237E+03  0.17222872043E+03 0.  0.
        -24    2    5    5    0    0  0.10396606567E+03  0.38487070479E+02  0.14788459022E+03  0.20025910299E+03  0.77095128930E+02 0.  0.
          5    1    3    3  501    0 -0.55968665618E+02 -0.21893435101E+02 -0.81488154905E+02  0.10136184401E+03  0.47000000000E+01 0. -1.
        -13    1    4    4    0    0 -0.55894171799E+02 -0.22892969453E+02 -0.50559254597E+01  0.60611953225E+02  0.00000000000E+00 0.  1.
         14    1    4    4    0    0 -0.16289626931E+02  0.13394967647E+02  0.53250981884E+02  0.57275161942E+02  0.00000000000E+00 0. -1.
         -5    1    5    5    0  502  0.24186398683E+02 -0.70956335729E+01  0.26427868212E+03  0.26551956938E+03  0.47000000000E+01 0.  1.
         11    1    6    6    0    0  0.39965463062E+02  0.54734195422E+01  0.55165238725E+01  0.40713985250E+02  0.00000000000E+00 0. -1.
        -12    1    6    6    0    0  0.64000602603E+02  0.33013650937E+02  0.14236806634E+03  0.15954511774E+03  0.00000000000E+00 0.  1.
</event>
<event>
12    1  0.8331241E-002  0.2234883E+03  0.7818608E-02  0.1132087E+00
         21   -1    0    0  501  502  0.00000000000E+00  0.00000000000E+00  0.20707554675E+03  0.20707554675E+03  0.00000000000E+00 0.  1.
         21   -1    0    0  502  503 -0.00000000000E+00 -0.00000000000E+00 -0.23667683534E+03  0.23667683534E+03  0.00000000000E+00 0.  1.
         -6    2    1    2    0  503 -0.11619190994E+03 -0.70777623045E+02 -0.13354465700E+02  0.21967431113E+03  0.17195473054E+03 0.  0.
        -24    2    3    3    0    0 -0.32455192981E+01 -0.19418884161E+02  0.45904985913E+02  0.82093862574E+02  0.65149889356E+02 0.  0.
          6    2    1    2  501    0  0.11619190994E+03  0.70777623045E+02 -0.16246822885E+02  0.22407807096E+03  0.17730479625E+03 0.  0.
         24    2    5    5    0    0  0.12469993785E+03  0.10891210026E+03 -0.11762453216E+02  0.18446968217E+03  0.80490920303E+02 0.  0.
          5    1    5    5  501    0 -0.85080279107E+01 -0.38134477214E+02 -0.44843696687E+01  0.39608388791E+02  0.47000000000E+01 0. -1.
        -13    1    6    6    0    0  0.37358216536E+02  0.61032724322E+02  0.28514013052E+02  0.77030375316E+02  0.00000000000E+00 0.  1.
         14    1    6    6    0    0  0.87341721313E+02  0.47879375937E+02 -0.40276466268E+02  0.10743930685E+03  0.00000000000E+00 0. -1.
         -5    1    3    3    0  503 -0.11294639064E+03 -0.51358738884E+02 -0.59259451612E+02  0.13758044855E+03  0.47000000000E+01 0.  1.
         13    1    4    4    0    0 -0.34437303884E+01  0.19668816064E+02 -0.22240719184E+01  0.20091493231E+02  0.00000000000E+00 0. -1.
        -14    1    4    4    0    0  0.19821109031E+00 -0.39087700225E+02  0.48129057831E+02  0.62002369343E+02  0.00000000000E+00 0.  1.
</event>
<event>
12    1  0.8331241E-002  0.1891220E+03  0.7818608E-02  0.1163527E+00
         21   -1    0    0  501  502  0.00000000000E+00  0.00000000000E+00  0.43457751855E+03  0.43457751855E+03  0.00000000000E+00 0. -1.
         21   -1    0    0  502  503 -0.00000000000E+00 -0.00000000000E+00 -0.82628760974E+02  0.82628760974E+02  0.00000000000E+00 0. -1.
         -6    2    1    2    0  503 -0.69001830406E+01  0.13041539475E+02  0.24803014291E+03  0.30141424782E+03  0.17062796581E+03 0.  0.
        -24    2    3    3    0    0  0.35375413601E+02 -0.31481166382E+02  0.20909260582E+03  0.22856015251E+03  0.79230939542E+02 0.  0.
          6    2    1    2  501    0  0.69001830406E+01 -0.13041539475E+02  0.10391861466E+03  0.21579203171E+03  0.18854556000E+03 0.  0.
         24    2    5    5    0    0 -0.68676416755E+02 -0.33304174206E+02  0.61520613015E+02  0.12667369832E+03  0.80223573725E+02 0.  0.
          5    1    5    5  501    0  0.75576599796E+02  0.20262634731E+02  0.42398001646E+02  0.89118333392E+02  0.47000000000E+01 0. -1.
        -11    1    6    6    0    0 -0.47349460053E+02  0.12461169708E+02  0.58225893810E+02  0.76075665148E+02  0.00000000000E+00 0.  1.
         12    1    6    6    0    0 -0.21326956702E+02 -0.45765343914E+02  0.32947192054E+01  0.50598033167E+02  0.00000000000E+00 0. -1.
         -5    1    3    3    0  503 -0.42275596642E+02  0.44522705857E+02  0.38937537089E+02  0.72854095306E+02  0.47000000000E+01 0.  1.
         11    1    4    4    0    0 -0.25227268210E+02 -0.15461821789E+02  0.69850036311E+02  0.75858490408E+02  0.00000000000E+00 0. -1.
        -12    1    4    4    0    0  0.60602681811E+02 -0.16019344593E+02  0.13924256951E+03  0.15270166210E+03  0.00000000000E+00 0.  1.
</event>
<event>
12    1  0.8331241E-002  0.1938958E+03  0.7818608E-02  0.1155784E+00
         21   -1    0    0  501  502  0.00000000000E+00  0.00000000000E+00  0.14258229781E+03  0.14258229781E+03  0.00000000000E+00 0.  1.
         21   -1    0    0  502  503 -0.00000000000E+00 -0.00000000000E+00 -0.43861984263E+03  0.43861984263E+03  0.00000000000E+00 0.  1.
         -6    2    1    2    0  503  0.46196374322E+02 -0.69093019663E+02 -0.33486516481E+03  0.38694994352E+03  0.17517885096E+03 0.  0.
        -24    2    3    3    0    0  0.51188126724E+02 -0.80587591129E+02 -0.34751528557E+03  0.36853369199E+03  0.77043002698E+02 0.  0.
          6    2    1    2  501    0 -0.46196374322E+02  0.69093019663E+02  0.38827619990E+02  0.19425219691E+03  0.17122611239E+03 0.  0.
         24    2    5    5    0    0 -0.38427172959E+02 -0.26763404334E+02  0.11640725292E+02  0.94202050715E+02  0.80904835705E+02 0.  0.
          5    1    5    5  501    0 -0.77692013623E+01  0.95856423996E+02  0.27186894697E+02  0.10005014620E+03  0.47000000000E+01 0. -1.
        -13    1    6    6    0    0 -0.19936642042E+02  0.44348865757E+01  0.42131831119E+02  0.46821246334E+02  0.00000000000E+00 0.  1.
         14    1    6    6    0    0 -0.18490530917E+02 -0.31198290909E+02 -0.30491105827E+02  0.47380804381E+02  0.00000000000E+00 0. -1.
         -5    1    3    3    0  503 -0.49917524029E+01  0.11494571466E+02  0.12650120761E+02  0.18416251533E+02  0.47000000000E+01 0.  1.
         13    1    4    4    0    0 -0.86065315028E+01 -0.23599669931E+01 -0.18443381229E+01  0.91128158013E+01  0.00000000000E+00 0. -1.
        -14    1    4    4    0    0  0.59794658227E+02 -0.78227624136E+02 -0.34567094745E+03  0.35942087619E+03  0.00000000000E+00 0.  1.
</event>
<event>
12    1  0.8331241E-002  0.2009034E+03  0.7818608E-02  0.1149637E+00
         21   -1    0    0  501  502  0.00000000000E+00  0.00000000000E+00  0.14863153362E+04  0.14863153362E+04  0.00000000000E+00 0.  1.
         21   -1    0    0  502  503 -0.00000000000E+00 -0.00000000000E+00 -0.28640050249E+02  0.28640050249E+02  0.00000000000E+00 0. -1.
         -6    2    1    2    0  503  0.93781763530E+02 -0.45342255900E+02  0.53888999807E+03  0.57512138161E+03  0.17178834136E+03 0.  0.
        -24    2    3    3    0    0  0.55199840271E+02  0.31609259901E+02  0.19170058226E+03  0.21738868666E+03  0.80390050206E+02 0.  0.
          6    2    1    2  501    0 -0.93781763530E+02  0.45342255900E+02  0.91878528785E+03  0.93983400480E+03  0.16813866920E+03 0.  0.
         24    2    5    5    0    0 -0.65818459105E+02  0.26679353497E+02  0.88687519124E+03  0.89324436447E+03  0.79334937890E+02 0.  0.
          5    1    5    5  501    0 -0.27963304425E+02  0.18662902403E+02  0.31910096613E+02  0.46589640332E+02  0.47000000000E+01 0. -1.
        -13    1    6    6    0    0 -0.67493369647E+01  0.37563011267E+02  0.52800986749E+03  0.52938733790E+03  0.00000000000E+00 0.  1.
         14    1    6    6    0    0 -0.59069122140E+02 -0.10883657770E+02  0.35886532375E+03  0.36385702657E+03  0.00000000000E+00 0. -1.
         -5    1    3    3    0  503  0.38581923259E+02 -0.76951515801E+02  0.34718941581E+03  0.35773269495E+03  0.47000000000E+01 0.  1.
         13    1    4    4    0    0  0.65781752095E+02 -0.23120774518E+01  0.10829965435E+03  0.12673357781E+03  0.00000000000E+00 0. -1.
        -14    1    4    4    0    0 -0.10581911824E+02  0.33921337353E+02  0.83400927906E+02  0.90655108854E+02  0.00000000000E+00 0.  1.
</event>
<event>
12    1  0.8331241E-002  0.1796109E+03  0.7818608E-02  0.1168767E+00
         21   -1    0    0  501  502  0.00000000000E+00  0.00000000000E+00  0.57863014846E+02  0.57863014846E+02  0.00000000000E+00 0. -1.
         21   -1    0    0  502  503 -0.00000000000E+00 -0.00000000000E+00 -0.93942626202E+03  0.93942626202E+03  0.00000000000E+00 0.  1.
         -6    2    1    2    0  503  0.82646212934E+01 -0.48974175504E+02 -0.76352707772E+03  0.78436831800E+03  0.17260731744E+03 0.  0.
        -24    2    3    3    0    0  0.24053738320E+01  0.34764297577E+02 -0.29388261587E+03  0.30725777190E+03  0.82619636103E+02 0.  0.
          6    2    1    2  501    0 -0.82646212934E+01  0.48974175504E+02 -0.11803616945E+03  0.21292095886E+03  0.17010591875E+03 0.  0.
         24    2    5    5    0    0  0.45286920853E+02  0.58149132314E+02 -0.11705321480E+03  0.15837736439E+03  0.77134348161E+02 0.  0.
          5    1    5    5  501    0 -0.53551542146E+02 -0.91749568105E+01 -0.98295465168E+00  0.54543594478E+02  0.47000000000E+01 0. -1.
        -11    1    6    6    0    0 -0.14140968095E+02  0.30751210671E+02 -0.70076046721E+02  0.77821952304E+02  0.00000000000E+00 0.  1.
         12    1    6    6    0    0  0.59427888948E+02  0.27397921643E+02 -0.46977168075E+02  0.80555412081E+02  0.00000000000E+00 0. -1.
         -5    1    3    3    0  503  0.58592474614E+01 -0.83738473081E+02 -0.46964446185E+03  0.47711054610E+03  0.47000000000E+01 0.  1.
         13    1    4    4    0    0 -0.33238608291E+02  0.29767093435E+02 -0.92682369807E+02  0.10286353390E+03  0.00000000000E+00 0. -1.
        -14    1    4    4    0    0  0.35643982123E+02  0.49972041420E+01 -0.20120024607E+03  0.20439423800E+03  0.00000000000E+00 0.  1.
</event>
<event>
12    1  0.8331241E-002  0.1841288E+03  0.7818608E-02  0.1163917E+00
         21   -1    0    0  501  502  0.00000000000E+00  0.00000000000E+00  0.73025562868E+02  0.73025562868E+02  0.00000000000E+00 0.  1.
         21   -1    0    0  502  503 -0.00000000000E+00 -0.00000000000E+00 -0.56862537932E+03  0.56862537932E+03  0.00000000000E+00 0.  1.
         -6    2    1    2    0  503 -0.63325919608E+02  0.13026879154E+02 -0.38572257079E+03  0.42741704672E+03  0.17240521609E+03 0.  0.
        -24    2    3    3    0    0 -0.38483990349E+02  0.62037028619E+02 -0.14233015106E+03  0.17785527845E+03  0.77749712147E+02 0.  0.
          6    2    1    2  501    0  0.63325919608E+02 -0.13026879154E+02 -0.10987724566E+03  0.21423389546E+03  0.17217224276E+03 0.  0.
         24    2    5    5    0    0 -0.95145582018E+00  0.40151921802E+02 -0.20710865097E+02  0.92036107900E+02  0.80178694999E+02 0.  0.
          5    1    5    5  501    0  0.64277375428E+02 -0.53178800956E+02 -0.89166380562E+02  0.12219778756E+03  0.47000000000E+01 0. -1.
        -13    1    6    6    0    0  0.17443324575E+02  0.49315771158E+02 -0.38423598368E+02  0.64905221429E+02  0.00000000000E+00 0.  1.
         14    1    6    6    0    0 -0.18394780395E+02 -0.91638493566E+01  0.17712733270E+02  0.27130886472E+02  0.00000000000E+00 0. -1.
         -5    1    3    3    0  503 -0.24841929260E+02 -0.49010149464E+02 -0.24339241973E+03  0.24956176827E+03  0.47000000000E+01 0.  1.
         13    1    4    4    0    0 -0.53135984782E+02  0.11946638228E+02 -0.72540763229E+02  0.90710073165E+02  0.00000000000E+00 0. -1.
        -14    1    4    4    0    0  0.14651994434E+02  0.50090390391E+02 -0.69789387829E+02  0.87145205284E+02  0.00000000000E+00 0.  1.
</event>
<event>
12    1  0.8331241E-002  0.1944932E+03  0.7818608E-02  0.1154739E+00
         21   -1    0    0  501  502  0.00000000000E+00  0.00000000000E+00  0.27516810434E+03  0.27516810434E+03  0.00000000000E+00 0.  1.
         21   -1    0    0  502  503 -0.00000000000E+00 -0.00000000000E+00 -0.16934691150E+03  0.16934691150E+03  0.00000000000E+00 0.  1.
         -6    2    1    2    0  503 -0.46116760560E+02 -0.77728801194E+02  0.15077037143E+03  0.24608802126E+03  0.17221813831E+03 0.  0.
        -24    2    3    3    0    0 -0.51943765165E+02 -0.46349224219E+02  0.15404387214E+02  0.10693101813E+03  0.79690289049E+02 0.  0.
          6    2    1    2  501    0  0.46116760560E+02  0.77728801194E+02 -0.44949178595E+02  0.19842699457E+03  0.17083419265E+03 0.  0.
         24    2    5    5    0    0  0.24581027520E+02  0.98895937234E+01 -0.82720208453E+02  0.11771338628E+03  0.79446695616E+02 0.  0.
          5    1    5    5  501    0  0.21535733040E+02  0.67839207471E+02  0.37771029858E+02  0.80713608297E+02  0.47000000000E+01 0. -1.
        -11    1    6    6    0    0 -0.48935650392E+01  0.40469399263E+02 -0.47020104553E+02  0.62230293970E+02  0.00000000000E+00 0.  1.
         12    1    6    6    0    0  0.29474592559E+02 -0.30579805540E+02 -0.35700103900E+02  0.55483092306E+02  0.00000000000E+00 0. -1.
         -5    1    3    3    0  503  0.58270046053E+01 -0.31379576975E+02  0.13536598422E+03  0.13915700312E+03  0.47000000000E+01 0.  1.
         13    1    4    4    0    0 -0.25198704511E+02  0.19805548442E+02 -0.56247425650E+01  0.32540316333E+02  0.00000000000E+00 0. -1.
        -14    1    4    4    0    0 -0.26745060654E+02 -0.66154772661E+02  0.21029129779E+02  0.74390701802E+02  0.00000000000E+00 0.  1.
</event>
<event>
12    1  0.8331241E-002  0.2160291E+03  0.7818608E-02  0.1137036E+00
         21   -1    0    0  501  502  0.00000000000E+00  0.00000000000E+00  0.21439631182E+03  0.21439631182E+03  0.00000000000E+00 0. -1.
         21   -1    0    0  502  503 -0.00000000000E+00 -0.00000000000E+00 -0.27732957860E+03  0.27732957860E+03  0.00000000000E+00 0. -1.
         -6    2    1    2    0  503  0.96687538950E+02 -0.86837342445E+02  0.83397812922E+02  0.23080181505E+03  0.17153739650E+03 0.  0.
        -24    2    3    3    0    0  0.22842602613E+02 -0.79466035465E+02 -0.51480861304E+01  0.11517363065E+03  0.80011418681E+02 0.  0.
          6    2    1    2  501    0 -0.96687538950E+02  0.86837342445E+02 -0.14633107970E+03  0.26092407538E+03  0.17256704203E+03 0.  0.
         24    2    5    5    0    0  0.67469872676E+01 -0.24232524669E+01 -0.47098159457E+02  0.91999780268E+02  0.78704059333E+02 0.  0.
          5    1    5    5  501    0 -0.10343452622E+03  0.89260594911E+02 -0.99232920245E+02  0.16892429511E+03  0.47000000000E+01 0. -1.
        -11    1    6    6    0    0 -0.25458243778E+02  0.20063303376E+02 -0.24103230669E+01  0.32503353303E+02  0.00000000000E+00 0.  1.
         12    1    6    6    0    0  0.32205231046E+02 -0.22486555843E+02 -0.44687836390E+02  0.59496426965E+02  0.00000000000E+00 0. -1.
         -5    1    3    3    0  503  0.73844936337E+02 -0.73713069798E+01  0.88545899052E+02  0.11562818440E+03  0.47000000000E+01 0.  1.
         11    1    4    4    0    0 -0.26776580292E+02 -0.28221967653E+02  0.13953506725E+02  0.41329953548E+02  0.00000000000E+00 0. -1.
        -12    1    4    4    0    0  0.49619182906E+02 -0.51244067812E+02 -0.19101592855E+02  0.73843677101E+02  0.00000000000E+00 0.  1.
</event>
<event>
12    1  0.8331241E-002  0.1815258E+03  0.7818608E-02  0.1166384E+00
         21   -1    0    0  503  502  0.00000000000E+00  0.00000000000E+00  0.58191463559E+02  0.58191463559E+02  0.00000000000E+00 0. -1.
         21   -1    0    0  501  503 -0.00000000000E+00 -0.00000000000E+00 -0.74992145437E+03  0.74992145437E+03  0.00000000000E+00 0.  1.
          6    2    1    2  501    0  0.20927841126E+02 -0.54688697002E+02 -0.54602754411E+03  0.57534521830E+03  0.17160190320E+03 0.  0.
         24    2    3    3    0    0  0.43967780331E+01 -0.10095816980E+03 -0.35588422210E+03  0.37890002731E+03  0.81852107164E+02 0.  0.
         -6    2    1    2    0  502 -0.20927841126E+02  0.54688697002E+02 -0.14570244670E+03  0.23276769963E+03  0.17182191624E+03 0.  0.
        -24    2    5    5    0    0  0.35390308271E+02 -0.10383747484E+02 -0.34168986482E+02  0.91813949300E+02  0.76824381010E+02 0.  0.
          5    1    3    3  501    0  0.16531063093E+02  0.46269472796E+02 -0.19014332201E+03  0.19644519099E+03  0.47000000000E+01 0. -1.
        -13    1    4    4    0    0  0.39776370720E+02 -0.74178435482E+02 -0.20442901084E+03  0.22107876522E+03  0.00000000000E+00 0.  1.
         14    1    4    4    0    0 -0.35379592687E+02 -0.26779734316E+02 -0.15145521126E+03  0.15782126208E+03  0.00000000000E+00 0. -1.
         -5    1    5    5    0  502 -0.56318149397E+02  0.65072444486E+02 -0.11153346022E+03  0.14095375033E+03  0.47000000000E+01 0.  1.
         13    1    6    6    0    0 -0.19158073462E+02  0.14543228604E+02 -0.16922928476E+02  0.29409569619E+02  0.00000000000E+00 0. -1.
        -14    1    6    6    0    0  0.54548381733E+02 -0.24926976088E+02 -0.17246058006E+02  0.62404379681E+02  0.00000000000E+00 0.  1.
</event>
<event>
12    1  0.8331241E-002  0.1986074E+03  0.7818608E-02  0.1151132E+00
         21   -1    0    0  501  502  0.00000000000E+00  0.00000000000E+00  0.19202750668E+03  0.19202750668E+03  0.00000000000E+00 0.  1.
         21   -1    0    0  502  503 -0.00000000000E+00 -0.00000000000E+00 -0.21208574782E+03  0.21208574782E+03  0.00000000000E+00 0. -1.
         -6    2    1    2    0  503  0.51093729584E+02  0.83394331339E+02 -0.48507513031E+02  0.20347865128E+03  0.17171312997E+03 0.  0.
        -24    2    3    3    0    0 -0.31070082024E+02  0.75514549532E+02 -0.40480505199E+02  0.12041538771E+03  0.78698139171E+02 0.  0.
          6    2    1    2  501    0 -0.51093729584E+02 -0.83394331339E+02  0.28449271887E+02  0.20063460322E+03  0.17285745351E+03 0.  0.
         24    2    5    5    0    0 -0.67303318306E+02 -0.30272627254E+02 -0.39473607819E+02  0.11276951459E+03  0.75581936279E+02 0.  0.
          5    1    5    5  501    0  0.16209588721E+02 -0.53121704085E+02  0.67922879706E+02  0.87865088624E+02  0.47000000000E+01 0. -1.
        -13    1    6    6    0    0 -0.51547545121E+02 -0.54891300155E+02 -0.35576649382E+02  0.83282064227E+02  0.00000000000E+00 0.  1.
         14    1    6    6    0    0 -0.15755773185E+02  0.24618672901E+02 -0.38969584374E+01  0.29487450367E+02  0.00000000000E+00 0. -1.
         -5    1    3    3    0  503  0.82163811608E+02  0.78797818071E+01 -0.80270078326E+01  0.83063263565E+02  0.47000000000E+01 0.  1.
         11    1    4    4    0    0 -0.39021125597E+02  0.20805311050E+02 -0.47253714423E+02  0.64718024827E+02  0.00000000000E+00 0. -1.
        -12    1    4    4    0    0  0.79510435736E+01  0.54709238482E+02  0.67732092243E+01  0.55697362885E+02  0.00000000000E+00 0.  1.
</event>
<event>
12    1  0.8331241E-002  0.2006581E+03  0.7818608E-02  0.1149509E+00
         21   -1    0    0  503  502  0.00000000000E+00  0.00000000000E+00  0.92393397672E+03  0.92393397672E+03  0.00000000000E+00 0. -1.
         21   -1    0    0  501  503 -0.00000000000E+00 -0.00000000000E+00 -0.64903838546E+02  0.64903838546E+02  0.00000000000E+00 0.  1.
          6    2    1    2  501    0 -0.42031911774E+02  0.91090771554E+02  0.14281182502E+03  0.24504190995E+03  0.17200613361E+03 0.  0.
         24    2    3    3    0    0 -0.55009127021E+02  0.16124358957E+02  0.13527881750E+03  0.16844421198E+03  0.82383827763E+02 0.  0.
         -6    2    1    2    0  502  0.42031911774E+02 -0.91090771554E+02  0.71621831315E+03  0.74379590531E+03  0.17377993669E+03 0.  0.
        -24    2    5    5    0    0  0.63728432023E+02 -0.10191265560E+03  0.37415832824E+03  0.40084550738E+03  0.78963053236E+02 0.  0.
          5    1    3    3  501    0  0.12977215247E+02  0.74966412597E+02  0.75330075247E+01  0.76597697978E+02  0.47000000000E+01 0. -1.
        -11    1    4    4    0    0 -0.36802979506E+02  0.49867039115E+02  0.81068799510E+02  0.10204573065E+03  0.00000000000E+00 0.  1.
         12    1    4    4    0    0 -0.18206147515E+02 -0.33742680157E+02  0.54210017990E+02  0.66398481323E+02  0.00000000000E+00 0. -1.
         -5    1    5    5    0  502 -0.21696520249E+02  0.10821884041E+02  0.34205998490E+03  0.34295039793E+03  0.47000000000E+01 0.  1.
         13    1    6    6    0    0 -0.67688334296E+01 -0.62532685832E+02  0.15432424824E+03  0.16664971497E+03  0.00000000000E+00 0. -1.
        -14    1    6    6    0    0  0.70497265453E+02 -0.39379969764E+02  0.21983408000E+03  0.23419579242E+03  0.00000000000E+00 0.  1.
</event>
<event>
12    1  0.8331241E-002  0.1901774E+03  0.7818608E-02  0.1158534E+00
         21   -1    0    0  501  502  0.00000000000E+00  0.00000000000E+00  0.11013927248E+03  0.11013927248E+03  0.00000000000E+00 0.  1.
         21   -1    0    0  502  503 -0.00000000000E+00 -0.00000000000E+00 -0.33249208279E+03  0.33249208279E+03  0.00000000000E+00 0.  1.
         -6    2    1    2    0  503  0.62144698357E+02  0.49635266432E+02 -0.14032636893E+03  0.23551836184E+03  0.17161522583E+03 0.  0.
        -24    2    3    3    0    0  0.42384338889E+02  0.78305895070E+02 -0.36442491134E+02  0.12585329530E+03  0.81134156750E+02 0.  0.
          6    2    1    2  501    0 -0.62144698357E+02 -0.49635266432E+02 -0.82026441379E+02  0.20711299344E+03  0.17274788496E+03 0.  0.
         24    2    5    5    0    0 -0.23988957637E+02 -0.19177585174E+02  0.20909974655E+02  0.93088756354E+02  0.85352443772E+02 0.  0.
          5    1    5    5  501    0 -0.38155740720E+02 -0.30457681258E+02 -0.10293641603E+03  0.11402423709E+03  0.47000000000E+01 0. -1.
        -11    1    6    6    0    0  0.97225963829E+01 -0.46288433509E+02  0.82380946212E+01  0.48010563006E+02  0.00000000000E+00 0.  1.
         12    1    6    6    0    0 -0.33711554020E+02  0.27110848335E+02  0.12671880034E+02  0.45078193347E+02  0.00000000000E+00 0. -1.
         -5    1    3    3    0  503  0.19760359468E+02 -0.28670628638E+02 -0.10388387780E+03  0.10966506654E+03  0.47000000000E+01 0.  1.
         13    1    4    4    0    0  0.23854979171E+02  0.29900162799E+01  0.18891947902E+02  0.30576231359E+02  0.00000000000E+00 0. -1.
        -14    1    4    4    0    0  0.18529359718E+02  0.75315878790E+02 -0.55334439036E+02  0.95277063939E+02  0.00000000000E+00 0.  1.
</event>
<event>
12    1  0.8331241E-002  0.1771278E+03  0.7818608E-02  0.1171396E+00
         21   -1    0    0  503  502  0.00000000000E+00  0.00000000000E+00  0.88856073224E+03  0.88856073224E+03  0.00000000000E+00 0. -1.
         21   -1    0    0  501  503 -0.00000000000E+00 -0.00000000000E+00 -0.11592352972E+03  0.11592352972E+03  0.00000000000E+00 0. -1.
          6    2    1    2  501    0 -0.21265734974E+02 -0.17614719877E+02 -0.35154872482E+02  0.17750040234E+03  0.17177897989E+03 0.  0.
         24    2    3    3    0    0  0.17271267947E+02 -0.67588640315E+00  0.41074002770E+02  0.90294002942E+02  0.78531393371E+02 0.  0.
         -6    2    1    2    0  502  0.21265734974E+02  0.17614719877E+02  0.80779207500E+03  0.82698385962E+03  0.17496216106E+03 0.  0.
        -24    2    5    5    0    0  0.54272281072E+02 -0.24453775990E+02  0.28606471660E+03  0.30250248061E+03  0.78302369301E+02 0.  0.
          5    1    3    3  501    0 -0.38537002921E+02 -0.16938833474E+02 -0.76228875253E+02  0.87206399398E+02  0.47000000000E+01 0. -1.
        -13    1    4    4    0    0  0.78607760993E+01  0.30857708738E+02 -0.64488175647E+01  0.32489648158E+02  0.00000000000E+00 0.  1.
         14    1    4    4    0    0  0.94104918480E+01 -0.31533595141E+02  0.47522820335E+02  0.57804354784E+02  0.00000000000E+00 0. -1.
         -5    1    5    5    0  502 -0.33006546099E+02  0.42068495866E+02  0.52172735839E+03  0.52448137901E+03  0.47000000000E+01 0.  1.
         11    1    6    6    0    0  0.52833845150E+02  0.98759136699E+01  0.23420155188E+03  0.24029006589E+03  0.00000000000E+00 0. -1.
        -12    1    6    6    0    0  0.14384359221E+01 -0.34329689659E+02  0.51863164725E+02  0.62212414721E+02  0.00000000000E+00 0.  1.
</event>
<event>
12    1  0.8331241E-002  0.1844594E+03  0.7818608E-02  0.1163597E+00
         21   -1    0    0  503  502  0.00000000000E+00  0.00000000000E+00  0.26655149151E+03  0.26655149151E+03  0.00000000000E+00 0.  1.
         21   -1    0    0  501  503 -0.00000000000E+00 -0.00000000000E+00 -0.30640094827E+03  0.30640094827E+03  0.00000000000E+00 0. -1.
          6    2    1    2  501    0  0.18292436784E+02 -0.63831883928E+02 -0.23881393220E+03  0.30175715826E+03  0.17209347954E+03 0.  0.
         24    2    3    3    0    0 -0.41236187058E+02 -0.70332048221E+02 -0.19450991909E+03  0.22711906631E+03  0.84273017790E+02 0.  0.
         -6    2    1    2    0  502 -0.18292436784E+02  0.63831883928E+02  0.19896447544E+03  0.27119528151E+03  0.17190373928E+03 0.  0.
        -24    2    5    5    0    0  0.30341851253E+02  0.91100858666E+02  0.11349792678E+03  0.16904092822E+03  0.80455339438E+02 0.  0.
          5    1    3    3  501    0  0.59528623842E+02  0.65001642931E+01 -0.44304013111E+02  0.74638091951E+02  0.47000000000E+01 0. -1.
        -11    1    4    4    0    0 -0.39303919521E+02 -0.55242160785E+02 -0.56445387378E+02  0.88218910525E+02  0.00000000000E+00 0.  1.
         12    1    4    4    0    0 -0.19322675368E+01 -0.15089887436E+02 -0.13806453171E+03  0.13890015578E+03  0.00000000000E+00 0. -1.
         -5    1    5    5    0  502 -0.48634288037E+02 -0.27268974738E+02  0.85466548660E+02  0.10215435329E+03  0.47000000000E+01 0.  1.
         11    1    6    6    0    0  0.27100772525E+02  0.16613979267E+02 -0.16858766609E+01  0.31832661822E+02  0.00000000000E+00 0. -1.
        -12    1    6    6    0    0  0.32410787278E+01  0.74486879399E+02  0.11518380344E+03  0.13720826640E+03  0.00000000000E+00 0.  1.
</event>
<event>
12    1  0.8331241E-002  0.1884945E+03  0.7818608E-02  0.1159961E+00
         21   -1    0    0  501  502  0.00000000000E+00  0.00000000000E+00  0.17846611368E+02  0.17846611368E+02  0.00000000000E+00 0.  1.
         21   -1    0    0  502  503 -0.00000000000E+00 -0.00000000000E+00 -0.23945725985E+04  0.23945725985E+04  0.00000000000E+00 0.  1.
         -6    2    1    2    0  503 -0.13254535805E+02 -0.75063963721E+02 -0.16889801208E+04  0.16994658034E+04  0.17239456763E+03 0.  0.
        -24    2    3    3    0    0  0.39010379598E+02 -0.17596280537E+02 -0.50912596498E+03  0.51704790980E+03  0.79359019697E+02 0.  0.
          6    2    1    2  501    0  0.13254535805E+02  0.75063963721E+02 -0.68774586635E+03  0.71295340653E+03  0.17174953226E+03 0.  0.
         24    2    5    5    0    0  0.72405791449E+02  0.68831395099E+02 -0.44380882892E+03  0.46182578124E+03  0.79601608022E+02 0.  0.
          5    1    5    5  501    0 -0.59151255644E+02  0.62325686213E+01 -0.24393703742E+03  0.25112762529E+03  0.47000000000E+01 0. -1.
        -13    1    6    6    0    0  0.85192137575E+02  0.63308320131E+02 -0.42701127352E+03  0.44000485386E+03  0.00000000000E+00 0.  1.
         14    1    6    6    0    0 -0.12786346126E+02  0.55230749684E+01 -0.16797555400E+02  0.21820927381E+02  0.00000000000E+00 0. -1.
         -5    1    3    3    0  503 -0.52264915403E+02 -0.57467683184E+02 -0.11798541558E+04  0.11824178936E+04  0.47000000000E+01 0.  1.
         13    1    4    4    0    0  0.74586690083E+01  0.21032661544E+02 -0.44796247696E+02  0.50047061878E+02  0.00000000000E+00 0. -1.
        -14    1    4    4    0    0  0.31551710590E+02 -0.38628942080E+02 -0.46432971728E+03  0.46700084792E+03  0.00000000000E+00 0.  1.
</event>
